6.982214938331286 8.126296093319876 5.352512538396158 6.432259904906079 3.376350634549904 2.4781436157716645 10.291320359999908 10.507830391134634 4.223401319328474 8.28353473810884 5.2341653091346565 2.466639143971781 4.080817568267596 2.483162563809007 4.840090980012118 1.9816697104586618 7.118247984486282 10.757506760706608 8.389812592328157 0.3749251955610146 5.815461608983532 3.7156293491695047 10.679441478030535 10.62534112905658 7.40258985879237 9.268150225910944 7.598665601489343 0.7463425592578344 10.122761923317197 9.84335208885733 10.850520252255807 0.7386316300004621 6.546305178707 0.41281716689056436 8.585366885878395 1.1013549155278328 7.517927891936243 4.791617936413365 10.414023862341441 8.55377575840525 2.583183028267483 6.886442111713939 9.839278267398448 3.19226822222788 8.922288215813788 3.218525359470862 9.088304587906157 6.303168650517019 5.675094016796286 0.6153534472451303 2.681584827666297 7.704802229898087 4.7713248737861855 8.190847152276351 8.90261437404836 7.292813949880357 7.182951132777221 5.855700101473397 0.9688068878368632 9.420337332090892 3.7043204207996476 0.4855278186410831 6.478527653155091 8.662693448929923 0.47403529671747907 8.115530341144538 3.4594131382155395 8.954835333389285 4.015082385207073 3.943361400482966 4.07999194045193 10.485038718012676 3.4622159273792508 4.404235538007283 2.623964696951867 0.6055664985723117 2.7780746468604076 2.028056957470467 10.28797439464168 0.8827134610058192 9.963241938511262 8.126654589608258 0.22777767811380015 3.2595786162525044 6.855806974343144 8.259950027742883 1.6939384166987843 5.934406332059002 1.7828563597413198 6.858989986843017 0.4737007001816562 5.760318361716102 2.371767989837332 0.2549440923064048 3.767589583937061 4.672184354762829 5.27832553374894 8.018768933853167 6.905225144520359 6.536647505968476 2.4758405487069095 0.26280385184107485 10.380216575994664 8.011631598657205 8.998908649812446 5.174741833454428 3.342662846965921 8.4622831602007 5.2658759353705955 9.343314947708294 9.017126779376566 8.824429592609492 0.7286915056407894 0.8405086706917995 4.209648098083288 5.509457868040081 4.681646484071325 0.702143225957546 2.9572141558123217 7.099454088155972 0.9713478660748166 9.811380738048022 7.3102390422004815 10.800135228452351 4.319847684427024 10.717311722312303 1.7737527267212043 1.2531943889432904 0.6986886253604139 9.996788500284671 8.614329040570075 3.271485038436331 2.346379934505578 7.191641951889504 2.7538598521088122 4.174493734774107 5.895243328434281 7.040128384190756 4.161327143818999 7.006277643748417 9.830381041332249 2.892098193613548 3.854193596390952 7.6189369370687405 8.789916177209843 3.082742174365346 1.4641422958461565 5.693735823792132 9.443139868736743 3.849000831971363 0.7385621034475639 5.902424117725803 9.045132943965896 1.705149573353628 1.1323159586153375 3.2314529529003813 4.293471048421248 2.4209362989650676 2.010946907343162 2.431234919613122 9.722332432718803 1.8461037958309525 6.190981039301349 3.6929028571908877 5.232133830167161 1.8650171909240563 2.7459403431927454 9.517185647573385 5.709650886291498 7.0180428401216695 3.6287972027139173 9.88305826867657 5.23858676335803 6.176945366435013 6.5123349395018675 6.711963054510986 9.57125340597567 8.640792584766974 6.815829206426647 4.607883156855832 8.525726139720359 8.766863779514516 10.47776015700614 1.3786463628290817 5.321334224830846 6.649758516714828 9.411766011741404 7.054066285342079 1.5876822895272458 4.461573217100563 5.711171779636147 0.9327399885208926
6.996818399638418 8.167218602060526 5.341572254813271 6.500403158780027 3.4670525988883436 2.556945316925083 10.310754320847725 10.519360178348297 4.247877044309694 8.321508504371657 5.21161590042701 2.6150307994046726 4.060345777422625 2.3755408897833825 4.882569843889367 1.9921680148652592 7.151466787253799 10.73310432520979 8.41867974820557 0.47585665181918707 5.872206547441011 3.715504641115892 10.71607084166238 10.577152354669863 7.325647192355303 9.268778762875533 7.624482714616578 0.8491180685192437 9.967336262566954 9.748834038030864 10.85226266770439 0.7644644797182899 6.563083771068643 0.29962744888793696 8.562454081592023 1.1027007958739865 7.609002667387587 4.792698664432916 10.458504582154045 8.554882437438614 2.70121935709928 6.789722525692112 9.697842219299016 3.1301850448034214 8.96906332214019 3.2287576402812213 9.121984462380546 6.350045731624612 5.601148204663616 0.5650184649008645 2.604569546435186 7.686685346499528 4.695712094846647 8.126774941826467 8.968226856430272 7.374205656294665 7.261076384826094 5.78907054642805 0.9219438149181445 9.479177046897359 3.810492383551189 0.5056619890698417 6.425251603179915 8.70564180266243 0.4374498399047322 8.049374705681512 3.526170084516533 8.947836646852155 4.000761174579806 3.9238389188405174 4.08650434144186 10.553231608004433 3.3859154250263543 4.352239720610689 2.6304456674874364 0.5116628157991713 2.836140189789855 2.1581032579690063 10.31591433659072 0.9357965561296598 9.915290714304431 8.155920883381121 0.1445217209298611 3.290406249421239 6.851957747148175 8.086754946042886 1.6746369408277781 5.95565758099407 1.8009106734521945 6.778435670203746 0.4098649389022219 5.777599016692039 2.3400617078536388 0.16216245685628825 3.6832192373512873 4.583973311830926 5.253515228260146 7.992973017812794 6.9930705987303465 6.45968791877002 2.313740195968835 0.11793840614104414 10.376454900244873 7.8681440895964165 9.051134730431437 5.11458587807659 3.420156203177779 8.471898521100185 5.3392583951222 9.362810544499496 9.160918139060339 8.885405887957411 0.577481803978634 0.7393129335082667 4.134269792435456 5.608513448187305 4.72507530022206 0.710171337230027 2.959415681687814 7.2284650853303525 0.9588808370851728 9.87561834063406 7.315088170666475 10.813893876958566 4.426750347939565 10.704946934039583 1.7882659190840922 1.2575338577370112 0.7715994235919751 10.134553362213172 8.633999057767557 3.233895929642143 2.398668623503047 7.181492647282523 2.704195871443661 4.0689602879156705 5.858562379497423 7.078335785186733 4.2400446835713765 7.107101515055062 9.714050100327546 2.8958334245430524 3.7690167201685307 7.639712908451697 8.86256059720473 3.106340340475256 1.3992550480173047 5.696776875370149 9.465228709604709 3.7005677534387953 0.6491777785095943 5.898614964854118 9.08399588332105 1.6960917431276081 1.0915225722959991 3.2379804894723887 4.201751935162819 2.4572103600062283 2.005833909190923 2.4446416479753914 9.749040438660584 1.917961556885443 6.320649936676086 3.6894221194339214 5.106297263314682 1.8524347885448995 2.7790541208857515 9.509126864588817 5.775556736776917 7.016621996900489 3.608654294067221 9.897887882261733 5.243455913359062 6.231886802705499 6.437038165456024 6.8418767058650145 9.57476226483974 8.756709663731545 6.914171242222162 4.5114397852709445 8.491908518991975 8.774992414248311 10.524856953013469 1.3594197264813677 5.491940545159723 6.65936423323745 9.36346233596177 6.978188027008439 1.5800185468877694 4.445358994187469 5.625221036003577 0.936855717255854
6.998680123143853 8.219403636600608 5.351964444521859 6.569820421029594 3.5533779264256213 2.6385141589819705 10.3557512492678 10.606856246189954 4.318445473930115 8.34493441129692 5.173188722385786 2.779142950190169 4.0347331060952385 2.2697966996204575 4.910189964254627 2.0024966360657683 7.1865798264813545 10.711629963653019 8.420554836444946 0.565825866583027 5.8502098512965 3.7030546656585694 10.743965787506175 10.531138064100487 7.266479833288144 9.27510257101773 7.651044779045947 0.9736232925690846 9.771925071200243 9.653443658170271 10.825266977140327 0.8428907623997205 6.539037846357158 0.20794204870997116 8.557588344584486 1.0796135408590053 7.6977291495265865 4.782997321553769 10.528618107387711 8.544228229253823 2.8495388099121386 6.689083889591116 9.5573159990838 3.06496252320728 9.002002262270704 3.2220470662251977 9.162921049769697 6.398159231854158 5.5508237871834565 0.5583539776920006 2.5172412421796584 7.668782232976818 4.625543474534842 8.04400595988554 9.016959074311615 7.449926164848758 7.315086756950513 5.681003447539544 0.8300987235176709 9.477774434395636 3.935075335234404 0.5554495103428794 6.362141229873283 8.754514272181972 0.38939413866513 8.05584541168263 3.535097378375618 8.925067549354376 3.9740043216938297 3.8651573983372716 3.964706550374279 10.539697227418017 3.277562147082933 4.372418167489514 2.6840906174595793 0.3933739323701338 2.928102805185862 2.2818425271828184 10.339795144047685 1.0191628206465926 9.840767681741491 8.165550423747419 0.07247591019824712 3.3037501455075073 6.856215673812986 7.910100673872203 1.6369942938895203 5.969429872328491 1.8116099150730376 6.695601019020707 0.36572392457685426 5.762641355527557 2.3020456284145516 0.07086835160561458 3.6045482543302962 4.501098888076795 5.211639786020375 7.962129090485107 7.089539769274739 6.4205998808567175 2.2241985173780834 0.04069730091132144 10.354371790205203 7.776032459623127 9.116692878349127 5.068110872216008 3.5020881178147376 8.495534410532395 5.4121718585689 9.381570742132485 9.321624013262628 8.909980394724872 0.4176611013777442 0.6903117281941279 4.06819856571619 5.687303339321482 4.739984267318467 0.6933726066495592 2.948740381712901 7.347791884804679 1.0164929699569365 9.856235002254389 7.360413392133322 10.822920810545673 4.514936926232294 10.727618654520283 1.8199627026252974 1.255025338021171 0.8237173676178629 10.257516384999093 8.579420728173618 3.1874628327188326 2.460031707670229 7.163530912065366 2.6400782700450725 3.962164869896739 5.818026093796702 7.13004372867965 4.260519055183431 7.211811979256256 9.602718667443286 2.9236168477618265 3.6948430825772847 7.648698612451294 8.940958483280198 3.1195217584153427 1.3264856622166403 5.750334842788013 9.476536179804015 3.5465566642893163 0.5898132476368763 5.894211336828625 9.113825341400107 1.6810609507159402 1.0213504037584586 3.2603677872711945 4.139257000263501 2.4271527896979403 1.9790349701192396 2.459086723902938 9.779441493809037 1.98067511435902 6.436230129605354 3.677887684177964 4.967442946293587 1.841143373271469 2.8071991923845596 9.537482201853075 5.832483259248012 6.990044926649644 3.571147966003641 9.884606239037877 5.248852595063341 6.280764007062452 6.434188095717416 6.963465900459294 9.579973885734011 8.898727484576446 6.995627934194328 4.401332498392135 8.456344738895783 8.775010644238037 10.589412063083415 1.3502297371051182 5.673106859047355 6.681795566512357 9.290276620706294 6.936202575678837 1.5411490437449968 4.458053248194345 5.655467162057928 1.013784016490703
6.996196062258938 8.267985894315798 5.37679924113885 6.633266565805262 3.623409210457652 2.685359009606048 10.42158548372665 10.724712678125618 4.401631867884307 8.369129646147565 5.127968671085904 2.9563860396916484 4.0034855808798016 2.1952451002842515 4.894764669519742 2.0198995816212104 7.2243939150603955 10.691689471198368 8.394106093346734 0.6547597351912109 5.764466279644575 3.661123645728398 10.757366668007315 10.493658822883559 7.230138497916205 9.285254870088245 7.675110193756719 1.0988550835147806 9.567890518459025 9.584657316057076 10.793506501172027 0.9340670004895795 6.493637366637033 0.15087403007028957 8.567051701213682 1.0098564006167299 7.785549527676527 4.770164775970493 10.597973497577135 8.527708367212556 3.0135060885036626 6.568577567559411 9.410028512835401 3.0212487871354052 9.023099908420784 3.2130787609498985 9.218513459442116 6.432325618425506 5.525061603578097 0.604399616110276 2.4085656780149 7.641598317210356 4.567681804459309 7.97616325710567 9.037781715643948 7.519810988802229 7.325298761745043 5.53714803215752 0.7111663263593188 9.413373184895118 4.069922930429593 0.5892280533355108 6.309604388078628 8.80358951551469 0.32751072246027935 8.114847695010278 3.505466083053224 8.889269588732711 3.952544487918364 3.789752348804123 3.7824223045174095 10.50755875871614 3.1472929708922597 4.441930822473924 2.774557504081692 0.27577364098592944 3.021650582155566 2.3739787283064846 10.385912601531313 1.086877248184048 9.759763929572996 8.155722193817962 0.0110786832315622 3.2987479748430517 6.869131101964379 7.728646665361897 1.5719307121167954 5.9875059531331605 1.8293510081412827 6.612242912858482 0.34430901210045145 5.720735778396289 2.255753258455458 10.829982973407684 3.5395100665181793 4.455754743032421 5.153031992884027 7.92416880963192 7.183877773973395 6.421422856256824 2.212967518470793 0.04301812953686581 10.29903800257768 7.761691590938885 9.211020525282365 5.061520462211242 3.583533769537934 8.523342918615135 5.4855988170034085 9.387864630777356 9.49452491964268 8.907643566411405 0.24543485916634658 0.6809383096534016 4.008263683822251 5.756343504642409 4.7240995198753275 0.6530721961065366 2.93876135542893 7.453927464820768 1.119726705913391 9.796913679950544 7.4045826926151035 10.812781802814865 4.566063765053798 10.79293095695396 1.863481866205192 1.2568582603617027 0.8618166543373027 10.369384709080386 8.507651194179134 3.174636750912916 2.5246301422169557 7.1306236448148175 2.558033425514628 3.855212359115686 5.778214184928987 7.190588836742564 4.198030385911596 7.310975312242562 9.496707643941392 2.9507283314347927 3.631944639804846 7.629848527701877 9.015976191306587 3.1226748814137735 1.2398091203170518 5.848061362487709 9.452564488348075 3.397242051406734 0.5856966008880456 5.875394283183496 9.1171742397627 1.6487387169166772 0.9346838101421502 3.2983896171223677 4.09561609307013 2.36571478208102 1.9370429328691816 2.46888922766333 9.815135627081068 2.02850016691762 6.539756919356544 3.657246866750092 4.85016542228192 1.823454394737305 2.821828145237338 9.608265488322726 5.874015148925107 6.935112359869664 3.5356115688901353 9.851883582438456 5.252601142609761 6.322559562647589 6.51934138860244 7.065044181929693 9.597731943199598 9.042027711667808 7.0658043346705375 4.299934290484209 8.420407378179947 8.773520044951862 10.668808873698953 1.3537560161696123 5.8523942331105205 6.729339012923112 9.18802047520939 6.912220903045381 1.4772591179070724 4.47773401656769 5.74650495631091 1.1189665531725468
6.995215413625824 8.2988123517639 5.4061397995458815 6.680036013013756 3.6645114501624527 2.6417470219725145 10.490239504769328 10.827271083291159 4.456530774701149 8.410504879589814 5.094369034732951 3.1345011499804714 3.9608999317671683 2.183166096180125 4.810030189233471 2.04685323079865 7.261425527327339 10.674490381899195 8.348053026875023 0.7442137502321797 5.665554352705163 3.572228606441188 10.745670079144265 10.477321426422273 7.216244819696719 9.296359388357027 7.696460812838417 1.222549565920341 9.372109262899667 9.575682979910004 10.773927018587443 1.0032830976003393 6.456716090530065 0.12775328153554905 8.586646677286701 0.902695774941683 7.869161408152097 4.760116471384939 10.654201400024705 8.521242120949728 3.1586438443030325 6.413988732232583 9.254131384348591 3.010693852881186 9.02712058233717 3.223690168215257 9.280629728252084 6.436850474248462 5.53555940463292 0.6765078219543856 2.2887469617292395 7.59225859934819 4.5350270978335425 7.951609143484765 9.031299960625923 7.579905008458319 7.290572620068381 5.401678177528538 0.653395317241182 9.317820767257972 4.1938487076070246 0.5577830830753449 6.296108553433711 8.84009069003348 0.25826169608326804 8.175743230570161 3.4674401944377338 8.845757275661347 3.9455285040869765 3.7318917125995643 3.607856449411802 10.513622312130297 3.018010478768509 4.520263579722624 2.8746089535881887 0.18817949272129747 3.089895785335056 2.3924063988183297 10.450019773445096 1.1204641803945474 9.70548252847784 8.13437281327552 10.818575805344949 3.2752756373792904 6.876043426992248 7.5557840251918025 1.48329934902642 6.02955106283547 1.8674113525828517 6.530229726300022 0.3399386889263212 5.666987282404165 2.2034659335826383 10.706514189566262 3.5013637195087783 4.49742354876279 5.083556928822308 7.884044337071266 7.263466366595613 6.438619925316167 2.2407655278687533 0.09247932877847609 10.209298439540962 7.806492444876853 9.325104826561226 5.108264110602051 3.6620363897732693 8.542301845313832 5.557758959439411 9.345697763220354 9.670278051100112 8.898819096636473 0.08047202923252963 0.6950870581652955 3.9561234994371652 5.82033247125331 4.691509534281257 0.6004127416206225 2.9408602411109364 7.5453084406498645 1.227575675394867 9.746918078940615 7.405619506053319 10.786204620781156 4.57920909688607 0.03826790738574309 1.9132216808387905 1.2658414116750056 0.8908523938688796 10.487221667979007 8.470253705826945 3.1954440843001017 2.583376847794272 7.085153463294178 2.462012044500102 3.7584551896711957 5.7499452275539005 7.245120524237192 4.0956930232254605 7.390302356013241 9.396034846661774 2.9551678270449004 3.5678863952320947 7.585224217189459 9.072398989719995 3.1163615626544825 1.1395264876024687 5.9651994927167 9.39578516951725 3.2629220464894186 0.6299213234448213 5.850228595427921 9.093404436443985 1.5989650001086542 0.8511070491192425 3.3472694992260643 4.043358522627859 2.3300956679678344 1.889209252852502 2.4723790737618137 9.852716055050184 2.05241126114629 6.630415394421837 3.630099426330385 4.810117033457653 1.783215877238524 2.815826269345082 9.701086039628631 5.895387592002495 6.859434469117463 3.5163552037081747 9.817554999784548 5.257332221410239 6.355227759045522 6.644256192650824 7.14395785859333 9.627518126218561 9.14864821855168 7.106430298218738 4.238388939084303 8.381661741633408 8.770734721496229 10.749046148359335 1.3601216725524532 6.014592145220142 6.798198435541219 9.080931434745864 6.882198511381138 1.4075060523716887 4.4908776653650815 5.846874237268896 1.2223975885280227
6.997950538042927 8.306988787623684 5.4339795225835035 6.711724897220908 3.6816761803585556 2.5062511284381466 10.54033870326701 0.03950454198812713 4.465690733724331 8.472730349606941 5.074719089374624 3.3155473734190437 3.901800505592882 2.211171470295124 4.672056610474548 2.0858046613161028 7.288527233945488 10.66480491979794 8.29212358697445 0.8345182587831937 5.576793953930387 3.440827378306683 10.701707509146878 10.480042411290514 7.214982467521755 9.304812668575718 7.72024738243582 1.3559667114843637 9.191956499267183 9.613292708325895 10.767277149674854 1.0497262172918496 6.450531386251287 0.12246429717342255 8.614199317537397 0.7876418793344168 7.946795210432443 4.762061602726667 10.69597843911564 8.53835424269203 3.274847105072124 6.221086471704776 9.09166522218625 3.014944804961816 9.015548884555315 3.2726118997190277 9.330148612747953 6.401866842520033 5.591322788725514 0.7456764413555989 2.1662503530047355 7.515411427796218 4.52379522239342 7.972662829664397 9.008691361336105 7.630752364220574 7.2251602472363405 5.283732490912003 0.6739013933449248 9.2033386857497 4.305678241772312 0.485386777987497 6.30820522791843 8.861558426442947 0.19008251425802228 8.216777635654532 3.4343062209415804 8.793015745785127 3.950237188584257 3.7186547232874547 3.4589802839170254 10.565132121868105 2.8931261132180506 4.584677441986746 2.970772372959601 0.13689981757031455 3.1330851733332534 2.3521304641887077 10.52169752464264 1.1326523358917344 9.68540520724182 8.107708294832555 10.777411527343748 3.2335609091083732 6.842614616514134 7.39335402480115 1.3839827319780311 6.099528192235158 1.9290256217680777 6.447656000724246 0.3460640412164714 5.619544968936214 2.156029171244459 10.5499956584333 3.4847393980347507 4.626875080910012 5.012089937442227 7.850345014395183 7.315675213525332 6.4537431376324355 2.2775331981569638 0.16585223719976952 10.092917864747886 7.865665936524175 9.43848011879318 5.18956090227353 3.740192988461711 8.54831501217816 5.62829048114299 9.26362412721477 9.855421870725658 8.901976581492876 10.79493510329157 0.7286888806720645 3.9127161200842173 5.887129431133864 4.661694372065774 0.5396914175563221 2.9591189236915145 7.630025379955246 1.3103294604400704 9.728655345773097 7.371587898887015 10.758705245650841 4.570484973045724 0.14839376432048568 1.9615446045022067 1.2814345485211562 0.920516157166873 10.638286269880618 8.487172380310687 3.218402744650723 2.631118813891719 7.039063125823912 2.35357358220794 3.676836852263987 5.7366979407681775 7.286617543935075 3.987769107595719 7.447389571686689 9.306429394777714 2.9402390338158444 3.4864537788395533 7.528659902243456 9.100247976721684 3.092222147314992 1.0248980770542007 6.087885593478495 9.32239049708065 3.1395303771183958 0.6896194441919916 5.831629065206247 9.069237215075324 1.5451128266065983 0.7850930942012013 3.3979461571637803 3.9657968219645507 2.3434283540276226 1.8425144941941 2.4724517853561276 9.885803302709496 2.0518642615855867 6.71289675245457 3.599646314002194 4.835606369150399 1.6999279235870965 2.7869647094573833 9.792488904473425 5.900931281663664 6.771489514137686 3.5137970676250068 9.797382485125107 5.275225689956529 6.3802092217201265 6.77728368723746 7.202395874271309 9.65862614505035 9.201374743182173 7.106162688462503 4.232426439156995 8.331966664918967 8.760919932996487 10.814216462089883 1.3578112984262396 6.164685513329066 6.871542079967316 9.005381955352151 6.8206531813943885 1.3469282354691718 4.504470461549414 5.943128920586931 1.3253574187606474
7.003837992382165 8.291688247743904 5.456196730945399 6.742181731129108 3.689702476788643 2.3364490006204885 10.541077547380493 0.05098653340133343 4.438981988507702 8.536611434928929 5.051609869422312 3.487278911944911 3.8292821244423267 2.2384471922259315 4.519719341998626 2.1374956779684418 7.272987807867891 10.680006524623236 8.239537014306986 0.9169659522240237 5.500529074944176 3.3008401501966285 10.627323910350716 10.487679195655938 7.214687739047583 9.305443592496765 7.749289393183522 1.4926921452328015 9.066777685763622 9.638890489090308 10.770384644702935 1.0724111133978185 6.4825750816705145 0.11618804638035699 8.65034862276141 0.701546330372431 8.006803052820255 4.788988447059693 10.718819014635864 8.582255964256438 3.3589450178936557 6.0347620158472495 8.941133229410923 3.0079842427389525 8.994921983382042 3.3557350438663476 9.342998119714908 6.326555161633722 5.68255412240491 0.8010154005436602 2.0522795431488743 7.42641589076777 4.524252345861515 8.014578564230998 8.98095425856051 7.670547428952816 7.146323967871386 5.173426214857308 0.7227462568115723 9.082090129434432 4.418637693658948 0.4404778413905906 6.3236271447844885 8.875643252549715 0.1358957686770737 8.237823582224841 3.4070295612621924 8.727442221951064 3.9557507633155513 3.7526439945403314 3.3434048395790166 10.627692623583583 2.773807961841302 4.618187464187691 3.0549734909157387 0.11832549868029803 3.151793248063753 2.310183605032172 10.58320845648892 1.1397359808178793 9.69387213881482 8.081283125859295 10.750083727881577 3.176713924802792 6.741867240430487 7.247101970019291 1.294606383128676 6.174699532226952 1.9955519278216718 6.373370897700925 0.364123837568039 5.6048749198454075 2.139154887516341 10.37932088322057 3.4787985075889805 4.785778473032384 4.956297498726311 7.834125970263373 7.320681948989864 6.46047397671222 2.311105388114338 0.2469934035425026 9.967489891122339 7.905146645617579 9.518765886723758 5.263988691553441 3.8105970391414727 8.544159211695845 5.681903451993969 9.194460909403935 10.038792523654621 8.934474702205627 10.713331694170261 0.7883804656138717 3.880218773112155 5.96224479854788 4.652575395405921 0.47191498229520296 2.995816706054357 7.710520281198289 1.349620566373734 9.744732875936704 7.337989781920894 10.749801770703503 4.55395545012097 0.21240484894756617 1.9892187358218465 1.300711840484672 0.9568032481338837 10.813903650688037 8.54343262973696 3.2333873175957493 2.6547027431185595 7.014227029943522 2.2434139763627803 3.615211559242752 5.730920622951521 7.314522269099623 3.8890678907009524 7.482037366396373 9.243413013320394 2.9215969011796914 3.388908390317487 7.473437672465103 9.090971780543777 3.028165869984971 0.9066202926900624 6.203621831993277 9.244616753580633 3.028545427724687 0.73577701624135 5.821851812880519 9.076982366708545 1.5198467903827375 0.7522758489614427 3.4324382408094376 3.878353517934124 2.393122393413446 1.821844617114134 2.4751936212467984 9.905632824055553 2.034386106847998 6.768013346443464 3.5816261215313494 4.846399266318383 1.57999042536738 2.745449576431125 9.870789423549665 5.898587543344156 6.684326287089608 3.523510409327473 9.803651081647407 5.322375516428543 6.40316075801517 6.911117458823078 7.229360356814301 9.672649438911295 9.213406262869167 7.08885892607845 4.274947977909487 8.262950304594012 8.739316956950736 0.01025348122574459 1.3403485130178254 6.305126416100067 6.924282690137784 8.988935815601385 6.718638306759893 1.308064416128305 4.5406817737377745 6.024394667299591 1.4241765509607187
7.011907476881436 8.254156457657473 5.472088389786315 6.786714015740048 3.7045397326891347 2.174767538388223 10.476969169461798 0.0095645985877983 4.402294811536109 8.584013180625904 5.008793323687035 3.6358480320098536 3.740576322269225 2.248986655815127 4.366865153991053 2.1939075736358737 7.183008120400497 10.737678992724673 8.202534720463497 0.9823823595189756 5.426882791248403 3.179489332025238 10.533869047746151 10.492445936355141 7.206093213875862 9.293820195597107 7.786710409961449 1.6252881233142447 9.025339474671398 9.606639469296397 10.778430143648324 1.0652816888540582 6.541968672612954 0.09857226533260685 8.701075196882913 0.6641689773583302 8.043843669446451 4.8473927546564495 10.722050492822571 8.610187124636706 3.4101126672657593 5.935838654911868 8.812533929887918 2.974367980328161 8.972026998236972 3.4466911604485575 9.31837926687184 6.222559851104734 5.791464697078372 0.8393729149570975 1.9573883271978885 7.352884061777438 4.542745387285999 8.05170127168572 8.955195472336857 7.701447297111354 7.0642553649030395 5.057792247443904 0.7662202638203232 8.960831269805022 4.54803436644843 0.45668926118226727 6.344748275443361 8.894903277499553 0.1058565335602094 8.24482487761884 3.3820203845013705 8.642051056475944 3.948927419438442 3.813353976112925 3.263094219851047 10.64916445825833 2.655002511108158 4.618340939863781 3.1326363465350946 0.12021697903197454 3.1465090787644225 2.2962840022594917 10.6181025437511 1.1393740008379285 9.722563487987717 8.057564668667021 10.742274335275638 3.111588810605911 6.596234899388144 7.113611945037695 1.2248538751291072 6.234622625301017 2.046748231284457 6.323538168433365 0.39852132846757776 5.63421510964453 2.1687849226143254 10.275326838894106 3.473797178656018 4.896803525151376 4.9295453408270005 7.837952814633529 7.275185923221148 6.458548032012066 2.3396362904761414 0.3145923822873497 9.843039496941785 7.910286107523008 9.54447228799372 5.289824532051466 3.862678042031418 8.537138518991652 5.707653885883534 9.159070445747707 10.21323552409581 9.00839956805074 10.690760978802205 0.8714926252968133 3.8526094730931013 6.052716423943956 4.669052279005207 0.3925690592954318 3.055274188212483 7.788357796913682 1.3574468486397298 9.785229220604885 7.317107585926648 10.765196857670192 4.530552556225066 0.2076303653776158 1.9793570992516754 1.317291791679058 0.9992854166946473 0.15845586485347024 8.61357944118966 3.246566159968449 2.6407504463569347 7.022409568701919 2.1438140046015355 3.5705594859555796 5.7214941038967 7.333418884368162 3.8095281366778058 7.501636600720816 9.205988459670175 2.9088951870489663 3.2823859881074555 7.422692083878298 9.052792311184591 2.908364121518312 0.7896250804212868 6.307920506603317 9.162235162787521 2.9250114001935055 0.7613788970337289 5.817118413630575 9.127108971259982 1.544674543375385 0.7583203931000442 3.4429845398060337 3.8077723690050314 2.455560309167462 1.8682451845524028 2.4835767254274717 9.907135855070102 2.0084681607891555 6.765785698603461 3.599442947979922 4.776164945116494 1.4522691410415964 2.7127152447965726 9.943367529947167 5.899520275458371 6.604753624022717 3.544396380016831 9.840557578441382 5.410701549671539 6.435961489851192 7.046025727707938 7.215088813680817 9.645710719051651 9.21466975538556 7.0939950346196605 4.348635516795951 8.171364425235726 8.72187345715485 0.05302526752498944 1.3064645576969498 6.44329886463186 6.946922396844678 9.012084512549155 6.5867732624848605 1.29352389966428 4.61461264307715 6.080299317321799 1.5133525151388556