-6814.619446051088
-6814.124515061014
-6814.731604436478
-6814.519733200278
-6814.549574428337
-6814.782183596239
-6813.760894508581
-6813.245262458233
-6814.966971614191
-6816.097678356656
-6815.672954097525
-6814.626424954707
-6815.099054719076
-6815.70912387713
-6814.812498302377
-6814.363060256249
-6814.667098218342
-6814.518711004643
-6815.483986683124
-6815.450050005737
-6814.692551882867
-6814.085769723926
-6813.829378350754
-6814.5033509947925
-6814.845466662669
-6813.955140115111
-6814.462178946492
-6815.7614875594445
-6814.517019136852
-6815.2968372612795
-6815.839130617369
-6815.08903399091
-6815.587668042156
-6815.865542666834
-6815.988103964276
-6817.257161817843
-6816.310371648762
-6815.915386438945
-6817.36936496596
-6817.61984276119
-6816.634986859334
-6815.118577254316
-6813.955999994841
-6815.221126075552
-6816.088391519513
-6816.222067986981
-6815.437372766221
-6813.842428114115
-6814.1645055910285
-6814.812375987206
-6813.5571585237585
-6812.939803109504
-6813.97625968647
-6813.798860511636
-6813.020205265696
-6813.175019536151
-6813.372458398576
-6812.712834861478
-6813.2003866684745
-6812.731163769366
-6812.530483350837
-6813.108168104895
-6813.041523616215
-6812.934959075005
-6812.729173256636
-6811.72882482549
-6810.6508280302
-6811.279891958704
-6810.892766893173
-6809.702246263606
-6809.545452773146
-6810.38497117715
-6811.1985708740785
-6811.421592382988
-6811.327042892268
-6811.489993366497
-6811.621812384902
-6812.360160632434
-6812.099119105873
-6811.612206358226
-6811.82453855527
-6812.435430449515
-6812.85171196863
-6812.24834021243
-6811.839587539003
-6812.078628797765
-6811.14705183312
-6811.0599877859295
-6812.1475965944
-6811.615101377356
-6810.488993222708
-6810.100732626128
-6809.778452016235
-6810.793051729396
-6811.186495686431
-6810.868381139408
-6809.7280855134395
-6809.676555996098
-6811.331961758072
-6811.570988594801
-6810.882757457732
