-0.25161201201817956 1.5173234180067483 0.6309320036090101 0.6234968874872037 0.7683541251456316 1.5104675714271794 0.7885874214733709 2.781416828775919 1.1608494777761555 -0.9476967981754388 -0.6567060272493207 0.7494297774373028 -0.6299287591554764 -0.7965110471958217 -0.27993579866353724 -0.11969076569512933 -0.220387249675943 0.6701266715306008 -0.2994512429886456 -0.39141266108930656 -1.4148454166454794 -0.3121198395952496 0.09887871404578455 0.41910704168078144 0.2716486189540806 0.20517943158725307 0.3934944833189997 2.5650842087853243 -2.8885346429020444 -0.02981708336143252 -1.3538022853902296 0.8448429015319902 -1.078022417876595 0.21250681848660175 0.2709274245173399 -0.6949488727806031 -0.07170241074130877 -1.0036018368731747 1.9517341799241354 -0.27272436851676257 0.5320805432567353 -0.258053139657833 0.1821109798035638 -0.9095843075744334 -0.30345316505918707 -0.6664106561315943 0.3513314767977046 0.42662031933869105 0.45508320266507435 0.11098218217753789 -0.10389365076187268 0.016509567619248985 0.06734619065514208 -1.528170388023581 -0.2702831060651216 0.0003314151974897518 0.5152501019629577 -0.06229088761942175 -0.21509849047317794 -0.13300033831984193 0.6508307994154662 1.511372599739952 -0.2984590542787054 0.17494454396211162 0.024382542609422526 1.3476578630553886 -0.7639562531882521 -0.4254406972082931 -0.7119047839086513 -0.5229862942649509 -2.7424998399957476 -1.562703388803444 -1.0478433231900535 1.4030551088787706 1.23385518070992 -1.4439598175129325 1.1961327264584818 0.44332837612199133 -1.7006294465596776 3.171366275056138 -0.6251138542653364 0.17262772290347692 -0.23220532535679367 -0.5180672596967787 0.0003041615039801213 -0.05462797175752527 0.2983042738683959 -0.16821339588586512 -0.4841639220811146 -0.13996057168775894 0.1814702608957713 -0.6482396416495223 -0.45338833146115465 0.18231281140172473 0.09667836396035608 -0.4590871816181449 -0.7226442818133425 -0.421271653432268 1.1840629397781415 0.442340044066793 -0.07990165872264948 -0.3324240983702404 -0.15933537666994496 0.21591378728562166 -0.6266704001191787 0.10123075921772888 0.6533574224920619 0.45869071751067453 0.030373984306167046 -0.4387178739331735 -0.36974006121187936 -0.9126876290901055 0.6149857646923989 0.9149738540211209 -2.313992845157305e-06 -0.5479632759252626 -0.31105668843805784 -0.6219922779172191 -0.13768668805191772 -0.040956387807703665 1.2303044872441844 -2.1134252013104504 1.45454350656605 0.4201172281128506 0.38893051809740115 0.5432599569123225 0.7078324136114906 -0.9714643329086817 -0.8555785427819395 -0.8366876194147075 -2.3497944282369465 -0.04340150691408654 0.22082253744114874 -0.18857396182008812 -0.5871062646733114 -0.4069259262335573 -0.16305884826811917 0.21086002691179817 0.07991322868687528 0.25269547489034544 -0.8257671158474615 1.2137021028008128 -0.6371489310529994 0.2587013147647932 0.95433332965535 -0.13135663206883183 -0.48863018538258435 0.7040035267837036 0.46399773154588475 -0.3628299643556074 0.2289294828189993 0.2662166493052318 0.20544631209539457 0.44184844914235516 -0.8992399882256319 0.6054639412448928 -0.4693070595739402 -1.4140213780822872 -0.8052137171761422 0.4066299922596932 0.6728916358702476 -0.04695400015203526 -0.4093800442010046 0.07230276332946903 -0.60217935695635 -0.16458017000865205 0.678821113980805 0.7891628343608666 0.273273041931381 -0.28065673598996177 -0.7294317370488212 -0.8861263336618095 0.02904703796462739 -0.5220578689134105 0.425782396818428 0.8337899861519383 -0.38559939684163913 1.4710672152526858 -0.7222982113278335 -0.45609621731062094 -0.22386440959126608 -0.5813400516134956 0.09722909425750352 0.22336484424702824 0.9388383193435444 0.13648778264781009 -0.03887636535022337 1.057255617642889 -1.2844845728310137 0.7043236291272839 1.6559069068413224 1.6589629200588267
-0.3430939193792607 1.2962381138225159 0.48904773253597705 0.25775900545618186 0.20136622848874997 0.5440814243723533 0.9459649030859968 2.651731156651607 1.194565381971362 -0.8563118214035381 -0.6741810441056324 0.752345151311885 -0.3167192860404739 -0.24727558942635475 -0.5454770191682993 0.3494833678453723 -0.08604299573369698 0.4104951316420543 -0.684455429448447 -0.2213658115391284 -2.5307214150347384 -0.5695656846863869 -0.0654857404076356 0.6072709125466446 0.6743111419255936 0.08629907760856105 0.23198395337460692 0.7682821342571154 -0.950454306315918 0.07385725230078248 -1.3775219976046729 1.4336190977085568 -1.3723011155253657 0.6843890949868858 0.49736807947621436 -0.7175221300954288 -0.3334119162048064 -0.3784815548499353 0.7221861112300014 -0.1197673845693357 0.4219128865606927 -0.1462857425748384 0.45174411098951234 -0.42075897546190766 -0.14804360580620957 -0.7188886714256523 0.30485004540671373 -0.1020897647839145 0.3739309593647754 1.2167048941828789 -0.6565275926899273 -0.3167054020834029 0.12047109550457961 -0.5580294019120131 -0.6106331441506581 -0.09692878940826533 -0.26752688347622317 -0.7362582730523514 -1.1275387794391678 -1.808651774777943 0.5557061530954752 1.1792017550310983 -0.10874969330259336 0.2971382785847528 0.11023990469487466 2.198353880934046 -1.2229683585940874 -0.5870916093852921 0.0038098606643934387 -0.9836521332241251 -4.218180128540412 -2.7725010143435282 -1.126559446245034 2.51589669131708 1.7833315508455998 -0.9869143489151647 0.7542475105409204 0.36910499873104174 0.4613114429629732 0.8074562333534158 -0.9593701207483091 -0.04171254924743784 -0.08069278716537716 -0.7044922934946641 0.16756213545511142 -0.15152745058975195 -0.0057842107819448775 -0.03900903427334572 -0.19915636532162473 0.26641848090339276 0.540247909558876 -0.6597165319408702 -0.41943228623068407 0.08854339355804751 0.2460795122357246 -0.1885089129101076 -0.5403443259274242 -0.4919057708100625 0.8481480546458232 1.0858007762704331 1.5241152441176011 1.9309648085872682 -0.5578314269685942 1.7056582672328366 0.014454227752117042 0.8120803623889884 0.21147760589113904 0.18831582306269504 -0.20179997359205892 -0.6016641078828283 -0.4922790949890813 -1.2805564414212012 0.498425059985819 1.5643239551260026 0.1240403009130767 -0.5680266223340411 -0.9491551278885201 -0.8709714802982419 0.22045692657161386 -0.2702041731980701 1.7817366955546539 -2.6877443415214226 1.2734023468749232 -0.09720672566000033 -0.49724903739984677 0.7203539431172691 0.6093874446690151 -0.4515991007712158 -0.7758486337504639 -0.8227190730497573 -2.2717372789222035 0.19840251787473573 -0.19778031090970452 -0.23129052685200813 -0.7442731729370279 -0.4195641838228581 0.16613723008312678 0.39647259211071717 -1.4690962075692442 0.011878496605140834 -0.23449489272191876 0.46262476245775813 -0.04303692448581621 -0.6101163524152396 0.6202827514252801 -0.40794048354100065 -0.33465607302455264 1.2826279792382491 -0.5918090694656195 0.27652651587167215 1.1862990281975117 -0.05032420217584881 -0.4472927600863781 0.2795606747123056 -0.8216183837864107 0.7426713756675467 0.569506035093045 -2.4296881165397965 -0.9664694507972518 0.01895880049068993 0.5000813646423193 -0.41607596816394155 -0.8249240511208761 0.03443478463910199 -0.2952253778327561 -0.3825762937445992 0.24720359853783877 1.3326513623442273 -0.01732255043884759 -0.5410863462997714 -0.1376614912409371 -0.9117682025996298 0.053076053889373115 -0.8147975042098354 1.8807354801180705 -0.16932154134837935 -0.08653176244465743 1.0533280004537084 -0.5577859184426394 0.16952722960128222 0.13286921205861635 -0.44034075424857716 0.016574102308597263 0.7324180733706547 0.06461593620817259 0.8288164441967467 -0.44754935618187436 1.3014597672327715 -1.0985220804918434 1.1775284810937332 3.636344625347738 2.5371617713434436
0.006462210685575968 0.8393152868455416 0.027470437506126884 0.066606227165324 -0.13170578787813447 -0.6014139395452353 0.8580743126205996 0.9063812272561035 0.03234499198960881 -0.3053095015416355 -0.2232530012595123 0.5588716953076504 -0.22003577987379522 0.6484952093037541 -1.2235190888912348 0.5662759581915215 0.14448417058972537 0.20509638495514354 -0.9639731667379593 0.15710083091247137 -1.6525025091454637 -0.8494042956504275 -0.38932106866760047 0.8461567352474071 0.8370650573587841 0.007267994416322967 0.09347245542854869 0.10177583308792149 0.013625561203234597 0.9237860529961123 -0.4258577301410537 -0.12952137863230595 -0.61566376459603 0.893389700092442 0.6151785974294953 -1.0323120603236737 -0.34567145029844987 -0.058337559398628565 -0.18693076978971032 0.1340038398836918 0.024538608571312577 -0.5432468442861998 0.33110229423502335 0.39977491701107276 -0.3338806283111089 -0.32383018605364233 0.30707636363407115 -0.5316948777825423 0.2588316696950704 1.5964084943653731 -0.9741778751851028 -0.7310471611650571 0.44325921344695274 0.583340369872976 -0.9601288532912043 -0.20057201472222877 -0.8699047295966245 -0.693170954944574 -0.76027314790971 -2.3378598815828897 0.12518058516510697 -0.15736694008966448 0.5150253875466614 0.1638592326822275 0.07638516092895876 1.4130862678625278 -0.5230613704772604 -0.4995332054483333 0.49125810992373453 -0.1617694400327343 -1.731451831257173 -0.6814043013269491 -0.4723185927067543 1.6672339018183675 1.4093491694175986 -0.060463604602695876 -0.018184641328826745 -0.23576501768359395 1.0788179171946968 -0.9467686299342146 -0.3045217155330175 -0.0696612119415639 0.03681254084265918 -0.6609851142406487 0.24919748903941596 -0.22342012296499586 -0.3084920130346751 0.3732305908636411 -0.01827694393231691 0.45535239716606096 0.6598833965360377 -0.47573404614620646 -0.4254453251939834 -0.10551087465032151 0.5564386603861255 0.5328151074299147 -0.536187109225941 -0.38368238232458435 0.5917609898365034 1.211152339795766 1.9142202421390775 2.275005151040198 -0.9233119415731711 2.9488660928022505 0.4901288814152978 1.5919581719035034 0.13943349553969536 -0.05697873137788896 -0.3024496634953372 -0.911034923978031 -0.5020194622052967 -0.9065707175590902 0.2949947498791887 1.1508573995604503 0.2500454388620081 -0.4797323686723222 -0.9173878627792522 -0.7319830427157652 0.5892742188589077 -0.16606035409860434 0.8871946270253238 -1.0735268439990866 -0.28002964392892415 -0.3783496572577613 -1.3111597681293548 1.1258449366765126 0.568790497083259 -0.06055205055144411 -0.5385388972875692 -0.5615173604606135 -0.38258657815724434 1.5065458677752699 -0.5421746942679437 -0.4949913517139217 -0.8919889630901734 -0.20019766210194553 0.2636185495607524 0.1702707926355261 -2.000301290199561 -0.0634568829030649 -0.25890597457643155 -0.40225448889981685 0.03327238889988463 -1.115174344336544 0.18699761847190374 -0.35488397003565336 -0.05152310757995643 0.8792548033529566 -1.3937806255553802 0.7306674092281351 2.075134019039736 -0.5586066145717218 -1.1567071734730079 -0.12643451217686613 -0.29172353532708467 0.6508961054357629 0.14490506017722785 -1.3745109786924907 -0.9121392127858033 -0.21195557396882203 0.33244903807090487 -0.7376921772854005 -0.9089803554418475 0.2157140125699898 0.9160215785593449 -0.6307162880537783 0.006170133366453889 1.5836100570491245 -0.2939020310356422 -0.7028678705173638 0.5959315762744253 -0.6484026495899479 0.0725120511267977 -0.9892409401658124 2.2273885776034996 -0.5259595179606619 0.2450130186444232 0.14233369990562583 -0.6846266649189887 0.7642131063940645 0.344566133049413 -0.2622710343939225 -0.18011966040514785 0.6612141995323193 -0.3620450065604668 1.1412851824909829 -0.6698790742961689 0.8332202296913974 -0.6184261578325155 0.31209155746047545 1.55219786128643 0.8671762749218678
0.23168827651105905 0.4441326171908415 -0.22850987878307744 -0.33401998210245054 -0.462752546284874 -2.509814746789058 0.6418615060373204 -0.28679395923595125 -0.9851649703242259 0.49416705604041344 0.278745635010178 0.46484850958195423 -0.3277765722959 1.5486777639483136 -1.8799111844445622 0.46288855764210596 0.20225454463097428 0.14690357866449538 -0.9769698361079432 0.4075057099964272 -0.041277004371916004 -1.2688640926849373 -0.74007841812939 1.1226477698954538 0.5811775578937023 -0.022452158355929074 -0.04946905326440513 0.24365701883716104 0.2231334449625125 1.9372295585500572 0.08990864933669032 -1.2495661636872737 0.39312604423598746 0.5805558651493035 0.6666109450678583 -0.9158842816505323 -0.18364849949401277 0.18826285833757253 -0.5969541040016687 0.5289867348227599 -0.5677078055420416 -1.1373125709964802 -0.0513924955393631 0.8215836738937334 -0.6674861485839602 0.37246697322473915 0.03220178154352519 -0.8606145625439502 0.45875808041350025 0.6990888630909057 -0.8203760267388774 -1.1681424118931432 0.9531429088916746 1.5479640257107405 -0.9084401666676613 -0.2932692825476498 -0.8942582187403243 0.32923850155340717 1.7874406879179672 -1.4228433472492914 -0.33612545848122755 -1.6305118638069855 1.1941146675871885 -0.1391110792032701 0.18972941558077003 -0.1259873973371185 0.46101036678278673 -0.39545494947948023 0.6344024786561139 0.671191108239373 0.019849687736075493 0.6779209707640389 0.07961060984479192 0.5145073102596622 0.6998902759462785 0.9664573666123936 -0.7062786959711256 -1.6183942546078451 1.0092472080844102 -1.6688680949876806 0.6050245397146291 0.07687598452244825 0.09404683987477996 -0.5002502861200159 -0.2590754102747603 -0.3275204904210359 -0.4624861799973648 0.9381587767780164 0.17195923608154257 0.4817298587183252 0.6164273822349319 -0.11730323929955926 -0.35227995675390295 -0.4949317021205799 0.9891995454049157 2.0385140538238566 -0.4814645208720806 -0.1578150833706766 0.22049780711187833 0.3986850263810037 0.6192836207368044 1.0647470409239277 -0.900799619403268 2.4807126872167795 0.442587898411541 1.8306215941808148 0.33456119931790124 -0.2407223616888693 -0.18896451239028747 -1.857938279717897 -0.2706934541296629 -0.23854103776683433 0.27365433653019966 0.5264017477044031 0.28445785490360687 -0.3363139203429498 -0.36823905118632067 -0.43970877709153305 0.8622502983751602 0.15238825592815047 -0.12985382227106024 0.2862794814933779 -1.685889826356658 -0.2616616829446977 -1.2396784722599166 0.9701726106804516 0.4738239736076872 0.26512495890294985 -0.23532664459459468 0.08184052761657518 0.9232854592106099 1.2784910742517401 -0.6761312258534677 -0.6986913705421709 -1.0036303761182652 0.13753422163445345 0.23546265595182672 -0.3731850823376863 -0.5413485988222224 -0.03660299593501438 -0.21820849685706936 -0.9255824827749027 -0.2362851518531221 -1.0548413517744415 -0.35834493200106027 -0.2753983158044999 -0.04307549103323549 0.12031014444668311 -1.1093425681461153 0.6906268483664816 1.8352477800989169 -0.29968367071442586 -1.0155698078683284 -0.37243534865585537 0.23892284658628526 0.4827176765528913 -0.6181932158861031 0.19504028627072215 -0.740404434010241 -0.23771648498301 0.05973572529773584 -0.9531274822727069 -0.7939556277638198 0.3266810252388761 2.7665918479479448 -1.0522985307479296 -0.17097116113666036 1.085906191500046 -0.3823569786449415 -0.7334634839160336 0.9930510579405218 -0.14639655712108982 0.18306948706209117 -1.00993857772448 0.8352984523766647 -0.44942317616581956 0.4548335485481135 -1.034593914379315 -1.3260505691982583 1.3566199573446829 0.542609210702201 -0.0973278246188969 -0.43882328916278623 0.20659430965690873 -0.4456544531520067 1.0734085732536676 -0.11930664288283323 0.18203384670872522 0.12028057676032833 -0.23320368471432096 0.24102600897221715 0.09731085533803241
0.2943568591848737 0.11077315149052534 -0.29433911857306083 -0.5789939199788222 -0.3799162304139328 -2.5631597380691016 0.20746334252542334 -1.0282602588518033 -1.5938715868761324 0.8546542311954572 0.2914404568690271 0.47165524809114256 -0.36291043988455557 0.8320447213260572 -1.1098390481665596 0.2213699253041865 -0.23101027660742796 0.12548037579371293 -0.8405527587970685 0.5260639047490101 0.6027223739440135 -1.1321189426106826 -0.9405866694932187 1.0619067432616551 0.10180900031870208 -0.11372914879505576 -0.12211145932148001 0.4801087781751345 0.4680312781853101 1.4655601693915274 0.06532144691562944 -1.2675461452044623 1.2118959028300094 0.028419688793273636 0.621672175573639 -0.06439944932199232 -0.042893971150048706 0.4365643179252804 -0.69999312007273 0.6740113512969875 -0.9068877345788768 -1.1801741462466964 -0.062378048016589346 0.23171475887362028 -0.5068580212445206 1.1708351282339577 -0.6131016602958086 -1.1772849976243596 0.8197821019086204 -0.2789688067645776 -0.5856672182339397 -1.2593124444407602 0.9537314344052931 1.8164607292994006 -0.6456605680684364 -0.3188072789177541 -0.36604564307942766 0.4947085303661803 2.1282578954479088 -0.8720189477261497 -0.3191718613460245 -0.8740714593798043 0.6340780054371596 -0.17609151308236123 0.3497379070583396 -0.697579882645547 0.9117864574320749 -0.4538292756533152 0.5444344368363978 1.506482361527186 0.6911122726433323 0.817287874731857 0.1034413937158025 -0.08203927389094258 0.0718510205040311 1.4480504426425385 -0.6137326090115882 -1.3917337703286805 0.6814258985935038 -1.2249164834593937 0.9161277651199061 0.11969693634271644 0.13886605307199956 -0.43109455305996075 -1.3230223238948955 -0.2302857397365776 -0.47792873980468015 1.097237043131833 0.24500916198968128 0.32576648384440676 0.5913365007045751 0.31200105462919814 -0.006984915958265389 -0.8490340567952024 0.9256231062048511 2.0386762904333344 -0.21501878627517806 0.13480191030495492 -0.36900318304585483 -0.0573217165396045 -0.12860400902435914 0.46225272383032007 -0.5348995007627692 1.0686463759783338 -0.13425632221413009 1.1365875199049973 0.4573552865287026 -0.14348195457745613 -0.24296873452088477 -1.2929327035983669 -0.02065932812156442 0.24210972895469918 0.5534525811746082 0.36429626448848873 0.2940159309056872 -0.0699651163352279 0.25842517828527106 -0.2870991491811959 0.8665198722847915 0.34699531131619593 -1.0722865438340823 0.7885971916653838 -1.2580088951379884 0.09021718171604463 -0.4485281751553759 -0.1112989420870083 0.235159265778795 0.5196667429734146 0.09825624997043722 0.8280484556824707 1.4211998981085976 0.03594633618762197 -0.7467010656522302 -0.5107540138648172 -0.8760290973268074 0.4676319858643624 0.18415577814773446 -0.7882971439264618 0.3965615522800977 0.11970130721809061 0.29972557969595476 -0.7533622797224897 -0.44613859187727684 -0.71214595338518 -0.8754626833003762 -0.46176472845030797 -0.28107428314335464 -0.2808963628045936 -0.48650054063409115 0.49989136011870045 0.7924566746207901 0.34864518821479307 0.27420892348208903 -0.04038046069957561 0.6744366117598642 0.1098984621950559 -1.0385392721803082 0.9178365202808967 -0.5287005710409088 -0.1978813552639431 -0.2222908944565591 -0.9513973869554776 -0.6341800782326626 0.18304583291300733 2.37914125683018 -1.5452589680747517 -0.2881054789585232 0.2797159693432473 -0.2396296428453228 -0.7494446898356383 1.0071350468374138 0.461306814977283 0.48871657444880345 -0.9424183233853188 0.1773878632962816 -0.5172092825718577 0.5484561564012813 -1.8601188323089837 -1.66873465473361 1.6670315559995743 0.5334910504510167 -0.16125367673858035 -0.8020407187647994 -0.2181370201891856 -0.3886201859458339 0.5842194300438196 1.063048313065266 -0.4462080116626315 0.6850560391469234 -0.1580361982425472 -0.1446770033268218 0.05534170999509824
0.26142616989512396 -0.1315558925638315 -0.3199012833128813 -0.26047511883576435 0.11722379221187552 -0.8062046203345019 -0.5638449801525257 -1.558851619157522 -1.4143553643829383 0.43273414554591283 -0.2655725879633297 0.12340600976318748 -0.3875462361553648 -0.1422054018578777 -0.15070109803371465 0.2129588184223558 -1.368782560849146 0.40389510982703347 -0.610105296671646 0.44757429588253883 0.649172952097069 -0.3824821913688961 -1.026004115827775 0.5610499339058918 -0.3655267944614802 -0.295347248122601 -0.04537020060468316 0.34159188091243753 1.41429082969359 -0.2587817902937414 -0.12070403745099213 -1.0860211198113554 1.448667764511563 -0.3795950996290882 0.5963036149018635 0.9486596763093402 -0.1323033122528173 0.9474150052689618 -0.6382159388649332 0.7297659804597882 -0.973426084620743 -0.0784826668879358 0.3188525303333928 -0.5612857040657817 -0.1977024064839176 1.3237581736196558 -1.3619529395218222 -1.2553395758359414 0.7108709433274983 -0.34540816933473417 -0.5654580902759164 -0.6982385992754685 0.5085485215730662 1.092216192878474 -0.4654426915225274 -0.3161526149037265 0.18991864877344067 -0.023922829364184606 0.47335371883948807 -0.1734363348477013 0.2391570740842784 0.9109511060149731 0.1305793875831751 0.10843653293754872 0.5621153990559288 -0.5725013702759431 1.012088019967315 -0.5892513360407723 0.24307980617745234 1.5667544189443663 0.8541063291117871 0.03837320046155972 0.06621181994038275 -0.493056596585054 -0.4450870106843109 1.2365401837412509 -0.33926940342684797 0.33228268769636965 -0.04895508974246408 -0.6291977945267229 0.832857704145656 0.13790214649683347 0.1605723344008396 -0.4612865032623088 -1.9684694904009452 -0.060986052765069174 -0.3517459386273039 0.6687470175742547 -0.09137263547672651 0.24893420807570033 0.5559426945863135 0.9322056445183752 0.8114607265271186 -0.6702200025753554 0.5388620849549428 0.46441527869927757 0.34035595162280735 0.41028558673440957 -1.1408378105409192 -0.058925313581298516 -0.3627340622076914 0.21377951455143826 -0.0811211329520474 0.03313869153549776 -0.889958562923706 0.10987557937692044 0.27744517103119964 0.24234601333522135 -0.7742357807373892 0.5101276931347279 -0.24352563546561928 0.6244433105608729 1.2689707934661305 0.5645965136065696 0.3438151138160014 0.24030687141800544 0.745322954357781 -0.3204769533106932 0.7213903548015833 0.29394831089254536 -1.570288914460186 0.7251796466406866 0.012350294035236794 0.4163832149917152 0.15962848243033154 -1.642137363861056 -0.2344064467731705 0.6188203079471408 0.3378743228515343 0.6120809323407781 0.8509981225001086 -0.2830247220015061 -1.074465296652956 0.10216381255495954 -0.4833262566711676 0.6703215611502262 -0.03263166999209219 -0.911410819260211 0.323489771995088 0.3896758809038579 1.0311540354598305 -0.27675303006018137 -0.38601591555376746 -0.4586398096680811 -1.2100799326671934 -1.0872503642327662 -0.31014060438169166 -0.46544243441221134 -0.2922804362718192 0.44985486438659944 -0.05482748936284106 0.6352293454327834 1.706825033847428 1.015099038879497 1.1884122178857726 -0.41228281967009645 -0.592214018213522 0.6395950786006468 0.16646067486081653 -0.1514469750608037 -0.5237278004166658 -0.815260302778867 -1.1214012990828623 0.38963242926043223 -0.27692015176566503 -1.0905362340728895 0.05660129343381219 -0.02707165940581144 0.049599408194682316 -0.5984510002621695 0.9095909924426527 0.932737348652129 0.9660233643987685 -0.7462485514958439 0.31328043556225404 -0.9095269719739368 0.2779491072508117 -1.3733326421136733 -0.7888221631919964 1.2831910508305706 0.17493888753515677 -0.5039223356549644 -0.8427178847691874 -0.41926285053235535 -0.1639109118557693 -0.18541381892455164 1.7478721815967253 -0.8043459698592083 0.7362958111585061 0.34901696973191504 -0.5578283416448007 -0.08702232892783078
0.19768620853400148 -0.28011063367850464 -0.2722407440121247 0.18596146389790552 0.542141269926847 0.3167331699975448 -1.1192945371525045 -1.5136130590346963 -0.6072277180135348 -0.11439480740351267 -0.7577681220996692 -0.48071504430056566 -0.6081857110514299 -0.4082456734862453 0.10717129307187993 0.0755976320306569 -2.5817904657964115 0.9136368803772523 -0.3267856691375404 0.16104130361745814 0.4759767582846318 0.22578322388053373 -0.8487512354474608 0.1989121105213026 -0.7040917156221357 -0.374954001312651 0.047236307279144456 -0.013119053880461275 2.5471805890320263 -1.5640401053369966 -0.2759673009340925 -1.205044684236131 1.041971952010941 -0.4578471385634567 0.6285966706076143 1.5525282480426552 -0.37970360018249444 1.2866756669450616 -0.5970752029605653 -0.33501936990124237 -1.0954910069750035 2.2320931821680206 0.788775626224777 -0.997413705784592 -0.13587611720574017 0.4384990730541481 -1.4189645810201756 -0.9546629450806269 0.2838456752409047 -0.17978593121481296 -0.3921955620019181 0.40958007602695273 0.5573004941657886 0.3861097608191544 -0.37656145500908694 -0.29523309114223995 0.346175643628378 -0.3625800531283304 -0.37035969707374927 0.13505593529729 0.5843839806461419 1.7178542950783962 0.320136539252139 0.4657993035309978 0.8266744581530795 -0.4343151168797875 0.8434786741946118 -0.6843957798551052 -0.15148348472569398 0.8847081131580442 1.0243393265308423 -1.366887143598646 0.21147014969197128 -0.6873733744261904 -0.5891636614229725 0.7020890833698101 -0.35125562925444664 1.1270104177395237 -0.9181597079482704 -0.5435155245665543 0.5898128649711971 0.24251287793038878 0.24496133947088136 -0.37190955805937237 -1.1182648103364095 0.07135659736611581 -0.038566290308972295 0.17018826022404884 -0.556045538712765 0.6357916456941567 0.4609453178728061 1.3152077129464832 1.3860578029898258 1.510444688609044 0.36795905805205664 -1.551464325554515 0.8799047782321298 0.4157846621757678 -1.5076732965114938 0.004996681883643008 -0.3468320462654543 -0.26027765811297754 0.2868978318036672 -0.6039174226933792 -1.4359986536843268 -1.0197059415238892 -0.15328608515207148 0.7667227601897957 -1.108020249790266 1.1356233562195153 -0.39590437831207304 0.7489078434955618 1.424227886301644 0.6319519602330923 0.1860015731072216 0.3630626491917038 0.8322902616779602 -0.4770903030637848 0.5843202172877421 0.06930048616803548 -1.0902572693798902 0.3756155461560499 0.3643692838182693 0.47750270801085504 0.23334149584376587 -2.4799148739058325 -0.7131553684863008 0.40626823804490036 0.3101783995981626 0.041784025915321585 0.11743333711952034 -0.06922026774940336 -1.4644998464478134 0.6684078890672811 0.04466057613216824 0.6834329017212036 -0.2634861377479462 -0.8473317293921149 0.30339788634121945 0.5533931886915824 1.2622414451620971 0.016351701885146033 -0.21894974589846808 -0.43836100481438695 -1.0189670064753356 -1.5555960883347015 -0.18241642685912454 -0.6563175335616503 -0.3938467244520959 0.39902338355702893 -0.3435528612935503 0.7025277135691256 2.253344892457945 1.9252191643527423 1.4408492969084088 -0.7222043660624465 0.4292844964344156 0.009688688042673636 1.513368290013742 -0.18437997834339856 -0.8232551480588853 -0.47347070403332653 -2.180746452264928 0.9251775340270001 -2.3698983980756734 0.11615087086267094 0.6686364601383195 0.27383379953085746 0.3414604975408958 -0.26889213925486594 0.9315885797596666 1.032048779359958 1.2570822695586608 -0.5200755483760592 0.2759675580444086 -1.4276001452079865 -0.6508644808668791 -0.34726193471402134 0.4127595021961988 0.9134864708423172 0.007020140071575007 -0.2934819127790881 -0.06476480308121103 -0.5035950342225327 0.05107547851957655 -0.6084723890539133 1.0783913711802395 -0.4632341139069828 0.4903065446437426 0.7010547285680249 -1.0740747460827564 -0.33440564757664343