An instance of this daemon is already running

     Program PWSCF v.7.1 starts on 11May2023 at 12:25:26 

     This program is part of the open-source Quantum ESPRESSO suite
     for quantum simulation of materials; please cite
         "P. Giannozzi et al., J. Phys.:Condens. Matter 21 395502 (2009);
         "P. Giannozzi et al., J. Phys.:Condens. Matter 29 465901 (2017);
         "P. Giannozzi et al., J. Chem. Phys. 152 154105 (2020);
          URL http://www.quantum-espresso.org", 
     in publications or presentations arising from this work. More details at
     http://www.quantum-espresso.org/quote

     Parallel version (MPI & OpenMP), running on       4 processor cores
     Number of MPI processes:                 4
     Threads/MPI process:                     1

     MPI processes distributed on     1 nodes
     696682 MiB available memory on the printing compute node when the environment starts
 
     Reading input from pw-si-41.in
Warning: card &CELL ignored
Warning: card / ignored

     Current dimensions of program PWSCF are:
     Max number of different atomic species (ntypx) = 10
     Max number of k-points (npk) =  40000
     Max angular momentum in pseudopotentials (lmaxx) =  4

     IMPORTANT: XC functional enforced from input :
     Exchange-correlation= PBE
                           (   1   4   3   4   0   0   0)
     Any further DFT definition will be discarded
     Please, verify this is what you really want


     gamma-point specific algorithms are used
 
     K-points division:     npool     =       2
     R & G space division:  proc/nbgrp/npool/nimage =       2
     Subspace diagonalization in iterative solution of the eigenvalue problem:
     a serial algorithm will be used

     Message from routine divide_et_impera:
     suboptimal parallelization: some nodes have no k-points
 
     Parallelization info
     --------------------
     sticks:   dense  smooth     PW     G-vecs:    dense   smooth      PW
     Min        2030    2030    542                97898    97898   13370
     Max        2031    2031    543                97899    97899   13375
     Sum        4061    4061   1085               195797   195797   26745
 
     Using Slab Decomposition
 


     bravais-lattice index     =            0
     lattice parameter (alat)  =      20.6700  a.u.
     unit-cell volume          =    8831.2050 (a.u.)^3
     number of atoms/cell      =           64
     number of atomic types    =            1
     number of electrons       =       256.00
     number of Kohn-Sham states=          154
     kinetic-energy cutoff     =      30.0000  Ry
     charge density cutoff     =     120.0000  Ry
     scf convergence threshold =      1.0E-06
     mixing beta               =       0.5000
     number of iterations used =            8  plain     mixing
     Exchange-correlation= PBE
                           (   1   4   3   4   0   0   0)

     GPU acceleration is ACTIVE.
     GPU-aware MPI enabled

     Message from routine print_cuda_info:
     High GPU oversubscription detected. Are you sure this is what you want?

     celldm(1)=  20.669977  celldm(2)=   0.000000  celldm(3)=   0.000000
     celldm(4)=   0.000000  celldm(5)=   0.000000  celldm(6)=   0.000000

     crystal axes: (cart. coord. in units of alat)
               a(1) = (   1.000000   0.000000   0.000000 )  
               a(2) = (   0.000000   1.000000   0.000000 )  
               a(3) = (   0.000000   0.000000   1.000000 )  

     reciprocal axes: (cart. coord. in units 2 pi/alat)
               b(1) = (  1.000000  0.000000  0.000000 )  
               b(2) = (  0.000000  1.000000  0.000000 )  
               b(3) = (  0.000000  0.000000  1.000000 )  


     PseudoPot. # 1 for Si read from file:
     /home/ppiaggi/pseudos/Si_ONCV_PBE_sr.upf
     MD5 check sum: 8553c464762ac42b85b1eed164b4d029
     Pseudo is Norm-conserving, Zval =  4.0
     Generated using ONCVPSP code by D. R. Hamann
     Using radial grid of 1510 points,  4 beta functions with: 
                l(1) =   0
                l(2) =   0
                l(3) =   1
                l(4) =   1

     atomic species   valence    mass     pseudopotential
        Si             4.00    28.08500     Si( 1.00)

     No symmetry found



   Cartesian axes

     site n.     atom                  positions (alat units)
         1           Si  tau(   1) = (   0.5779590   0.7237080   0.5343480  )
         2           Si  tau(   2) = (   0.7868040   0.2879960   0.2213120  )
         3           Si  tau(   3) = (   0.7266120   0.8614200   0.4511810  )
         4           Si  tau(   4) = (   0.8744490   0.4681260   0.3690940  )
         5           Si  tau(   5) = (   0.2151210   0.1602530   0.5804850  )
         6           Si  tau(   6) = (   0.3784330   0.5385180   0.8634230  )
         7           Si  tau(   7) = (   0.8453400   0.2220670   0.4721400  )
         8           Si  tau(   8) = (   0.2614540   0.8380980   0.0200849  )
         9           Si  tau(   9) = (   0.5232780   0.8763260   0.9084190  )
        10           Si  tau(  10) = (   0.2922950   0.9274010   0.8199770  )
        11           Si  tau(  11) = (   0.9751090   0.0958531   0.6682410  )
        12           Si  tau(  12) = (   0.1084390   0.7203170   0.0396313  )
        13           Si  tau(  13) = (   0.7548220   0.5430310   0.8139440  )
        14           Si  tau(  14) = (   0.7107690   0.4257330   0.5203900  )
        15           Si  tau(  15) = (   0.6615630   0.1636850   0.8393540  )
        16           Si  tau(  16) = (   0.4944840   0.9843680   0.4304610  )
        17           Si  tau(  17) = (   0.4312170   0.9402080   0.1289490  )
        18           Si  tau(  18) = (   0.6673650   0.3600560   0.7311130  )
        19           Si  tau(  19) = (   0.6682190   0.7939860   0.7337360  )
        20           Si  tau(  20) = (   0.3468620   0.1120080   0.7337410  )
        21           Si  tau(  21) = (   0.4011580   0.1727970   0.4100270  )
        22           Si  tau(  22) = (   0.7835890   0.9688930   0.7450700  )
        23           Si  tau(  23) = (   0.4926050   0.7686430   0.2802100  )
        24           Si  tau(  24) = (   0.4381290   0.3258650   0.9684460  )
        25           Si  tau(  25) = (   0.2737020   0.3641170   0.3011750  )
        26           Si  tau(  26) = (   0.0346967   0.2417510   0.1513120  )
        27           Si  tau(  27) = (   0.1074840   0.0455597   0.8560650  )
        28           Si  tau(  28) = (   0.6460060   0.9885010   0.2282040  )
        29           Si  tau(  29) = (   0.6793000   0.5972850   0.1300490  )
        30           Si  tau(  30) = (   0.6481930   0.2296420   0.3615530  )
        31           Si  tau(  31) = (   0.3853340   0.5230700   0.5266210  )
        32           Si  tau(  32) = (   0.0667174   0.3157750   0.3694960  )
        33           Si  tau(  33) = (   0.4561090   0.9088100   0.6489940  )
        34           Si  tau(  34) = (   0.5214060   0.1517250   0.0470836  )
        35           Si  tau(  35) = (   0.9436880   0.8856090   0.9488920  )
        36           Si  tau(  36) = (   0.4394690   0.3126580   0.7454430  )
        37           Si  tau(  37) = (   0.4480270   0.6608890   0.0189075  )
        38           Si  tau(  38) = (   0.0371828   0.0274917   0.2648050  )
        39           Si  tau(  39) = (   0.3840420   0.6774870   0.6673780  )
        40           Si  tau(  40) = (   0.9641350   0.3472700   0.6279290  )
        41           Si  tau(  41) = (   0.1171110   0.9229830   0.5303610  )
        42           Si  tau(  42) = (   0.8266060   0.4432550   0.0155861  )
        43           Si  tau(  43) = (   0.1863050   0.0800897   0.0974974  )
        44           Si  tau(  44) = (   0.0918575   0.6980700   0.4367250  )
        45           Si  tau(  45) = (   0.1528810   0.5538610   0.8815160  )
        46           Si  tau(  46) = (   0.1546550   0.6374930   0.6449840  )
        47           Si  tau(  47) = (   0.5541050   0.6284200   0.8302390  )
        48           Si  tau(  48) = (   0.1745930   0.3805160   0.5763240  )
        49           Si  tau(  49) = (   0.7764120   0.1348740   0.0368910  )
        50           Si  tau(  50) = (   0.6838700   0.7385860   0.2926860  )
        51           Si  tau(  51) = (   0.9571820   0.5101380   0.7848530  )
        52           Si  tau(  52) = (   0.8990060   0.9996840   0.4506850  )
        53           Si  tau(  53) = (   0.3090520   0.1548790   0.2368450  )
        54           Si  tau(  54) = (   0.2254070   0.6989340   0.2262010  )
        55           Si  tau(  55) = (   0.5233510   0.4067480   0.2097250  )
        56           Si  tau(  56) = (   0.9785440   0.2142390   0.9209430  )
        57           Si  tau(  57) = (   0.5538120   0.5051020   0.4157320  )
        58           Si  tau(  58) = (   0.9502940   0.7231830   0.6009520  )
        59           Si  tau(  59) = (   0.7477210   0.7932220   0.0030610  )
        60           Si  tau(  60) = (   0.8686510   0.7047820   0.3664200  )
        61           Si  tau(  61) = (   0.8550080   0.9517610   0.1591950  )
        62           Si  tau(  62) = (   0.0624017   0.8446530   0.7450900  )
        63           Si  tau(  63) = (   0.9413080   0.6052560   0.1604020  )
        64           Si  tau(  64) = (   0.3905250   0.5711930   0.2172960  )

     number of k points=     1  Fermi-Dirac smearing, width (Ry)=  0.0100
                       cart. coord. in units 2pi/alat
        k(    1) = (   0.0000000   0.0000000   0.0000000), wk =   2.0000000

     Dense  grid:    97899 G-vectors     FFT dimensions: (  75,  75,  75)

     Estimated max dynamical RAM per process >     157.89 MB

     Estimated total dynamical RAM >     607.66 MB

     Initial potential from superposition of free atoms

     starting charge     255.9608, renormalised to     256.0000
     Starting wfcs are  256 randomized atomic wfcs

     total cpu time spent up to now is        4.7 secs

     Self-consistent Calculation

     iteration #  1     ecut=    30.00 Ry     beta= 0.50
     Davidson diagonalization with overlap
     ethr =  1.00E-02,  avg # of iterations =  3.0

     Threshold (ethr) on eigenvalues was too large:
     Diagonalizing with lowered threshold

     Davidson diagonalization with overlap
     ethr =  5.31E-04,  avg # of iterations =  4.0

     total cpu time spent up to now is        5.0 secs

     total energy              =    -500.39091449 Ry
     estimated scf accuracy    <       1.75345098 Ry

     iteration #  2     ecut=    30.00 Ry     beta= 0.50
     Davidson diagonalization with overlap
     ethr =  6.85E-04,  avg # of iterations =  4.0

     total cpu time spent up to now is        5.2 secs

     total energy              =    -499.57277742 Ry
     estimated scf accuracy    <      11.26819380 Ry

     iteration #  3     ecut=    30.00 Ry     beta= 0.50
     Davidson diagonalization with overlap
     ethr =  6.85E-04,  avg # of iterations =  4.0

     total cpu time spent up to now is        5.3 secs

     total energy              =    -500.56598207 Ry
     estimated scf accuracy    <       3.23579792 Ry

     iteration #  4     ecut=    30.00 Ry     beta= 0.50
     Davidson diagonalization with overlap
     ethr =  6.85E-04,  avg # of iterations =  2.0

     total cpu time spent up to now is        5.4 secs

     total energy              =    -500.81706375 Ry
     estimated scf accuracy    <       0.59315338 Ry

     iteration #  5     ecut=    30.00 Ry     beta= 0.50
     Davidson diagonalization with overlap
     ethr =  2.32E-04,  avg # of iterations =  2.0

     total cpu time spent up to now is        5.5 secs

     total energy              =    -500.84383847 Ry
     estimated scf accuracy    <       0.42977717 Ry

     iteration #  6     ecut=    30.00 Ry     beta= 0.50
     Davidson diagonalization with overlap
     ethr =  1.68E-04,  avg # of iterations =  2.0

     total cpu time spent up to now is        5.7 secs

     total energy              =    -500.88079352 Ry
     estimated scf accuracy    <       0.18945759 Ry

     iteration #  7     ecut=    30.00 Ry     beta= 0.50
     Davidson diagonalization with overlap
     ethr =  7.40E-05,  avg # of iterations =  1.0

     total cpu time spent up to now is        5.8 secs

     total energy              =    -500.89509883 Ry
     estimated scf accuracy    <       0.02892621 Ry

     iteration #  8     ecut=    30.00 Ry     beta= 0.50
     Davidson diagonalization with overlap
     ethr =  1.13E-05,  avg # of iterations = 15.0

     total cpu time spent up to now is        6.0 secs

     total energy              =    -500.89793121 Ry
     estimated scf accuracy    <       0.04605220 Ry

     iteration #  9     ecut=    30.00 Ry     beta= 0.50
     Davidson diagonalization with overlap
     ethr =  1.13E-05,  avg # of iterations =  2.0

     total cpu time spent up to now is        6.1 secs

     total energy              =    -500.90125731 Ry
     estimated scf accuracy    <       0.00311027 Ry

     iteration # 10     ecut=    30.00 Ry     beta= 0.50
     Davidson diagonalization with overlap
     ethr =  1.21E-06,  avg # of iterations =  8.0

     total cpu time spent up to now is        6.3 secs

     total energy              =    -500.90169218 Ry
     estimated scf accuracy    <       0.00209430 Ry

     iteration # 11     ecut=    30.00 Ry     beta= 0.50
     Davidson diagonalization with overlap
     ethr =  8.18E-07,  avg # of iterations =  3.0

     total cpu time spent up to now is        6.4 secs

     total energy              =    -500.90177373 Ry
     estimated scf accuracy    <       0.00237920 Ry

     iteration # 12     ecut=    30.00 Ry     beta= 0.50
     Davidson diagonalization with overlap
     ethr =  8.18E-07,  avg # of iterations =  2.0

     total cpu time spent up to now is        6.5 secs

     total energy              =    -500.90193825 Ry
     estimated scf accuracy    <       0.00046890 Ry

     iteration # 13     ecut=    30.00 Ry     beta= 0.50
     Davidson diagonalization with overlap
     ethr =  1.83E-07,  avg # of iterations =  2.0

     total cpu time spent up to now is        6.6 secs

     total energy              =    -500.90198320 Ry
     estimated scf accuracy    <       0.00043957 Ry

     iteration # 14     ecut=    30.00 Ry     beta= 0.50
     Davidson diagonalization with overlap
     ethr =  1.72E-07,  avg # of iterations =  1.0

     total cpu time spent up to now is        6.7 secs

     total energy              =    -500.90201261 Ry
     estimated scf accuracy    <       0.00003051 Ry

     iteration # 15     ecut=    30.00 Ry     beta= 0.50
     Davidson diagonalization with overlap
     ethr =  1.19E-08,  avg # of iterations =  4.0

     total cpu time spent up to now is        6.9 secs

     total energy              =    -500.90201343 Ry
     estimated scf accuracy    <       0.00004219 Ry

     iteration # 16     ecut=    30.00 Ry     beta= 0.50
     Davidson diagonalization with overlap
     ethr =  1.19E-08,  avg # of iterations =  3.0

     total cpu time spent up to now is        7.0 secs

     total energy              =    -500.90201408 Ry
     estimated scf accuracy    <       0.00009492 Ry

     iteration # 17     ecut=    30.00 Ry     beta= 0.50
     Davidson diagonalization with overlap
     ethr =  1.19E-08,  avg # of iterations =  2.0

     total cpu time spent up to now is        7.1 secs

     total energy              =    -500.90201934 Ry
     estimated scf accuracy    <       0.00001642 Ry

     iteration # 18     ecut=    30.00 Ry     beta= 0.50
     Davidson diagonalization with overlap
     ethr =  6.41E-09,  avg # of iterations =  1.0

     total cpu time spent up to now is        7.2 secs

     total energy              =    -500.90202053 Ry
     estimated scf accuracy    <       0.00000166 Ry

     iteration # 19     ecut=    30.00 Ry     beta= 0.50
     Davidson diagonalization with overlap
     ethr =  6.50E-10,  avg # of iterations =  4.0

     total cpu time spent up to now is        7.4 secs

     total energy              =    -500.90202073 Ry
     estimated scf accuracy    <       0.00000113 Ry

     iteration # 20     ecut=    30.00 Ry     beta= 0.50
     Davidson diagonalization with overlap
     ethr =  4.41E-10,  avg # of iterations =  2.0

     total cpu time spent up to now is        7.5 secs

     End of self-consistent calculation

          k = 0.0000 0.0000 0.0000 ( 12203 PWs)   bands (ev):

    -6.3206  -5.6736  -5.4434  -5.2099  -5.1372  -4.8730  -4.6937  -4.5246
    -4.2385  -4.1757  -4.1216  -4.0664  -3.9464  -3.8490  -3.7108  -3.6355
    -3.5295  -3.3491  -3.2140  -2.9235  -2.8481  -2.7538  -2.5322  -2.4490
    -2.3461  -2.1721  -2.0305  -1.9228  -1.6620  -1.5902  -1.3948  -1.3558
    -1.2534  -1.1874  -1.1041  -1.0901  -1.0283  -0.8182  -0.7214  -0.6042
    -0.5254  -0.4616  -0.4046  -0.3435  -0.1802  -0.0471   0.0670   0.1329
     0.2335   0.2751   0.4535   0.5424   0.5947   0.7771   0.8583   0.9461
     0.9925   1.0839   1.1212   1.1633   1.3571   1.3834   1.6963   1.7552
     1.8234   1.8896   1.9575   1.9957   2.0750   2.1576   2.3125   2.3902
     2.4180   2.5254   2.5950   2.7941   2.8224   2.9453   3.0461   3.1109
     3.1538   3.2040   3.3466   3.4118   3.4753   3.5423   3.6153   3.6760
     3.8225   3.8859   3.8994   3.9758   4.0418   4.1078   4.1456   4.3375
     4.3679   4.4659   4.5032   4.5820   4.6233   4.6390   4.6979   4.8200
     4.8466   4.8968   4.9442   5.0184   5.0851   5.1674   5.1850   5.2266
     5.2794   5.3789   5.4445   5.4847   5.4970   5.6014   5.6448   5.6893
     5.7432   5.8110   5.8426   5.9181   5.9772   6.0615   6.1312   6.1723
     6.2151   6.2724   6.3489   6.3919   6.4554   6.4860   6.6214   6.6447
     6.7434   6.8049   6.8147   6.8691   6.8872   7.0103   7.0444   7.1418
     7.1674   7.2627   7.3346   7.4160   7.4275   7.4745   7.5602   7.5958
     7.6569   7.6989

     the Fermi energy is     6.1953 ev

!    total energy              =    -500.90202034 Ry
     estimated scf accuracy    <       0.00000070 Ry
     smearing contrib. (-TS)   =      -0.15123457 Ry
     internal energy E=F+TS    =    -500.75078578 Ry

     The total energy is F=E-TS. E is the sum of the following terms:
     one-electron contribution =     129.46389190 Ry
     hartree contribution      =      44.69077728 Ry
     xc contribution           =    -149.86955998 Ry
     ewald contribution        =    -525.03589497 Ry

     convergence has been achieved in  20 iterations

     Forces acting on atoms (cartesian axes, Ry/au):

     atom    1 type  1   force =    -0.00811979   -0.01764340    0.00545972
     atom    2 type  1   force =     0.05766379    0.02583494   -0.06924794
     atom    3 type  1   force =     0.00101532    0.06893122    0.04639340
     atom    4 type  1   force =     0.02599413    0.01277317   -0.02699418
     atom    5 type  1   force =    -0.01589356    0.00359270   -0.04605281
     atom    6 type  1   force =    -0.10745357   -0.07865214   -0.00462711
     atom    7 type  1   force =     0.02416879   -0.01304919   -0.00109058
     atom    8 type  1   force =     0.09953135    0.07184273   -0.00018888
     atom    9 type  1   force =     0.01344337   -0.03636232    0.02018286
     atom   10 type  1   force =    -0.00699686   -0.04066259    0.00396112
     atom   11 type  1   force =    -0.01029718    0.00320358   -0.00765720
     atom   12 type  1   force =    -0.11672130   -0.08614285   -0.00740743
     atom   13 type  1   force =    -0.02410571   -0.00886921    0.03086609
     atom   14 type  1   force =     0.04051323   -0.05465814    0.02034296
     atom   15 type  1   force =     0.00794565   -0.02941194    0.02209849
     atom   16 type  1   force =     0.04631913   -0.05486042    0.00038763
     atom   17 type  1   force =     0.02787596    0.00549272    0.00772473
     atom   18 type  1   force =    -0.00823518   -0.01028725   -0.02276801
     atom   19 type  1   force =    -0.03968312   -0.01438364   -0.02325573
     atom   20 type  1   force =     0.03193707    0.01445110    0.00806714
     atom   21 type  1   force =     0.01758062    0.03892218    0.08227807
     atom   22 type  1   force =     0.03614996    0.05245963    0.01313085
     atom   23 type  1   force =    -0.12669462    0.04490236   -0.00256068
     atom   24 type  1   force =    -0.01758585    0.02697673   -0.00104985
     atom   25 type  1   force =     0.01280876    0.01375044    0.01377990
     atom   26 type  1   force =    -0.02902959   -0.01891143    0.01128947
     atom   27 type  1   force =    -0.02036531    0.01830955    0.02812257
     atom   28 type  1   force =    -0.01564739    0.00072480    0.02014941
     atom   29 type  1   force =    -0.01004486   -0.02278641   -0.04960690
     atom   30 type  1   force =    -0.05895051   -0.02193743    0.03696362
     atom   31 type  1   force =    -0.07357588   -0.05182272   -0.00037593
     atom   32 type  1   force =    -0.00803683    0.02067483    0.01308688
     atom   33 type  1   force =     0.01114395   -0.02121369   -0.00157493
     atom   34 type  1   force =     0.03938290   -0.04479933    0.00599418
     atom   35 type  1   force =     0.01842823   -0.00372325   -0.01337122
     atom   36 type  1   force =     0.01705087    0.02360103    0.00638170
     atom   37 type  1   force =     0.00821774    0.05628150    0.03258458
     atom   38 type  1   force =    -0.01368879    0.01808695    0.00315199
     atom   39 type  1   force =    -0.00273615    0.03338305    0.02597499
     atom   40 type  1   force =    -0.00725407   -0.02491860    0.01553370
     atom   41 type  1   force =    -0.04130877    0.00958322   -0.00584543
     atom   42 type  1   force =     0.01110411    0.02238485    0.01812422
     atom   43 type  1   force =    -0.05804082   -0.04339872   -0.05103901
     atom   44 type  1   force =     0.01645703    0.01751530   -0.03681330
     atom   45 type  1   force =    -0.00411258    0.02881553   -0.00964976
     atom   46 type  1   force =     0.02499524   -0.02419893    0.04458771
     atom   47 type  1   force =     0.06721791    0.06876405   -0.01638670
     atom   48 type  1   force =     0.02889261   -0.00246200   -0.03664616
     atom   49 type  1   force =     0.00686123    0.01862104    0.00475110
     atom   50 type  1   force =     0.02354160   -0.02820809   -0.05957347
     atom   51 type  1   force =     0.03306582   -0.02232282   -0.02750152
     atom   52 type  1   force =     0.05228594    0.02465914    0.01536443
     atom   53 type  1   force =     0.02512397    0.01637501   -0.03797692
     atom   54 type  1   force =    -0.02288150    0.02294941    0.02593908
     atom   55 type  1   force =     0.02932927    0.00329479   -0.01319810
     atom   56 type  1   force =    -0.02605982    0.01566409    0.02356845
     atom   57 type  1   force =     0.00342892    0.03728759   -0.04589739
     atom   58 type  1   force =    -0.04886122   -0.00594486   -0.00310668
     atom   59 type  1   force =    -0.01992029   -0.00469864    0.01315635
     atom   60 type  1   force =     0.09469083   -0.06053399    0.01889964
     atom   61 type  1   force =    -0.00780938    0.00339409   -0.02401285
     atom   62 type  1   force =     0.02089419    0.01305251   -0.00555063
     atom   63 type  1   force =    -0.02006427   -0.01295118    0.00050730
     atom   64 type  1   force =    -0.00488467    0.00325939    0.01222299

     Total force =     0.480659     Total SCF correction =     0.001521


     Computing stress (Cartesian axis) and pressure

          total   stress  (Ry/bohr**3)                   (kbar)     P=      -26.34
  -0.00004408   0.00001731   0.00005756           -6.48        2.55        8.47
   0.00001731  -0.00026084  -0.00000504            2.55      -38.37       -0.74
   0.00005756  -0.00000504  -0.00023223            8.47       -0.74      -34.16

 
     init_run     :      0.91s CPU      4.63s WALL (       1 calls)
     electrons    :      2.66s CPU      2.77s WALL (       1 calls)
     forces       :      0.04s CPU      0.04s WALL (       1 calls)
     stress       :      0.17s CPU      0.17s WALL (       1 calls)

     Called by init_run:
     wfcinit      :      0.69s CPU      4.25s WALL (       1 calls)
                                        4.25s GPU  (       1 calls)
     potinit      :      0.05s CPU      0.13s WALL (       1 calls)
     hinit0       :      0.14s CPU      0.17s WALL (       1 calls)

     Called by electrons:
     c_bands      :      1.57s CPU      1.62s WALL (      21 calls)
     sum_band     :      0.55s CPU      0.59s WALL (      21 calls)
     v_of_rho     :      0.24s CPU      0.33s WALL (      21 calls)
     mix_rho      :      0.23s CPU      0.25s WALL (      21 calls)

     Called by c_bands:
     init_us_2    :      0.08s CPU      0.08s WALL (      43 calls)
     init_us_2:gp :      0.08s CPU      0.08s WALL (      43 calls)
     regterg      :      1.39s CPU      1.43s WALL (      21 calls)

     Called by *egterg:
     rdiaghg      :      0.46s CPU      1.17s WALL (      91 calls)
                                        1.15s GPU  (      91 calls)
     h_psi        :      1.41s CPU      4.28s WALL (      93 calls)
                                        4.28s GPU  (      93 calls)
     g_psi        :      0.00s CPU      0.00s WALL (      71 calls)
                                        0.00s GPU  (      71 calls)

     Called by h_psi:
     h_psi:calbec :      0.63s CPU      3.42s WALL (      93 calls)
                                        3.42s GPU  (      93 calls)
     vloc_psi     :      0.72s CPU      0.80s WALL (      93 calls)
                                        0.79s GPU  (      93 calls)
     add_vuspsi   :      0.04s CPU      0.06s WALL (      93 calls)
                                        0.06s GPU  (      93 calls)

     General routines
     calbec       :      0.63s CPU      3.42s WALL (      98 calls)
     fft          :      0.38s CPU      0.50s WALL (     175 calls)
                                        0.13s GPU  (     111 calls)
     ffts         :      0.08s CPU      0.08s WALL (      21 calls)
     fftw         :      0.79s CPU      1.01s WALL (    2211 calls)
                                        0.91s GPU  (    2211 calls)
 
     Parallel routines
 
     PWSCF        :      3.82s CPU      7.70s WALL

 
   This run was terminated on:  12:25:34  11May2023            

=------------------------------------------------------------------------------=
   JOB DONE.
=------------------------------------------------------------------------------=
