An instance of this daemon is already running
An instance of this daemon is already running

     Program PWSCF v.7.1 starts on 11May2023 at 12:27: 6 

     This program is part of the open-source Quantum ESPRESSO suite
     for quantum simulation of materials; please cite
         "P. Giannozzi et al., J. Phys.:Condens. Matter 21 395502 (2009);
         "P. Giannozzi et al., J. Phys.:Condens. Matter 29 465901 (2017);
         "P. Giannozzi et al., J. Chem. Phys. 152 154105 (2020);
          URL http://www.quantum-espresso.org", 
     in publications or presentations arising from this work. More details at
     http://www.quantum-espresso.org/quote

     Parallel version (MPI & OpenMP), running on       4 processor cores
     Number of MPI processes:                 4
     Threads/MPI process:                     1

     MPI processes distributed on     1 nodes
     696755 MiB available memory on the printing compute node when the environment starts
 
     Reading input from pw-si-51.in
Warning: card &CELL ignored
Warning: card / ignored

     Current dimensions of program PWSCF are:
     Max number of different atomic species (ntypx) = 10
     Max number of k-points (npk) =  40000
     Max angular momentum in pseudopotentials (lmaxx) =  4

     IMPORTANT: XC functional enforced from input :
     Exchange-correlation= PBE
                           (   1   4   3   4   0   0   0)
     Any further DFT definition will be discarded
     Please, verify this is what you really want


     gamma-point specific algorithms are used
 
     K-points division:     npool     =       2
     R & G space division:  proc/nbgrp/npool/nimage =       2
     Subspace diagonalization in iterative solution of the eigenvalue problem:
     a serial algorithm will be used

     Message from routine divide_et_impera:
     suboptimal parallelization: some nodes have no k-points
 
     Parallelization info
     --------------------
     sticks:   dense  smooth     PW     G-vecs:    dense   smooth      PW
     Min        2098    2098    550               102506   102506   13814
     Max        2099    2099    551               102515   102515   13819
     Sum        4197    4197   1101               205021   205021   27633
 
     Using Slab Decomposition
 


     bravais-lattice index     =            0
     lattice parameter (alat)  =      20.9786  a.u.
     unit-cell volume          =    9232.7482 (a.u.)^3
     number of atoms/cell      =           64
     number of atomic types    =            1
     number of electrons       =       256.00
     number of Kohn-Sham states=          154
     kinetic-energy cutoff     =      30.0000  Ry
     charge density cutoff     =     120.0000  Ry
     scf convergence threshold =      1.0E-06
     mixing beta               =       0.5000
     number of iterations used =            8  plain     mixing
     Exchange-correlation= PBE
                           (   1   4   3   4   0   0   0)

     GPU acceleration is ACTIVE.
     GPU-aware MPI enabled

     Message from routine print_cuda_info:
     High GPU oversubscription detected. Are you sure this is what you want?

     celldm(1)=  20.978624  celldm(2)=   0.000000  celldm(3)=   0.000000
     celldm(4)=   0.000000  celldm(5)=   0.000000  celldm(6)=   0.000000

     crystal axes: (cart. coord. in units of alat)
               a(1) = (   1.000000   0.000000   0.000000 )  
               a(2) = (   0.000000   1.000000   0.000000 )  
               a(3) = (   0.000000   0.000000   1.000000 )  

     reciprocal axes: (cart. coord. in units 2 pi/alat)
               b(1) = (  1.000000  0.000000  0.000000 )  
               b(2) = (  0.000000  1.000000  0.000000 )  
               b(3) = (  0.000000  0.000000  1.000000 )  


     PseudoPot. # 1 for Si read from file:
     /home/ppiaggi/pseudos/Si_ONCV_PBE_sr.upf
     MD5 check sum: 8553c464762ac42b85b1eed164b4d029
     Pseudo is Norm-conserving, Zval =  4.0
     Generated using ONCVPSP code by D. R. Hamann
     Using radial grid of 1510 points,  4 beta functions with: 
                l(1) =   0
                l(2) =   0
                l(3) =   1
                l(4) =   1

     atomic species   valence    mass     pseudopotential
        Si             4.00    28.08500     Si( 1.00)

     No symmetry found



   Cartesian axes

     site n.     atom                  positions (alat units)
         1           Si  tau(   1) = (   0.5826990   0.7096010   0.4903580  )
         2           Si  tau(   2) = (   0.8549330   0.3147510   0.1698190  )
         3           Si  tau(   3) = (   0.7662460   0.8708010   0.4964350  )
         4           Si  tau(   4) = (   0.8249490   0.4892940   0.3298000  )
         5           Si  tau(   5) = (   0.1917410   0.1114100   0.5960320  )
         6           Si  tau(   6) = (   0.3474910   0.5135160   0.8749210  )
         7           Si  tau(   7) = (   0.9083400   0.2412800   0.3656960  )
         8           Si  tau(   8) = (   0.2807430   0.8003970   0.0154039  )
         9           Si  tau(   9) = (   0.5776100   0.8663230   0.9930230  )
        10           Si  tau(  10) = (   0.3155540   0.9270470   0.8359970  )
        11           Si  tau(  11) = (   0.9439320   0.1124980   0.7241070  )
        12           Si  tau(  12) = (   0.1098440   0.6750920   0.9809330  )
        13           Si  tau(  13) = (   0.6891090   0.4552770   0.8091040  )
        14           Si  tau(  14) = (   0.7982800   0.3888680   0.5360930  )
        15           Si  tau(  15) = (   0.6103910   0.0951727   0.8530160  )
        16           Si  tau(  16) = (   0.5800650   0.9984730   0.4461200  )
        17           Si  tau(  17) = (   0.4311570   0.9645650   0.1144690  )
        18           Si  tau(  18) = (   0.6668240   0.2730250   0.6945650  )
        19           Si  tau(  19) = (   0.5597540   0.8593970   0.6744950  )
        20           Si  tau(  20) = (   0.4306730   0.1162000   0.7575020  )
        21           Si  tau(  21) = (   0.4383610   0.1437430   0.4700420  )
        22           Si  tau(  22) = (   0.7749440   0.9526360   0.7481780  )
        23           Si  tau(  23) = (   0.4805730   0.8035540   0.3196520  )
        24           Si  tau(  24) = (   0.4808110   0.3771020   0.0328386  )
        25           Si  tau(  25) = (   0.3678580   0.4322730   0.3542130  )
        26           Si  tau(  26) = (   0.9937430   0.1675350   0.1343340  )
        27           Si  tau(  27) = (   0.0454376   0.0517845   0.9009710  )
        28           Si  tau(  28) = (   0.6427140   0.0576635   0.1860230  )
        29           Si  tau(  29) = (   0.6283580   0.5844640   0.1808700  )
        30           Si  tau(  30) = (   0.5724670   0.2134500   0.3470230  )
        31           Si  tau(  31) = (   0.3685190   0.4620850   0.6358960  )
        32           Si  tau(  32) = (   0.0982914   0.3151730   0.3120310  )
        33           Si  tau(  33) = (   0.3637030   0.9914000   0.6024830  )
        34           Si  tau(  34) = (   0.5138960   0.1737440   0.0349754  )
        35           Si  tau(  35) = (   0.0041158   0.8342910   0.8979340  )
        36           Si  tau(  36) = (   0.4689760   0.3296800   0.8125520  )
        37           Si  tau(  37) = (   0.4273120   0.6447300   0.0094892  )
        38           Si  tau(  38) = (   0.0207925   0.9196930   0.2806660  )
        39           Si  tau(  39) = (   0.3502370   0.7553630   0.7226660  )
        40           Si  tau(  40) = (   0.0382974   0.4091840   0.5245900  )
        41           Si  tau(  41) = (   0.1189810   0.8852020   0.5026760  )
        42           Si  tau(  42) = (   0.8021530   0.4692140   0.0069708  )
        43           Si  tau(  43) = (   0.0711603   0.9209690   0.0813281  )
        44           Si  tau(  44) = (   0.1571200   0.6681170   0.4467770  )
        45           Si  tau(  45) = (   0.1124250   0.5286790   0.8234670  )
        46           Si  tau(  46) = (   0.1536490   0.6784480   0.6692590  )
        47           Si  tau(  47) = (   0.5426460   0.6252780   0.8251880  )
        48           Si  tau(  48) = (   0.2379750   0.3344040   0.4954920  )
        49           Si  tau(  49) = (   0.7454890   0.1481750   0.0157484  )
        50           Si  tau(  50) = (   0.7050990   0.7467000   0.3467110  )
        51           Si  tau(  51) = (   0.9061140   0.5743690   0.6522920  )
        52           Si  tau(  52) = (   0.9360380   0.0618641   0.5055610  )
        53           Si  tau(  53) = (   0.3596970   0.1804410   0.2513250  )
        54           Si  tau(  54) = (   0.1047460   0.6443290   0.1977980  )
        55           Si  tau(  55) = (   0.5698620   0.3779460   0.2508410  )
        56           Si  tau(  56) = (   0.9184440   0.2137310   0.9179010  )
        57           Si  tau(  57) = (   0.5276460   0.5251790   0.4086150  )
        58           Si  tau(  58) = (   0.9596420   0.7852550   0.6303550  )
        59           Si  tau(  59) = (   0.7601430   0.7783320   0.1352840  )
        60           Si  tau(  60) = (   0.9282600   0.6639860   0.3808090  )
        61           Si  tau(  61) = (   0.8535820   0.0454483   0.1835650  )
        62           Si  tau(  62) = (   0.1181790   0.9245110   0.7143860  )
        63           Si  tau(  63) = (   0.9064450   0.6385870   0.0768289  )
        64           Si  tau(  64) = (   0.3869920   0.6372140   0.2333990  )

     number of k points=     1  Fermi-Dirac smearing, width (Ry)=  0.0100
                       cart. coord. in units 2pi/alat
        k(    1) = (   0.0000000   0.0000000   0.0000000), wk =   2.0000000

     Dense  grid:   102511 G-vectors     FFT dimensions: (  75,  75,  75)

     Estimated max dynamical RAM per process >     164.29 MB

     Estimated total dynamical RAM >     632.12 MB

     Initial potential from superposition of free atoms

     starting charge     255.9608, renormalised to     256.0000
     Starting wfcs are  256 randomized atomic wfcs

     total cpu time spent up to now is        4.8 secs

     Self-consistent Calculation

     iteration #  1     ecut=    30.00 Ry     beta= 0.50
     Davidson diagonalization with overlap
     ethr =  1.00E-02,  avg # of iterations =  3.0

     Threshold (ethr) on eigenvalues was too large:
     Diagonalizing with lowered threshold

     Davidson diagonalization with overlap
     ethr =  6.42E-04,  avg # of iterations =  4.0

     total cpu time spent up to now is        5.1 secs

     total energy              =    -500.02132548 Ry
     estimated scf accuracy    <       2.18463152 Ry

     iteration #  2     ecut=    30.00 Ry     beta= 0.50
     Davidson diagonalization with overlap
     ethr =  8.53E-04,  avg # of iterations =  5.0

     total cpu time spent up to now is        5.2 secs

     total energy              =    -499.34771736 Ry
     estimated scf accuracy    <      10.10710062 Ry

     iteration #  3     ecut=    30.00 Ry     beta= 0.50
     Davidson diagonalization with overlap
     ethr =  8.53E-04,  avg # of iterations =  5.0

     total cpu time spent up to now is        5.4 secs

     total energy              =    -500.27155696 Ry
     estimated scf accuracy    <       4.52858497 Ry

     iteration #  4     ecut=    30.00 Ry     beta= 0.50
     Davidson diagonalization with overlap
     ethr =  8.53E-04,  avg # of iterations =  3.0

     total cpu time spent up to now is        5.5 secs

     total energy              =    -500.63321267 Ry
     estimated scf accuracy    <       0.77757912 Ry

     iteration #  5     ecut=    30.00 Ry     beta= 0.50
     Davidson diagonalization with overlap
     ethr =  3.04E-04,  avg # of iterations =  2.0

     total cpu time spent up to now is        5.6 secs

     total energy              =    -500.68287337 Ry
     estimated scf accuracy    <       0.37846369 Ry

     iteration #  6     ecut=    30.00 Ry     beta= 0.50
     Davidson diagonalization with overlap
     ethr =  1.48E-04,  avg # of iterations =  2.0

     total cpu time spent up to now is        5.7 secs

     total energy              =    -500.71923503 Ry
     estimated scf accuracy    <       0.19587357 Ry

     iteration #  7     ecut=    30.00 Ry     beta= 0.50
     Davidson diagonalization with overlap
     ethr =  7.65E-05,  avg # of iterations =  2.0

     total cpu time spent up to now is        5.8 secs

     total energy              =    -500.73161353 Ry
     estimated scf accuracy    <       0.06105908 Ry

     iteration #  8     ecut=    30.00 Ry     beta= 0.50
     Davidson diagonalization with overlap
     ethr =  2.39E-05,  avg # of iterations =  2.0

     total cpu time spent up to now is        6.0 secs

     total energy              =    -500.73767913 Ry
     estimated scf accuracy    <       0.03937546 Ry

     iteration #  9     ecut=    30.00 Ry     beta= 0.50
     Davidson diagonalization with overlap
     ethr =  1.54E-05,  avg # of iterations =  1.0

     total cpu time spent up to now is        6.1 secs

     total energy              =    -500.74052993 Ry
     estimated scf accuracy    <       0.00715125 Ry

     iteration # 10     ecut=    30.00 Ry     beta= 0.50
     Davidson diagonalization with overlap
     ethr =  2.79E-06,  avg # of iterations = 11.0

     total cpu time spent up to now is        6.2 secs

     total energy              =    -500.74118711 Ry
     estimated scf accuracy    <       0.00677747 Ry

     iteration # 11     ecut=    30.00 Ry     beta= 0.50
     Davidson diagonalization with overlap
     ethr =  2.65E-06,  avg # of iterations =  2.0

     total cpu time spent up to now is        6.4 secs

     total energy              =    -500.74170473 Ry
     estimated scf accuracy    <       0.00062725 Ry

     iteration # 12     ecut=    30.00 Ry     beta= 0.50
     Davidson diagonalization with overlap
     ethr =  2.45E-07,  avg # of iterations =  4.0

     total cpu time spent up to now is        6.5 secs

     total energy              =    -500.74174519 Ry
     estimated scf accuracy    <       0.00109603 Ry

     iteration # 13     ecut=    30.00 Ry     beta= 0.50
     Davidson diagonalization with overlap
     ethr =  2.45E-07,  avg # of iterations =  3.0

     total cpu time spent up to now is        6.6 secs

     total energy              =    -500.74184446 Ry
     estimated scf accuracy    <       0.00032550 Ry

     iteration # 14     ecut=    30.00 Ry     beta= 0.50
     Davidson diagonalization with overlap
     ethr =  1.27E-07,  avg # of iterations =  2.0

     total cpu time spent up to now is        6.8 secs

     total energy              =    -500.74187131 Ry
     estimated scf accuracy    <       0.00005732 Ry

     iteration # 15     ecut=    30.00 Ry     beta= 0.50
     Davidson diagonalization with overlap
     ethr =  2.24E-08,  avg # of iterations =  3.0

     total cpu time spent up to now is        6.9 secs

     total energy              =    -500.74187371 Ry
     estimated scf accuracy    <       0.00008154 Ry

     iteration # 16     ecut=    30.00 Ry     beta= 0.50
     Davidson diagonalization with overlap
     ethr =  2.24E-08,  avg # of iterations =  2.0

     total cpu time spent up to now is        7.0 secs

     total energy              =    -500.74188075 Ry
     estimated scf accuracy    <       0.00001974 Ry

     iteration # 17     ecut=    30.00 Ry     beta= 0.50
     Davidson diagonalization with overlap
     ethr =  7.71E-09,  avg # of iterations =  2.0

     total cpu time spent up to now is        7.1 secs

     total energy              =    -500.74188174 Ry
     estimated scf accuracy    <       0.00001183 Ry

     iteration # 18     ecut=    30.00 Ry     beta= 0.50
     Davidson diagonalization with overlap
     ethr =  4.62E-09,  avg # of iterations =  2.0

     total cpu time spent up to now is        7.2 secs

     total energy              =    -500.74188262 Ry
     estimated scf accuracy    <       0.00001167 Ry

     iteration # 19     ecut=    30.00 Ry     beta= 0.50
     Davidson diagonalization with overlap
     ethr =  4.56E-09,  avg # of iterations =  1.0

     total cpu time spent up to now is        7.4 secs

     total energy              =    -500.74188321 Ry
     estimated scf accuracy    <       0.00000234 Ry

     iteration # 20     ecut=    30.00 Ry     beta= 0.50
     Davidson diagonalization with overlap
     ethr =  9.14E-10,  avg # of iterations =  2.0

     total cpu time spent up to now is        7.5 secs

     total energy              =    -500.74188353 Ry
     estimated scf accuracy    <       0.00000219 Ry

     iteration # 21     ecut=    30.00 Ry     beta= 0.50
     Davidson diagonalization with overlap
     ethr =  8.55E-10,  avg # of iterations =  1.0

     total cpu time spent up to now is        7.6 secs

     End of self-consistent calculation

          k = 0.0000 0.0000 0.0000 ( 12839 PWs)   bands (ev):

    -6.8554  -6.3757  -6.2950  -5.9824  -5.7776  -5.5931  -5.4327  -5.2110
    -5.1394  -4.9079  -4.7925  -4.5004  -4.4111  -4.1981  -4.0831  -3.8648
    -3.8287  -3.6923  -3.5806  -3.4246  -3.3177  -3.1136  -3.0398  -2.9638
    -2.8428  -2.6329  -2.4607  -2.2484  -2.1553  -2.1126  -2.0724  -1.8697
    -1.7457  -1.6358  -1.5181  -1.4421  -1.4246  -1.2739  -1.1896  -1.1266
    -1.0026  -0.9606  -0.8413  -0.7718  -0.6628  -0.5653  -0.4559  -0.4163
    -0.1710  -0.1228  -0.0490   0.0662   0.1152   0.1932   0.4165   0.4783
     0.5560   0.5752   0.8270   0.9015   0.9730   1.0319   1.2720   1.3349
     1.4195   1.4840   1.6199   1.6733   1.7592   1.8619   1.9583   2.0589
     2.1328   2.2141   2.3026   2.3657   2.3810   2.4489   2.5306   2.6896
     2.7448   2.7846   2.8657   2.9251   2.9596   3.1027   3.1391   3.2795
     3.3085   3.4036   3.4430   3.5159   3.6066   3.6886   3.7099   3.8187
     3.8359   3.8972   3.9853   4.0688   4.1261   4.2052   4.2255   4.2812
     4.3779   4.3888   4.4726   4.4955   4.5425   4.5937   4.7191   4.7686
     4.8147   4.8757   4.9103   4.9565   5.0328   5.0743   5.1045   5.1999
     5.2469   5.2761   5.3754   5.3898   5.5095   5.5455   5.5832   5.6371
     5.7298   5.7940   5.8358   5.8756   5.9517   6.0639   6.1174   6.2010
     6.2585   6.3330   6.3842   6.4421   6.5378   6.5571   6.6181   6.6951
     6.7168   6.7683   6.8738   6.9239   7.0060   7.1152   7.1157   7.1554
     7.2420   7.3383

     the Fermi energy is     5.6920 ev

!    total energy              =    -500.74188338 Ry
     estimated scf accuracy    <       0.00000043 Ry
     smearing contrib. (-TS)   =      -0.14533317 Ry
     internal energy E=F+TS    =    -500.59655022 Ry

     The total energy is F=E-TS. E is the sum of the following terms:
     one-electron contribution =      71.69874455 Ry
     hartree contribution      =      69.08274828 Ry
     xc contribution           =    -149.86748095 Ry
     ewald contribution        =    -491.51056209 Ry

     convergence has been achieved in  21 iterations

     Forces acting on atoms (cartesian axes, Ry/au):

     atom    1 type  1   force =    -0.07817171   -0.00372034    0.10607524
     atom    2 type  1   force =    -0.05192219    0.06551657   -0.02412858
     atom    3 type  1   force =     0.03936566    0.07794601    0.05609347
     atom    4 type  1   force =    -0.01648037   -0.02498880   -0.00291242
     atom    5 type  1   force =    -0.04703894    0.00598874   -0.01263624
     atom    6 type  1   force =    -0.02797450   -0.02999464   -0.04343149
     atom    7 type  1   force =    -0.02045020   -0.02361188    0.06996477
     atom    8 type  1   force =     0.00255283    0.04395935    0.00835203
     atom    9 type  1   force =     0.03280112   -0.01623711   -0.00174682
     atom   10 type  1   force =    -0.02629154    0.02485872    0.00969387
     atom   11 type  1   force =    -0.01295947   -0.01884251   -0.04654206
     atom   12 type  1   force =    -0.00792088   -0.00892095   -0.00653450
     atom   13 type  1   force =     0.01067138    0.00717493    0.02810838
     atom   14 type  1   force =     0.02283528    0.00777969   -0.01846050
     atom   15 type  1   force =     0.05018514   -0.03530499   -0.01176436
     atom   16 type  1   force =     0.02521320   -0.07131326   -0.02241135
     atom   17 type  1   force =     0.00468715    0.00688914    0.03540661
     atom   18 type  1   force =    -0.00011560    0.01132425    0.01725184
     atom   19 type  1   force =    -0.00438783   -0.00249381   -0.03032576
     atom   20 type  1   force =    -0.03132567   -0.00281081    0.01896825
     atom   21 type  1   force =    -0.10193213    0.04022646    0.02837131
     atom   22 type  1   force =    -0.00454888   -0.00681764   -0.01233997
     atom   23 type  1   force =     0.02087928    0.05404490    0.00545125
     atom   24 type  1   force =     0.01524503    0.01918991    0.00275301
     atom   25 type  1   force =    -0.07200595   -0.02267092   -0.04337942
     atom   26 type  1   force =     0.12422138    0.03295568   -0.04039439
     atom   27 type  1   force =     0.04571471   -0.04035849    0.02065900
     atom   28 type  1   force =    -0.03055154   -0.00082315    0.03660609
     atom   29 type  1   force =     0.00762883   -0.00990536   -0.00465994
     atom   30 type  1   force =     0.06855171   -0.09158423   -0.01118790
     atom   31 type  1   force =     0.00742440    0.00360447    0.00485478
     atom   32 type  1   force =     0.02479102    0.01030923    0.00189106
     atom   33 type  1   force =     0.03571541   -0.04498098   -0.00770520
     atom   34 type  1   force =    -0.00280014   -0.02639388    0.00909333
     atom   35 type  1   force =    -0.05001344    0.00173849   -0.04235438
     atom   36 type  1   force =    -0.00662971    0.00006847   -0.02649240
     atom   37 type  1   force =     0.03671419    0.03045104    0.04979220
     atom   38 type  1   force =    -0.03052610   -0.01707711    0.03941790
     atom   39 type  1   force =     0.03178725   -0.01429766   -0.00473920
     atom   40 type  1   force =    -0.04823877    0.03609126   -0.01047827
     atom   41 type  1   force =    -0.03057421    0.01444337   -0.03525969
     atom   42 type  1   force =    -0.02113383   -0.03289894   -0.00520188
     atom   43 type  1   force =     0.02652674    0.00947476    0.00669952
     atom   44 type  1   force =    -0.02773804    0.00072496    0.00143576
     atom   45 type  1   force =     0.01948143   -0.00650822   -0.02177902
     atom   46 type  1   force =     0.01542455   -0.01039203    0.00392683
     atom   47 type  1   force =    -0.02188173    0.01077759   -0.00697390
     atom   48 type  1   force =     0.00822193   -0.04118136    0.01065267
     atom   49 type  1   force =    -0.02062285    0.01601128   -0.00058004
     atom   50 type  1   force =     0.08566715   -0.00347771   -0.13355868
     atom   51 type  1   force =     0.00639881   -0.03897816   -0.00594602
     atom   52 type  1   force =     0.00270547   -0.01808417   -0.00157046
     atom   53 type  1   force =     0.01649091    0.00593286    0.01000723
     atom   54 type  1   force =    -0.01923233    0.01332596    0.02201676
     atom   55 type  1   force =    -0.00345303    0.10501657   -0.07267197
     atom   56 type  1   force =    -0.01043578    0.05654332   -0.02026654
     atom   57 type  1   force =     0.06442270    0.01543455    0.03321761
     atom   58 type  1   force =    -0.01506430    0.01369767   -0.01081113
     atom   59 type  1   force =    -0.04609605    0.03465955    0.00046938
     atom   60 type  1   force =     0.03259026    0.02366971    0.00258759
     atom   61 type  1   force =    -0.04128583   -0.12498014    0.05357425
     atom   62 type  1   force =     0.02161711    0.01516038    0.05337835
     atom   63 type  1   force =     0.03202283    0.01249274   -0.00146364
     atom   64 type  1   force =    -0.00875133   -0.03783338   -0.00606228

     Total force =     0.503278     Total SCF correction =     0.001205


     Computing stress (Cartesian axis) and pressure

          total   stress  (Ry/bohr**3)                   (kbar)     P=      -15.57
  -0.00013843   0.00003882  -0.00004713          -20.36        5.71       -6.93
   0.00003882  -0.00010295  -0.00003157            5.71      -15.14       -4.64
  -0.00004713  -0.00003157  -0.00007620           -6.93       -4.64      -11.21

 
     init_run     :      0.80s CPU      4.68s WALL (       1 calls)
     electrons    :      2.66s CPU      2.83s WALL (       1 calls)
     forces       :      0.04s CPU      0.04s WALL (       1 calls)
     stress       :      0.17s CPU      0.18s WALL (       1 calls)

     Called by init_run:
     wfcinit      :      0.58s CPU      4.30s WALL (       1 calls)
                                        4.30s GPU  (       1 calls)
     potinit      :      0.05s CPU      0.13s WALL (       1 calls)
     hinit0       :      0.14s CPU      0.17s WALL (       1 calls)

     Called by electrons:
     c_bands      :      1.54s CPU      1.61s WALL (      22 calls)
     sum_band     :      0.55s CPU      0.61s WALL (      22 calls)
     v_of_rho     :      0.25s CPU      0.35s WALL (      22 calls)
     mix_rho      :      0.25s CPU      0.27s WALL (      22 calls)

     Called by c_bands:
     init_us_2    :      0.08s CPU      0.09s WALL (      45 calls)
     init_us_2:gp :      0.08s CPU      0.08s WALL (      45 calls)
     regterg      :      1.35s CPU      1.41s WALL (      22 calls)

     Called by *egterg:
     rdiaghg      :      0.40s CPU      1.16s WALL (      85 calls)
                                        1.15s GPU  (      85 calls)
     h_psi        :      1.32s CPU      4.32s WALL (      87 calls)
                                        4.31s GPU  (      87 calls)
     g_psi        :      0.00s CPU      0.00s WALL (      64 calls)
                                        0.00s GPU  (      64 calls)

     Called by h_psi:
     h_psi:calbec :      0.54s CPU      3.45s WALL (      87 calls)
                                        3.45s GPU  (      87 calls)
     vloc_psi     :      0.73s CPU      0.80s WALL (      87 calls)
                                        0.80s GPU  (      87 calls)
     add_vuspsi   :      0.03s CPU      0.05s WALL (      87 calls)
                                        0.05s GPU  (      87 calls)

     General routines
     calbec       :      0.54s CPU      3.45s WALL (      92 calls)
     fft          :      0.39s CPU      0.52s WALL (     183 calls)
                                        0.13s GPU  (     116 calls)
     ffts         :      0.08s CPU      0.09s WALL (      22 calls)
     fftw         :      0.80s CPU      1.02s WALL (    2286 calls)
                                        0.92s GPU  (    2286 calls)
 
     Parallel routines
 
     PWSCF        :      3.71s CPU      7.82s WALL

 
   This run was terminated on:  12:27:14  11May2023            

=------------------------------------------------------------------------------=
   JOB DONE.
=------------------------------------------------------------------------------=
