An instance of this daemon is already running

     Program PWSCF v.7.1 starts on 11May2023 at 12:33:34 

     This program is part of the open-source Quantum ESPRESSO suite
     for quantum simulation of materials; please cite
         "P. Giannozzi et al., J. Phys.:Condens. Matter 21 395502 (2009);
         "P. Giannozzi et al., J. Phys.:Condens. Matter 29 465901 (2017);
         "P. Giannozzi et al., J. Chem. Phys. 152 154105 (2020);
          URL http://www.quantum-espresso.org", 
     in publications or presentations arising from this work. More details at
     http://www.quantum-espresso.org/quote

     Parallel version (MPI & OpenMP), running on       4 processor cores
     Number of MPI processes:                 4
     Threads/MPI process:                     1

     MPI processes distributed on     1 nodes
     696750 MiB available memory on the printing compute node when the environment starts
 
     Reading input from pw-si-89.in
Warning: card &CELL ignored
Warning: card / ignored

     Current dimensions of program PWSCF are:
     Max number of different atomic species (ntypx) = 10
     Max number of k-points (npk) =  40000
     Max angular momentum in pseudopotentials (lmaxx) =  4

     IMPORTANT: XC functional enforced from input :
     Exchange-correlation= PBE
                           (   1   4   3   4   0   0   0)
     Any further DFT definition will be discarded
     Please, verify this is what you really want


     gamma-point specific algorithms are used
 
     K-points division:     npool     =       2
     R & G space division:  proc/nbgrp/npool/nimage =       2
     Subspace diagonalization in iterative solution of the eigenvalue problem:
     a serial algorithm will be used

     Message from routine divide_et_impera:
     suboptimal parallelization: some nodes have no k-points
 
     Parallelization info
     --------------------
     sticks:   dense  smooth     PW     G-vecs:    dense   smooth      PW
     Min        2198    2198    577               109898   109898   14855
     Max        2199    2199    584               109901   109901   14856
     Sum        4397    4397   1161               219799   219799   29711
 
     Using Slab Decomposition
 


     bravais-lattice index     =            0
     lattice parameter (alat)  =      21.4753  a.u.
     unit-cell volume          =    9904.1002 (a.u.)^3
     number of atoms/cell      =           64
     number of atomic types    =            1
     number of electrons       =       256.00
     number of Kohn-Sham states=          154
     kinetic-energy cutoff     =      30.0000  Ry
     charge density cutoff     =     120.0000  Ry
     scf convergence threshold =      1.0E-06
     mixing beta               =       0.5000
     number of iterations used =            8  plain     mixing
     Exchange-correlation= PBE
                           (   1   4   3   4   0   0   0)

     GPU acceleration is ACTIVE.
     GPU-aware MPI enabled

     Message from routine print_cuda_info:
     High GPU oversubscription detected. Are you sure this is what you want?

     celldm(1)=  21.475256  celldm(2)=   0.000000  celldm(3)=   0.000000
     celldm(4)=   0.000000  celldm(5)=   0.000000  celldm(6)=   0.000000

     crystal axes: (cart. coord. in units of alat)
               a(1) = (   1.000000   0.000000   0.000000 )  
               a(2) = (   0.000000   1.000000   0.000000 )  
               a(3) = (   0.000000   0.000000   1.000000 )  

     reciprocal axes: (cart. coord. in units 2 pi/alat)
               b(1) = (  1.000000  0.000000  0.000000 )  
               b(2) = (  0.000000  1.000000  0.000000 )  
               b(3) = (  0.000000  0.000000  1.000000 )  


     PseudoPot. # 1 for Si read from file:
     /home/ppiaggi/pseudos/Si_ONCV_PBE_sr.upf
     MD5 check sum: 8553c464762ac42b85b1eed164b4d029
     Pseudo is Norm-conserving, Zval =  4.0
     Generated using ONCVPSP code by D. R. Hamann
     Using radial grid of 1510 points,  4 beta functions with: 
                l(1) =   0
                l(2) =   0
                l(3) =   1
                l(4) =   1

     atomic species   valence    mass     pseudopotential
        Si             4.00    28.08500     Si( 1.00)

     No symmetry found



   Cartesian axes

     site n.     atom                  positions (alat units)
         1           Si  tau(   1) = (   0.9401350   0.4256020   0.6592720  )
         2           Si  tau(   2) = (   0.7781840   0.5103650   0.1486910  )
         3           Si  tau(   3) = (   0.7649210   0.9379130   0.3910730  )
         4           Si  tau(   4) = (   0.7148050   0.5094590   0.3331710  )
         5           Si  tau(   5) = (   0.9334510   0.2321500   0.5962380  )
         6           Si  tau(   6) = (   0.2382230   0.4646020   0.8177690  )
         7           Si  tau(   7) = (   0.9358010   0.1767530   0.0896131  )
         8           Si  tau(   8) = (   0.2686230   0.8251400   0.9944310  )
         9           Si  tau(   9) = (   0.6067160   0.8325540   0.2266250  )
        10           Si  tau(  10) = (   0.3164670   0.0402541   0.0061053  )
        11           Si  tau(  11) = (   0.9644430   0.1202880   0.8224430  )
        12           Si  tau(  12) = (   0.1228640   0.6689080   0.9376920  )
        13           Si  tau(  13) = (   0.5797330   0.3866520   0.7121870  )
        14           Si  tau(  14) = (   0.9584860   0.2477220   0.3437590  )
        15           Si  tau(  15) = (   0.6392750   0.1813060   0.9501680  )
        16           Si  tau(  16) = (   0.7482190   0.4077400   0.5765850  )
        17           Si  tau(  17) = (   0.5119130   0.1035770   0.1113630  )
        18           Si  tau(  18) = (   0.7834190   0.2611790   0.7929740  )
        19           Si  tau(  19) = (   0.6622490   0.7981480   0.5413920  )
        20           Si  tau(  20) = (   0.2762440   0.1447630   0.7999110  )
        21           Si  tau(  21) = (   0.4509810   0.0876529   0.6956190  )
        22           Si  tau(  22) = (   0.8267470   0.6432280   0.5560800  )
        23           Si  tau(  23) = (   0.4576460   0.8872010   0.5432550  )
        24           Si  tau(  24) = (   0.2723030   0.4270100   0.0932373  )
        25           Si  tau(  25) = (   0.1824310   0.5628260   0.2075580  )
        26           Si  tau(  26) = (   0.2165630   0.2124860   0.1268300  )
        27           Si  tau(  27) = (   0.9384810   0.9545980   0.9499360  )
        28           Si  tau(  28) = (   0.6435340   0.0796308   0.2642210  )
        29           Si  tau(  29) = (   0.4586630   0.7409310   0.0656515  )
        30           Si  tau(  30) = (   0.7337230   0.2585420   0.4296060  )
        31           Si  tau(  31) = (   0.2832110   0.3246140   0.5892970  )
        32           Si  tau(  32) = (   0.3286280   0.2780860   0.3011050  )
        33           Si  tau(  33) = (   0.1275500   0.8143770   0.5979070  )
        34           Si  tau(  34) = (   0.4543820   0.3473290   0.0206694  )
        35           Si  tau(  35) = (   0.9494340   0.7471990   0.0783350  )
        36           Si  tau(  36) = (   0.3868570   0.3169190   0.8122770  )
        37           Si  tau(  37) = (   0.3261280   0.6035250   0.9776180  )
        38           Si  tau(  38) = (   0.9425610   0.8518490   0.2836930  )
        39           Si  tau(  39) = (   0.5067000   0.8645230   0.7472720  )
        40           Si  tau(  40) = (   0.1115600   0.4706250   0.3892780  )
        41           Si  tau(  41) = (   0.2467130   0.9003970   0.3412590  )
        42           Si  tau(  42) = (   0.8142740   0.4171280   0.9547880  )
        43           Si  tau(  43) = (   0.1376640   0.8005680   0.1830520  )
        44           Si  tau(  44) = (   0.2697600   0.6257840   0.4430670  )
        45           Si  tau(  45) = (   0.1412410   0.5432100   0.6385680  )
        46           Si  tau(  46) = (   0.2969720   0.7445000   0.7046730  )
        47           Si  tau(  47) = (   0.4481770   0.5509980   0.7889290  )
        48           Si  tau(  48) = (   0.1202660   0.2504440   0.4482750  )
        49           Si  tau(  49) = (   0.7200610   0.2746870   0.1253780  )
        50           Si  tau(  50) = (   0.6426490   0.6991470   0.3819370  )
        51           Si  tau(  51) = (   0.8957080   0.5113500   0.4320420  )
        52           Si  tau(  52) = (   0.0601372   0.0455510   0.5180880  )
        53           Si  tau(  53) = (   0.3860340   0.4351760   0.4452620  )
        54           Si  tau(  54) = (   0.0533561   0.3759750   0.1626340  )
        55           Si  tau(  55) = (   0.5935870   0.3518150   0.2628900  )
        56           Si  tau(  56) = (   0.0724415   0.3159760   0.9603510  )
        57           Si  tau(  57) = (   0.3858820   0.5917030   0.2306900  )
        58           Si  tau(  58) = (   0.0456759   0.6803340   0.7473840  )
        59           Si  tau(  59) = (   0.7061320   0.6699190   0.0234937  )
        60           Si  tau(  60) = (   0.0181450   0.6893430   0.4446850  )
        61           Si  tau(  61) = (   0.8325900   0.9991810   0.1501620  )
        62           Si  tau(  62) = (   0.1450310   0.9584880   0.8415290  )
        63           Si  tau(  63) = (   0.6385240   0.5007360   0.8802740  )
        64           Si  tau(  64) = (   0.4189530   0.7782780   0.3275770  )

     number of k points=     1  Fermi-Dirac smearing, width (Ry)=  0.0100
                       cart. coord. in units 2pi/alat
        k(    1) = (   0.0000000   0.0000000   0.0000000), wk =   2.0000000

     Dense  grid:   109900 G-vectors     FFT dimensions: (  75,  75,  75)

     Estimated max dynamical RAM per process >     174.94 MB

     Estimated total dynamical RAM >     672.93 MB

     Initial potential from superposition of free atoms

     starting charge     255.9608, renormalised to     256.0000
     Starting wfcs are  256 randomized atomic wfcs

     total cpu time spent up to now is        4.8 secs

     Self-consistent Calculation

     iteration #  1     ecut=    30.00 Ry     beta= 0.50
     Davidson diagonalization with overlap
     ethr =  1.00E-02,  avg # of iterations =  3.0

     Threshold (ethr) on eigenvalues was too large:
     Diagonalizing with lowered threshold

     Davidson diagonalization with overlap
     ethr =  6.04E-04,  avg # of iterations =  4.0

     total cpu time spent up to now is        5.1 secs

     total energy              =    -499.88535753 Ry
     estimated scf accuracy    <       2.07938013 Ry

     iteration #  2     ecut=    30.00 Ry     beta= 0.50
     Davidson diagonalization with overlap
     ethr =  8.12E-04,  avg # of iterations =  5.0

     total cpu time spent up to now is        5.2 secs

     total energy              =    -498.65992580 Ry
     estimated scf accuracy    <      20.05807767 Ry

     iteration #  3     ecut=    30.00 Ry     beta= 0.50
     Davidson diagonalization with overlap
     ethr =  8.12E-04,  avg # of iterations =  4.0

     total cpu time spent up to now is        5.4 secs

     total energy              =    -500.37836644 Ry
     estimated scf accuracy    <       2.13595601 Ry

     iteration #  4     ecut=    30.00 Ry     beta= 0.50
     Davidson diagonalization with overlap
     ethr =  8.12E-04,  avg # of iterations =  2.0

     total cpu time spent up to now is        5.5 secs

     total energy              =    -500.52608350 Ry
     estimated scf accuracy    <       0.71681267 Ry

     iteration #  5     ecut=    30.00 Ry     beta= 0.50
     Davidson diagonalization with overlap
     ethr =  2.80E-04,  avg # of iterations =  2.0

     total cpu time spent up to now is        5.6 secs

     total energy              =    -500.56622096 Ry
     estimated scf accuracy    <       0.86149505 Ry

     iteration #  6     ecut=    30.00 Ry     beta= 0.50
     Davidson diagonalization with overlap
     ethr =  2.80E-04,  avg # of iterations =  1.0

     total cpu time spent up to now is        5.7 secs

     total energy              =    -500.62671242 Ry
     estimated scf accuracy    <       0.07691932 Ry

     iteration #  7     ecut=    30.00 Ry     beta= 0.50
     Davidson diagonalization with overlap
     ethr =  3.00E-05,  avg # of iterations =  4.0

     total cpu time spent up to now is        5.9 secs

     total energy              =    -500.63312547 Ry
     estimated scf accuracy    <       0.08516215 Ry

     iteration #  8     ecut=    30.00 Ry     beta= 0.50
     Davidson diagonalization with overlap
     ethr =  3.00E-05,  avg # of iterations =  3.0

     total cpu time spent up to now is        6.0 secs

     total energy              =    -500.64036949 Ry
     estimated scf accuracy    <       0.04012585 Ry

     iteration #  9     ecut=    30.00 Ry     beta= 0.50
     Davidson diagonalization with overlap
     ethr =  1.57E-05,  avg # of iterations = 10.0

     total cpu time spent up to now is        6.1 secs

     total energy              =    -500.64324856 Ry
     estimated scf accuracy    <       0.00657737 Ry

     iteration # 10     ecut=    30.00 Ry     beta= 0.50
     Davidson diagonalization with overlap
     ethr =  2.57E-06,  avg # of iterations =  9.0

     total cpu time spent up to now is        6.3 secs

     total energy              =    -500.64375316 Ry
     estimated scf accuracy    <       0.00767081 Ry

     iteration # 11     ecut=    30.00 Ry     beta= 0.50
     Davidson diagonalization with overlap
     ethr =  2.57E-06,  avg # of iterations =  2.0

     total cpu time spent up to now is        6.4 secs

     total energy              =    -500.64429002 Ry
     estimated scf accuracy    <       0.00101578 Ry

     iteration # 12     ecut=    30.00 Ry     beta= 0.50
     Davidson diagonalization with overlap
     ethr =  3.97E-07,  avg # of iterations =  4.0

     total cpu time spent up to now is        6.6 secs

     total energy              =    -500.64439624 Ry
     estimated scf accuracy    <       0.00096187 Ry

     iteration # 13     ecut=    30.00 Ry     beta= 0.50
     Davidson diagonalization with overlap
     ethr =  3.76E-07,  avg # of iterations =  2.0

     total cpu time spent up to now is        6.7 secs

     total energy              =    -500.64446566 Ry
     estimated scf accuracy    <       0.00039798 Ry

     iteration # 14     ecut=    30.00 Ry     beta= 0.50
     Davidson diagonalization with overlap
     ethr =  1.55E-07,  avg # of iterations =  2.0

     total cpu time spent up to now is        6.8 secs

     total energy              =    -500.64449492 Ry
     estimated scf accuracy    <       0.00022764 Ry

     iteration # 15     ecut=    30.00 Ry     beta= 0.50
     Davidson diagonalization with overlap
     ethr =  8.89E-08,  avg # of iterations =  1.0

     total cpu time spent up to now is        6.9 secs

     total energy              =    -500.64451422 Ry
     estimated scf accuracy    <       0.00002300 Ry

     iteration # 16     ecut=    30.00 Ry     beta= 0.50
     Davidson diagonalization with overlap
     ethr =  8.98E-09,  avg # of iterations =  4.0

     total cpu time spent up to now is        7.1 secs

     total energy              =    -500.64451682 Ry
     estimated scf accuracy    <       0.00001951 Ry

     iteration # 17     ecut=    30.00 Ry     beta= 0.50
     Davidson diagonalization with overlap
     ethr =  7.62E-09,  avg # of iterations =  2.0

     total cpu time spent up to now is        7.2 secs

     total energy              =    -500.64451815 Ry
     estimated scf accuracy    <       0.00001125 Ry

     iteration # 18     ecut=    30.00 Ry     beta= 0.50
     Davidson diagonalization with overlap
     ethr =  4.39E-09,  avg # of iterations =  2.0

     total cpu time spent up to now is        7.3 secs

     total energy              =    -500.64451889 Ry
     estimated scf accuracy    <       0.00001244 Ry

     iteration # 19     ecut=    30.00 Ry     beta= 0.50
     Davidson diagonalization with overlap
     ethr =  4.39E-09,  avg # of iterations =  1.0

     total cpu time spent up to now is        7.4 secs

     total energy              =    -500.64451952 Ry
     estimated scf accuracy    <       0.00000221 Ry

     iteration # 20     ecut=    30.00 Ry     beta= 0.50
     Davidson diagonalization with overlap
     ethr =  8.62E-10,  avg # of iterations =  3.0

     total cpu time spent up to now is        7.6 secs

     total energy              =    -500.64451974 Ry
     estimated scf accuracy    <       0.00000149 Ry

     iteration # 21     ecut=    30.00 Ry     beta= 0.50
     Davidson diagonalization with overlap
     ethr =  5.80E-10,  avg # of iterations =  2.0

     total cpu time spent up to now is        7.7 secs

     End of self-consistent calculation

          k = 0.0000 0.0000 0.0000 ( 13805 PWs)   bands (ev):

    -7.2894  -6.8472  -6.2790  -6.2301  -6.2013  -5.7449  -5.6772  -5.5367
    -5.4768  -5.2157  -5.1169  -5.0276  -4.9612  -4.6218  -4.5478  -4.3689
    -4.3466  -4.2197  -4.1005  -4.0217  -3.9135  -3.5848  -3.5192  -3.2511
    -3.1579  -3.0741  -2.9932  -2.8837  -2.6988  -2.6530  -2.5544  -2.4015
    -2.3099  -2.1754  -2.1315  -1.9385  -1.8959  -1.7532  -1.7364  -1.6866
    -1.5355  -1.4141  -1.3651  -1.2452  -1.1547  -1.0664  -0.9397  -0.8976
    -0.7482  -0.6747  -0.5862  -0.4645  -0.3875  -0.3583  -0.1226  -0.0856
     0.0213   0.0449   0.1379   0.3367   0.5032   0.5499   0.6499   0.7180
     0.9430   1.0043   1.1006   1.1189   1.2243   1.2820   1.3841   1.5143
     1.6078   1.6830   1.7771   1.8540   1.9048   2.0002   2.0705   2.0931
     2.1605   2.1981   2.3006   2.3873   2.4266   2.4599   2.5897   2.6626
     2.7451   2.7588   2.8094   2.8684   2.9870   2.9917   3.0763   3.1423
     3.1930   3.2988   3.3698   3.4333   3.4807   3.5084   3.5978   3.6473
     3.6588   3.7171   3.8345   3.9039   3.9368   4.0270   4.0883   4.1516
     4.1969   4.2410   4.2604   4.3533   4.4163   4.4523   4.4776   4.5183
     4.5925   4.6404   4.6774   4.7222   4.7695   4.8754   4.9531   5.0473
     5.0864   5.1451   5.1677   5.1880   5.2284   5.2856   5.4190   5.4693
     5.5124   5.5771   5.5991   5.6867   5.7557   5.7628   5.8773   5.9299
     6.0088   6.0435   6.1742   6.2053   6.2223   6.2980   6.4203   6.4527
     6.4998   6.5187

     the Fermi energy is     5.0246 ev

!    total energy              =    -500.64451959 Ry
     estimated scf accuracy    <       0.00000044 Ry
     smearing contrib. (-TS)   =      -0.15560912 Ry
     internal energy E=F+TS    =    -500.48891047 Ry

     The total energy is F=E-TS. E is the sum of the following terms:
     one-electron contribution =      19.32361843 Ry
     hartree contribution      =      88.98430173 Ry
     xc contribution           =    -148.07818580 Ry
     ewald contribution        =    -460.71864483 Ry

     convergence has been achieved in  21 iterations

     Forces acting on atoms (cartesian axes, Ry/au):

     atom    1 type  1   force =     0.00963101    0.02203750    0.00901060
     atom    2 type  1   force =     0.02373748   -0.00912398   -0.06745710
     atom    3 type  1   force =    -0.00780205   -0.01882671   -0.00197606
     atom    4 type  1   force =    -0.02238269    0.00632799    0.04957363
     atom    5 type  1   force =     0.00574477   -0.05689108   -0.01664599
     atom    6 type  1   force =    -0.00984151    0.00554986    0.00335506
     atom    7 type  1   force =    -0.01057409    0.01212936    0.00561909
     atom    8 type  1   force =    -0.01415380    0.03650617    0.01078332
     atom    9 type  1   force =     0.00671675    0.02674082   -0.02397977
     atom   10 type  1   force =    -0.00666612    0.01882579   -0.00675143
     atom   11 type  1   force =     0.00063245    0.01354912   -0.00053009
     atom   12 type  1   force =    -0.00049689    0.02503857    0.01540764
     atom   13 type  1   force =     0.00614059   -0.00433731    0.00226833
     atom   14 type  1   force =    -0.07810792    0.00654959   -0.04240291
     atom   15 type  1   force =    -0.01692664    0.00972168    0.02184172
     atom   16 type  1   force =    -0.01335155    0.01003823    0.01491667
     atom   17 type  1   force =    -0.02809865    0.02716312   -0.05387123
     atom   18 type  1   force =     0.00019969    0.01743239    0.00788727
     atom   19 type  1   force =     0.02011119    0.06391361    0.07138699
     atom   20 type  1   force =    -0.01644948   -0.06044090    0.01839694
     atom   21 type  1   force =     0.00184949   -0.02392443   -0.00907035
     atom   22 type  1   force =    -0.02031884    0.05857503    0.07122569
     atom   23 type  1   force =    -0.01011495   -0.00074608   -0.01138024
     atom   24 type  1   force =     0.03440425   -0.05109958   -0.02209540
     atom   25 type  1   force =    -0.04864816    0.05833054    0.03214571
     atom   26 type  1   force =    -0.00467012    0.01855407   -0.01768878
     atom   27 type  1   force =     0.01785092   -0.00281005    0.02402971
     atom   28 type  1   force =     0.05716992   -0.03052148    0.01526689
     atom   29 type  1   force =     0.00216034   -0.01147179    0.01814114
     atom   30 type  1   force =     0.03139725   -0.00411183   -0.03378058
     atom   31 type  1   force =    -0.03318457   -0.00246771    0.01520437
     atom   32 type  1   force =    -0.02108401    0.01955637    0.01151062
     atom   33 type  1   force =    -0.01636196    0.04499658   -0.00989566
     atom   34 type  1   force =     0.04306712   -0.01479591   -0.00974693
     atom   35 type  1   force =     0.00510000    0.02795105   -0.00056022
     atom   36 type  1   force =     0.02485176    0.01497102    0.00223076
     atom   37 type  1   force =     0.00314620   -0.03470788   -0.01996786
     atom   38 type  1   force =    -0.00893854    0.00151761   -0.00871854
     atom   39 type  1   force =    -0.02618224   -0.00205798   -0.00692996
     atom   40 type  1   force =    -0.00953078   -0.00313422    0.01050831
     atom   41 type  1   force =    -0.01445653   -0.00332482    0.01169060
     atom   42 type  1   force =     0.00629643   -0.02698200    0.00138098
     atom   43 type  1   force =     0.00881341   -0.01742115   -0.00179307
     atom   44 type  1   force =    -0.01632734   -0.00525709    0.01246623
     atom   45 type  1   force =     0.03287991   -0.05169639   -0.03702806
     atom   46 type  1   force =     0.02036517   -0.01058892    0.00223624
     atom   47 type  1   force =    -0.01571420    0.02746193    0.00182354
     atom   48 type  1   force =     0.08656125   -0.01882463    0.04961733
     atom   49 type  1   force =     0.04627489   -0.02344717   -0.04205021
     atom   50 type  1   force =    -0.03273314   -0.04931169   -0.08244249
     atom   51 type  1   force =     0.07582082   -0.07573076   -0.04841517
     atom   52 type  1   force =    -0.00880213    0.00309248   -0.00146142
     atom   53 type  1   force =     0.00542422    0.01298408   -0.03730485
     atom   54 type  1   force =    -0.01421893   -0.00577265    0.03184356
     atom   55 type  1   force =    -0.03613900    0.00902963    0.01954204
     atom   56 type  1   force =    -0.00201577   -0.02178746   -0.00897386
     atom   57 type  1   force =     0.03542926   -0.01671825   -0.00824978
     atom   58 type  1   force =    -0.02481365    0.04264753    0.00228369
     atom   59 type  1   force =    -0.01316271   -0.01907006    0.00329301
     atom   60 type  1   force =     0.01293798    0.03014427   -0.01170373
     atom   61 type  1   force =    -0.00673367   -0.01108709    0.01491181
     atom   62 type  1   force =    -0.00478678    0.00150077    0.00370750
     atom   63 type  1   force =    -0.01387330    0.00598042    0.03596060
     atom   64 type  1   force =     0.00294820    0.00967187    0.02140413

     Total force =     0.384153     Total SCF correction =     0.001031


     Computing stress (Cartesian axis) and pressure

          total   stress  (Ry/bohr**3)                   (kbar)     P=      -43.03
  -0.00033400   0.00000736   0.00001996          -49.13        1.08        2.94
   0.00000736  -0.00031185   0.00005868            1.08      -45.87        8.63
   0.00001996   0.00005868  -0.00023171            2.94        8.63      -34.09

 
     init_run     :      0.84s CPU      4.68s WALL (       1 calls)
     electrons    :      2.74s CPU      2.93s WALL (       1 calls)
     forces       :      0.04s CPU      0.04s WALL (       1 calls)
     stress       :      0.19s CPU      0.19s WALL (       1 calls)

     Called by init_run:
     wfcinit      :      0.61s CPU      4.29s WALL (       1 calls)
                                        4.29s GPU  (       1 calls)
     potinit      :      0.06s CPU      0.14s WALL (       1 calls)
     hinit0       :      0.14s CPU      0.17s WALL (       1 calls)

     Called by electrons:
     c_bands      :      1.59s CPU      1.66s WALL (      22 calls)
     sum_band     :      0.57s CPU      0.62s WALL (      22 calls)
     v_of_rho     :      0.26s CPU      0.36s WALL (      22 calls)
     mix_rho      :      0.26s CPU      0.29s WALL (      22 calls)

     Called by c_bands:
     init_us_2    :      0.08s CPU      0.09s WALL (      45 calls)
     init_us_2:gp :      0.08s CPU      0.08s WALL (      45 calls)
     regterg      :      1.40s CPU      1.46s WALL (      22 calls)

     Called by *egterg:
     rdiaghg      :      0.42s CPU      1.18s WALL (      93 calls)
                                        1.16s GPU  (      93 calls)
     h_psi        :      1.36s CPU      4.33s WALL (      95 calls)
                                        4.32s GPU  (      95 calls)
     g_psi        :      0.00s CPU      0.00s WALL (      72 calls)
                                        0.00s GPU  (      72 calls)

     Called by h_psi:
     h_psi:calbec :      0.57s CPU      3.44s WALL (      95 calls)
                                        3.44s GPU  (      95 calls)
     vloc_psi     :      0.74s CPU      0.81s WALL (      95 calls)
                                        0.81s GPU  (      95 calls)
     add_vuspsi   :      0.04s CPU      0.06s WALL (      95 calls)
                                        0.06s GPU  (      95 calls)

     General routines
     calbec       :      0.57s CPU      3.45s WALL (     100 calls)
     fft          :      0.40s CPU      0.54s WALL (     183 calls)
                                        0.13s GPU  (     116 calls)
     ffts         :      0.09s CPU      0.09s WALL (      22 calls)
     fftw         :      0.80s CPU      1.03s WALL (    2304 calls)
                                        0.93s GPU  (    2304 calls)
 
     Parallel routines
 
     PWSCF        :      3.85s CPU      7.93s WALL

 
   This run was terminated on:  12:33:42  11May2023            

=------------------------------------------------------------------------------=
   JOB DONE.
=------------------------------------------------------------------------------=
