An instance of this daemon is already running
An instance of this daemon is already running

     Program PWSCF v.7.1 starts on 11May2023 at 12:21:11 

     This program is part of the open-source Quantum ESPRESSO suite
     for quantum simulation of materials; please cite
         "P. Giannozzi et al., J. Phys.:Condens. Matter 21 395502 (2009);
         "P. Giannozzi et al., J. Phys.:Condens. Matter 29 465901 (2017);
         "P. Giannozzi et al., J. Chem. Phys. 152 154105 (2020);
          URL http://www.quantum-espresso.org", 
     in publications or presentations arising from this work. More details at
     http://www.quantum-espresso.org/quote

     Parallel version (MPI & OpenMP), running on       4 processor cores
     Number of MPI processes:                 4
     Threads/MPI process:                     1

     MPI processes distributed on     1 nodes
     696683 MiB available memory on the printing compute node when the environment starts
 
     Reading input from pw-si-15.in
Warning: card &CELL ignored
Warning: card / ignored

     Current dimensions of program PWSCF are:
     Max number of different atomic species (ntypx) = 10
     Max number of k-points (npk) =  40000
     Max angular momentum in pseudopotentials (lmaxx) =  4

     IMPORTANT: XC functional enforced from input :
     Exchange-correlation= PBE
                           (   1   4   3   4   0   0   0)
     Any further DFT definition will be discarded
     Please, verify this is what you really want


     gamma-point specific algorithms are used
 
     K-points division:     npool     =       2
     R & G space division:  proc/nbgrp/npool/nimage =       2
     Subspace diagonalization in iterative solution of the eigenvalue problem:
     a serial algorithm will be used

     Message from routine divide_et_impera:
     suboptimal parallelization: some nodes have no k-points
 
     Parallelization info
     --------------------
     sticks:   dense  smooth     PW     G-vecs:    dense   smooth      PW
     Min        1984    1984    519                93503    93503   12703
     Max        1985    1985    522                93504    93504   12710
     Sum        3969    3969   1041               187007   187007   25413
 
     Using Slab Decomposition
 


     bravais-lattice index     =            0
     lattice parameter (alat)  =      20.3466  a.u.
     unit-cell volume          =    8423.1787 (a.u.)^3
     number of atoms/cell      =           64
     number of atomic types    =            1
     number of electrons       =       256.00
     number of Kohn-Sham states=          154
     kinetic-energy cutoff     =      30.0000  Ry
     charge density cutoff     =     120.0000  Ry
     scf convergence threshold =      1.0E-06
     mixing beta               =       0.5000
     number of iterations used =            8  plain     mixing
     Exchange-correlation= PBE
                           (   1   4   3   4   0   0   0)

     GPU acceleration is ACTIVE.
     GPU-aware MPI enabled

     Message from routine print_cuda_info:
     High GPU oversubscription detected. Are you sure this is what you want?

     celldm(1)=  20.346607  celldm(2)=   0.000000  celldm(3)=   0.000000
     celldm(4)=   0.000000  celldm(5)=   0.000000  celldm(6)=   0.000000

     crystal axes: (cart. coord. in units of alat)
               a(1) = (   1.000000   0.000000   0.000000 )  
               a(2) = (   0.000000   1.000000   0.000000 )  
               a(3) = (   0.000000   0.000000   1.000000 )  

     reciprocal axes: (cart. coord. in units 2 pi/alat)
               b(1) = (  1.000000  0.000000  0.000000 )  
               b(2) = (  0.000000  1.000000  0.000000 )  
               b(3) = (  0.000000  0.000000  1.000000 )  


     PseudoPot. # 1 for Si read from file:
     /home/ppiaggi/pseudos/Si_ONCV_PBE_sr.upf
     MD5 check sum: 8553c464762ac42b85b1eed164b4d029
     Pseudo is Norm-conserving, Zval =  4.0
     Generated using ONCVPSP code by D. R. Hamann
     Using radial grid of 1510 points,  4 beta functions with: 
                l(1) =   0
                l(2) =   0
                l(3) =   1
                l(4) =   1

     atomic species   valence    mass     pseudopotential
        Si             4.00    28.08500     Si( 1.00)

     No symmetry found



   Cartesian axes

     site n.     atom                  positions (alat units)
         1           Si  tau(   1) = (   0.6528740   0.7133170   0.4939500  )
         2           Si  tau(   2) = (   0.7233530   0.3803360   0.1500510  )
         3           Si  tau(   3) = (   0.9283960   0.9529770   0.3962910  )
         4           Si  tau(   4) = (   0.8271890   0.4390120   0.3809210  )
         5           Si  tau(   5) = (   0.2837700   0.2019350   0.4771890  )
         6           Si  tau(   6) = (   0.2447690   0.5506630   0.9703190  )
         7           Si  tau(   7) = (   0.7777810   0.1347600   0.4751160  )
         8           Si  tau(   8) = (   0.3276290   0.9822800   0.9827440  )
         9           Si  tau(   9) = (   0.6434910   0.8645020   0.7700960  )
        10           Si  tau(  10) = (   0.1841290   0.8162740   0.8286880  )
        11           Si  tau(  11) = (   0.9975010   0.0775548   0.6409420  )
        12           Si  tau(  12) = (   0.9900590   0.8053930   0.0627078  )
        13           Si  tau(  13) = (   0.7370370   0.4618170   0.9548430  )
        14           Si  tau(  14) = (   0.7967290   0.3595610   0.6227150  )
        15           Si  tau(  15) = (   0.7646070   0.2128250   0.8125130  )
        16           Si  tau(  16) = (   0.3465470   0.9015780   0.5306010  )
        17           Si  tau(  17) = (   0.5381550   0.0387923   0.1638530  )
        18           Si  tau(  18) = (   0.6412790   0.4345350   0.7651900  )
        19           Si  tau(  19) = (   0.8299250   0.7545400   0.6535080  )
        20           Si  tau(  20) = (   0.3579290   0.0999018   0.8109050  )
        21           Si  tau(  21) = (   0.4430700   0.0731116   0.5833680  )
        22           Si  tau(  22) = (   0.8023370   0.0068346   0.7534450  )
        23           Si  tau(  23) = (   0.3083220   0.7780220   0.3659070  )
        24           Si  tau(  24) = (   0.3738690   0.2651720   0.9560100  )
        25           Si  tau(  25) = (   0.2088740   0.4072280   0.3602350  )
        26           Si  tau(  26) = (   0.0080610   0.2526470   0.2002600  )
        27           Si  tau(  27) = (   0.9886850   0.0535065   0.9038940  )
        28           Si  tau(  28) = (   0.7493290   0.0187132   0.2744550  )
        29           Si  tau(  29) = (   0.6225300   0.6241400   0.0548631  )
        30           Si  tau(  30) = (   0.5955190   0.2225780   0.5418010  )
        31           Si  tau(  31) = (   0.0526551   0.5556880   0.2761260  )
        32           Si  tau(  32) = (   0.0299642   0.3233460   0.4339560  )
        33           Si  tau(  33) = (   0.4773560   0.7458480   0.6384820  )
        34           Si  tau(  34) = (   0.5995440   0.2086180   0.9865180  )
        35           Si  tau(  35) = (   0.9081710   0.7293550   0.8700600  )
        36           Si  tau(  36) = (   0.4232540   0.3831030   0.7515560  )
        37           Si  tau(  37) = (   0.4816700   0.8422110   0.0230089  )
        38           Si  tau(  38) = (   0.9142620   0.0181228   0.1421410  )
        39           Si  tau(  39) = (   0.3286110   0.5661920   0.4688350  )
        40           Si  tau(  40) = (   0.9792150   0.3346230   0.7414310  )
        41           Si  tau(  41) = (   0.1520000   0.9063250   0.6208380  )
        42           Si  tau(  42) = (   0.9656770   0.4112500   0.0437063  )
        43           Si  tau(  43) = (   0.1464580   0.1111250   0.1104060  )
        44           Si  tau(  44) = (   0.0752449   0.8289660   0.3198380  )
        45           Si  tau(  45) = (   0.2277270   0.6581530   0.1603400  )
        46           Si  tau(  46) = (   0.2974990   0.5272940   0.6701120  )
        47           Si  tau(  47) = (   0.3840390   0.6869620   0.8308680  )
        48           Si  tau(  48) = (   0.2638940   0.2424860   0.6641800  )
        49           Si  tau(  49) = (   0.7978610   0.1911370   0.0367658  )
        50           Si  tau(  50) = (   0.6178890   0.7865520   0.2382750  )
        51           Si  tau(  51) = (   0.0202201   0.5568680   0.8290640  )
        52           Si  tau(  52) = (   0.1128150   0.0646810   0.3345980  )
        53           Si  tau(  53) = (   0.3526570   0.3065780   0.1791260  )
        54           Si  tau(  54) = (   0.2352050   0.9047250   0.1642940  )
        55           Si  tau(  55) = (   0.5382670   0.3839170   0.3202880  )
        56           Si  tau(  56) = (   0.1486820   0.2496000   0.9199250  )
        57           Si  tau(  57) = (   0.5477610   0.5905010   0.3567540  )
        58           Si  tau(  58) = (   0.9521710   0.5119580   0.6098100  )
        59           Si  tau(  59) = (   0.6851690   0.6640210   0.8038290  )
        60           Si  tau(  60) = (   0.8758200   0.6880200   0.4228350  )
        61           Si  tau(  61) = (   0.7581090   0.8571560   0.0560275  )
        62           Si  tau(  62) = (   0.1426340   0.6917390   0.6662650  )
        63           Si  tau(  63) = (   0.8571800   0.5527540   0.1841490  )
        64           Si  tau(  64) = (   0.3888000   0.4945350   0.2061100  )

     number of k points=     1  Fermi-Dirac smearing, width (Ry)=  0.0100
                       cart. coord. in units 2pi/alat
        k(    1) = (   0.0000000   0.0000000   0.0000000), wk =   2.0000000

     Dense  grid:    93504 G-vectors     FFT dimensions: (  72,  72,  72)

     Estimated max dynamical RAM per process >     149.58 MB

     Estimated total dynamical RAM >     575.48 MB

     Initial potential from superposition of free atoms

     starting charge     255.9608, renormalised to     256.0000
     Starting wfcs are  256 randomized atomic wfcs

     total cpu time spent up to now is        5.0 secs

     Self-consistent Calculation

     iteration #  1     ecut=    30.00 Ry     beta= 0.50
     Davidson diagonalization with overlap
     ethr =  1.00E-02,  avg # of iterations =  3.0

     Threshold (ethr) on eigenvalues was too large:
     Diagonalizing with lowered threshold

     Davidson diagonalization with overlap
     ethr =  5.43E-04,  avg # of iterations =  4.0

     total cpu time spent up to now is        5.3 secs

     total energy              =    -500.37936966 Ry
     estimated scf accuracy    <       1.77598446 Ry

     iteration #  2     ecut=    30.00 Ry     beta= 0.50
     Davidson diagonalization with overlap
     ethr =  6.94E-04,  avg # of iterations =  4.0

     total cpu time spent up to now is        5.4 secs

     total energy              =    -499.84312949 Ry
     estimated scf accuracy    <       6.54979502 Ry

     iteration #  3     ecut=    30.00 Ry     beta= 0.50
     Davidson diagonalization with overlap
     ethr =  6.94E-04,  avg # of iterations =  4.0

     total cpu time spent up to now is        5.5 secs

     total energy              =    -500.43715098 Ry
     estimated scf accuracy    <       4.20368471 Ry

     iteration #  4     ecut=    30.00 Ry     beta= 0.50
     Davidson diagonalization with overlap
     ethr =  6.94E-04,  avg # of iterations =  2.0

     total cpu time spent up to now is        5.6 secs

     total energy              =    -500.74010461 Ry
     estimated scf accuracy    <       0.81521249 Ry

     iteration #  5     ecut=    30.00 Ry     beta= 0.50
     Davidson diagonalization with overlap
     ethr =  3.18E-04,  avg # of iterations =  2.0

     total cpu time spent up to now is        5.7 secs

     total energy              =    -500.79623268 Ry
     estimated scf accuracy    <       0.28695711 Ry

     iteration #  6     ecut=    30.00 Ry     beta= 0.50
     Davidson diagonalization with overlap
     ethr =  1.12E-04,  avg # of iterations =  2.0

     total cpu time spent up to now is        5.8 secs

     total energy              =    -500.82756072 Ry
     estimated scf accuracy    <       0.18723065 Ry

     iteration #  7     ecut=    30.00 Ry     beta= 0.50
     Davidson diagonalization with overlap
     ethr =  7.31E-05,  avg # of iterations =  1.0

     total cpu time spent up to now is        5.9 secs

     total energy              =    -500.84194358 Ry
     estimated scf accuracy    <       0.01307242 Ry

     iteration #  8     ecut=    30.00 Ry     beta= 0.50
     Davidson diagonalization with overlap
     ethr =  5.11E-06,  avg # of iterations = 10.0

     total cpu time spent up to now is        6.1 secs

     total energy              =    -500.84238018 Ry
     estimated scf accuracy    <       0.04628629 Ry

     iteration #  9     ecut=    30.00 Ry     beta= 0.50
     Davidson diagonalization with overlap
     ethr =  5.11E-06,  avg # of iterations =  3.0

     total cpu time spent up to now is        6.2 secs

     total energy              =    -500.84595699 Ry
     estimated scf accuracy    <       0.00401958 Ry

     iteration # 10     ecut=    30.00 Ry     beta= 0.50
     Davidson diagonalization with overlap
     ethr =  1.57E-06,  avg # of iterations =  3.0

     total cpu time spent up to now is        6.3 secs

     total energy              =    -500.84623337 Ry
     estimated scf accuracy    <       0.00170072 Ry

     iteration # 11     ecut=    30.00 Ry     beta= 0.50
     Davidson diagonalization with overlap
     ethr =  6.64E-07,  avg # of iterations =  2.0

     total cpu time spent up to now is        6.4 secs

     total energy              =    -500.84633529 Ry
     estimated scf accuracy    <       0.00131930 Ry

     iteration # 12     ecut=    30.00 Ry     beta= 0.50
     Davidson diagonalization with overlap
     ethr =  5.15E-07,  avg # of iterations =  2.0

     total cpu time spent up to now is        6.5 secs

     total energy              =    -500.84645107 Ry
     estimated scf accuracy    <       0.00030374 Ry

     iteration # 13     ecut=    30.00 Ry     beta= 0.50
     Davidson diagonalization with overlap
     ethr =  1.19E-07,  avg # of iterations =  2.0

     total cpu time spent up to now is        6.6 secs

     total energy              =    -500.84647709 Ry
     estimated scf accuracy    <       0.00009863 Ry

     iteration # 14     ecut=    30.00 Ry     beta= 0.50
     Davidson diagonalization with overlap
     ethr =  3.85E-08,  avg # of iterations =  2.0

     total cpu time spent up to now is        6.7 secs

     total energy              =    -500.84648534 Ry
     estimated scf accuracy    <       0.00006311 Ry

     iteration # 15     ecut=    30.00 Ry     beta= 0.50
     Davidson diagonalization with overlap
     ethr =  2.47E-08,  avg # of iterations =  2.0

     total cpu time spent up to now is        6.7 secs

     total energy              =    -500.84648861 Ry
     estimated scf accuracy    <       0.00000693 Ry

     iteration # 16     ecut=    30.00 Ry     beta= 0.50
     Davidson diagonalization with overlap
     ethr =  2.71E-09,  avg # of iterations =  5.0

     total cpu time spent up to now is        6.9 secs

     total energy              =    -500.84648994 Ry
     estimated scf accuracy    <       0.00001679 Ry

     iteration # 17     ecut=    30.00 Ry     beta= 0.50
     Davidson diagonalization with overlap
     ethr =  2.71E-09,  avg # of iterations =  2.0

     total cpu time spent up to now is        7.0 secs

     total energy              =    -500.84649092 Ry
     estimated scf accuracy    <       0.00000189 Ry

     iteration # 18     ecut=    30.00 Ry     beta= 0.50
     Davidson diagonalization with overlap
     ethr =  7.39E-10,  avg # of iterations =  3.0

     total cpu time spent up to now is        7.1 secs

     total energy              =    -500.84649108 Ry
     estimated scf accuracy    <       0.00000112 Ry

     iteration # 19     ecut=    30.00 Ry     beta= 0.50
     Davidson diagonalization with overlap
     ethr =  4.36E-10,  avg # of iterations =  2.0

     total cpu time spent up to now is        7.2 secs

     End of self-consistent calculation

          k = 0.0000 0.0000 0.0000 ( 11720 PWs)   bands (ev):

    -5.9823  -5.2738  -5.1868  -5.0572  -4.8547  -4.6639  -4.4571  -4.3157
    -4.2396  -4.0340  -3.9095  -3.7314  -3.6724  -3.5804  -3.4924  -3.3491
    -3.1333  -2.9701  -2.8714  -2.7718  -2.5619  -2.4830  -2.2129  -2.0536
    -1.9867  -1.8343  -1.7051  -1.5634  -1.4141  -1.3367  -1.0793  -1.0082
    -0.8085  -0.7420  -0.5342  -0.5016  -0.4176  -0.3472  -0.2900  -0.1539
    -0.0606   0.0122   0.1085   0.2045   0.3589   0.3903   0.4722   0.6246
     0.6674   0.7501   0.7918   0.8800   0.9762   1.0677   1.2108   1.2350
     1.3374   1.4587   1.5269   1.6746   1.7222   1.8275   1.9147   2.0592
     2.1475   2.2337   2.3633   2.4174   2.4616   2.6766   2.7335   2.8071
     2.8691   2.9058   2.9987   3.1881   3.2845   3.2997   3.3527   3.3861
     3.5720   3.7600   3.9001   3.9517   4.0145   4.1111   4.1279   4.2131
     4.2354   4.3541   4.3982   4.4162   4.4963   4.5858   4.6440   4.7554
     4.7988   4.8801   4.9120   4.9771   5.0218   5.0723   5.1176   5.2357
     5.3744   5.4027   5.4441   5.4671   5.5194   5.6057   5.6496   5.6953
     5.7471   5.8800   5.9421   5.9774   6.0161   6.0944   6.1534   6.1895
     6.2306   6.2585   6.3474   6.4953   6.5202   6.5869   6.6486   6.7225
     6.7996   6.8513   6.8844   6.9071   6.9777   7.0293   7.0721   7.1444
     7.1826   7.2238   7.3030   7.3516   7.3922   7.4796   7.5398   7.6078
     7.6750   7.7226   7.7830   7.9098   7.9555   7.9786   8.0802   8.1125
     8.1318   8.1801

     the Fermi energy is     6.7307 ev

!    total energy              =    -500.84649086 Ry
     estimated scf accuracy    <       0.00000045 Ry
     smearing contrib. (-TS)   =      -0.15311114 Ry
     internal energy E=F+TS    =    -500.69337972 Ry

     The total energy is F=E-TS. E is the sum of the following terms:
     one-electron contribution =     150.97048035 Ry
     hartree contribution      =      38.56997283 Ry
     xc contribution           =    -151.07842637 Ry
     ewald contribution        =    -539.15540653 Ry

     convergence has been achieved in  19 iterations

     Forces acting on atoms (cartesian axes, Ry/au):

     atom    1 type  1   force =     0.01637564    0.01021813    0.02494236
     atom    2 type  1   force =    -0.03715450   -0.04509076    0.04332416
     atom    3 type  1   force =    -0.04417927    0.01013298    0.04319639
     atom    4 type  1   force =     0.00986184   -0.00217151    0.03794191
     atom    5 type  1   force =    -0.01967238   -0.03277387   -0.15656881
     atom    6 type  1   force =    -0.03292142   -0.00320614   -0.03046499
     atom    7 type  1   force =     0.04875702   -0.01068126   -0.01588740
     atom    8 type  1   force =    -0.02375893   -0.01180607   -0.01111723
     atom    9 type  1   force =    -0.05172314    0.02934268   -0.01400024
     atom   10 type  1   force =     0.02646505    0.05064871    0.06538640
     atom   11 type  1   force =    -0.02028125   -0.00756504   -0.00914376
     atom   12 type  1   force =     0.01137799    0.00580875    0.01985461
     atom   13 type  1   force =     0.02862750    0.00833280   -0.01664267
     atom   14 type  1   force =    -0.07187367   -0.03031560   -0.03219321
     atom   15 type  1   force =     0.01086244    0.00875897   -0.00455097
     atom   16 type  1   force =     0.01018217   -0.04873535    0.02896959
     atom   17 type  1   force =     0.00970559   -0.00595828   -0.03288060
     atom   18 type  1   force =    -0.01844085    0.01725616   -0.01976212
     atom   19 type  1   force =     0.00688973   -0.00673777   -0.01549392
     atom   20 type  1   force =     0.01911517    0.00648730   -0.05509694
     atom   21 type  1   force =     0.00521855    0.05604758    0.04126772
     atom   22 type  1   force =     0.05486158    0.01580965   -0.00360617
     atom   23 type  1   force =    -0.03337193   -0.04153712   -0.05331101
     atom   24 type  1   force =     0.03879307    0.04557797   -0.02065559
     atom   25 type  1   force =     0.05884689    0.01246352   -0.01657549
     atom   26 type  1   force =    -0.03151835    0.00388082    0.03476526
     atom   27 type  1   force =    -0.01774701    0.00326634    0.00642710
     atom   28 type  1   force =    -0.04358670   -0.00687361    0.01538098
     atom   29 type  1   force =    -0.00724729    0.03490214    0.01900584
     atom   30 type  1   force =    -0.01850859    0.04118126   -0.00089546
     atom   31 type  1   force =     0.02822180    0.03008323   -0.00419568
     atom   32 type  1   force =    -0.05756616   -0.01911032   -0.00031869
     atom   33 type  1   force =     0.00858683    0.02336442   -0.00850267
     atom   34 type  1   force =    -0.07839249   -0.00392943   -0.00131050
     atom   35 type  1   force =    -0.04924603    0.02365323   -0.00091280
     atom   36 type  1   force =     0.03147442   -0.05529014    0.03279417
     atom   37 type  1   force =     0.06001119   -0.03426900    0.00203725
     atom   38 type  1   force =     0.03209790    0.02182556   -0.04970868
     atom   39 type  1   force =     0.03380080    0.03309983   -0.05601917
     atom   40 type  1   force =     0.03069109   -0.03085811    0.03160101
     atom   41 type  1   force =    -0.03138143    0.02400903    0.00950980
     atom   42 type  1   force =    -0.01037103    0.00263182   -0.03410631
     atom   43 type  1   force =     0.00323485   -0.00532153   -0.02235930
     atom   44 type  1   force =     0.05414000   -0.06407208   -0.02084249
     atom   45 type  1   force =    -0.00720260    0.01224412    0.00953864
     atom   46 type  1   force =    -0.01301283    0.05259137    0.01806118
     atom   47 type  1   force =    -0.03522552    0.00774659    0.01850021
     atom   48 type  1   force =    -0.01433215    0.02387924    0.14491775
     atom   49 type  1   force =     0.08438694    0.00296594    0.03578675
     atom   50 type  1   force =    -0.00168319    0.01460712   -0.02597783
     atom   51 type  1   force =     0.05829447   -0.04469931    0.01676253
     atom   52 type  1   force =     0.03562087    0.03441904    0.01973549
     atom   53 type  1   force =    -0.01549283   -0.12943057    0.00554898
     atom   54 type  1   force =    -0.00452210   -0.04024521    0.04641249
     atom   55 type  1   force =     0.05543511   -0.07499474   -0.00147473
     atom   56 type  1   force =    -0.01752425   -0.00145191   -0.00353305
     atom   57 type  1   force =    -0.05972739   -0.00166598    0.00087557
     atom   58 type  1   force =     0.04057647    0.05271856   -0.03514258
     atom   59 type  1   force =     0.02456769   -0.05841727    0.02133836
     atom   60 type  1   force =    -0.00706609   -0.00707080    0.02755049
     atom   61 type  1   force =    -0.02145260   -0.01504801   -0.00176639
     atom   62 type  1   force =    -0.02013983   -0.08563647   -0.02943675
     atom   63 type  1   force =    -0.01443341    0.03852218   -0.00600546
     atom   64 type  1   force =    -0.00632347    0.16648621   -0.01097329

     Total force =     0.529269     Total SCF correction =     0.001266


     Computing stress (Cartesian axis) and pressure

          total   stress  (Ry/bohr**3)                   (kbar)     P=       -2.37
  -0.00008458  -0.00003785  -0.00000332          -12.44       -5.57       -0.49
  -0.00003785   0.00006679   0.00002978           -5.57        9.83        4.38
  -0.00000332   0.00002978  -0.00003052           -0.49        4.38       -4.49

 
     init_run     :      1.10s CPU      4.95s WALL (       1 calls)
     electrons    :      1.97s CPU      2.13s WALL (       1 calls)
     forces       :      0.03s CPU      0.04s WALL (       1 calls)
     stress       :      0.15s CPU      0.16s WALL (       1 calls)

     Called by init_run:
     wfcinit      :      0.56s CPU      4.23s WALL (       1 calls)
                                        4.23s GPU  (       1 calls)
     potinit      :      0.05s CPU      0.15s WALL (       1 calls)
     hinit0       :      0.47s CPU      0.50s WALL (       1 calls)

     Called by electrons:
     c_bands      :      1.13s CPU      1.20s WALL (      20 calls)
     sum_band     :      0.41s CPU      0.45s WALL (      20 calls)
     v_of_rho     :      0.20s CPU      0.30s WALL (      20 calls)
     mix_rho      :      0.20s CPU      0.22s WALL (      20 calls)

     Called by c_bands:
     init_us_2    :      0.07s CPU      0.08s WALL (      41 calls)
     init_us_2:gp :      0.07s CPU      0.07s WALL (      41 calls)
     regterg      :      0.96s CPU      1.02s WALL (      20 calls)

     Called by *egterg:
     rdiaghg      :      0.37s CPU      1.13s WALL (      79 calls)
                                        1.12s GPU  (      79 calls)
     h_psi        :      0.95s CPU      3.92s WALL (      81 calls)
                                        3.92s GPU  (      81 calls)
     g_psi        :      0.00s CPU      0.00s WALL (      60 calls)
                                        0.00s GPU  (      60 calls)

     Called by h_psi:
     h_psi:calbec :      0.51s CPU      3.40s WALL (      81 calls)
                                        3.40s GPU  (      81 calls)
     vloc_psi     :      0.39s CPU      0.47s WALL (      81 calls)
                                        0.46s GPU  (      81 calls)
     add_vuspsi   :      0.03s CPU      0.05s WALL (      81 calls)
                                        0.05s GPU  (      81 calls)

     General routines
     calbec       :      0.52s CPU      3.40s WALL (      86 calls)
     fft          :      0.63s CPU      0.77s WALL (     167 calls)
                                        0.14s GPU  (     106 calls)
     ffts         :      0.05s CPU      0.05s WALL (      20 calls)
     fftw         :      0.49s CPU      0.64s WALL (    2088 calls)
                                        0.56s GPU  (    2088 calls)
 
     Parallel routines
 
     PWSCF        :      3.31s CPU      7.37s WALL

 
   This run was terminated on:  12:21:19  11May2023            

=------------------------------------------------------------------------------=
   JOB DONE.
=------------------------------------------------------------------------------=
