An instance of this daemon is already running

     Program PWSCF v.7.1 starts on 11May2023 at 12:33:44 

     This program is part of the open-source Quantum ESPRESSO suite
     for quantum simulation of materials; please cite
         "P. Giannozzi et al., J. Phys.:Condens. Matter 21 395502 (2009);
         "P. Giannozzi et al., J. Phys.:Condens. Matter 29 465901 (2017);
         "P. Giannozzi et al., J. Chem. Phys. 152 154105 (2020);
          URL http://www.quantum-espresso.org", 
     in publications or presentations arising from this work. More details at
     http://www.quantum-espresso.org/quote

     Parallel version (MPI & OpenMP), running on       4 processor cores
     Number of MPI processes:                 4
     Threads/MPI process:                     1

     MPI processes distributed on     1 nodes
     696752 MiB available memory on the printing compute node when the environment starts
 
     Reading input from pw-si-90.in
Warning: card &CELL ignored
Warning: card / ignored

     Current dimensions of program PWSCF are:
     Max number of different atomic species (ntypx) = 10
     Max number of k-points (npk) =  40000
     Max angular momentum in pseudopotentials (lmaxx) =  4

     IMPORTANT: XC functional enforced from input :
     Exchange-correlation= PBE
                           (   1   4   3   4   0   0   0)
     Any further DFT definition will be discarded
     Please, verify this is what you really want


     gamma-point specific algorithms are used
 
     K-points division:     npool     =       2
     R & G space division:  proc/nbgrp/npool/nimage =       2
     Subspace diagonalization in iterative solution of the eigenvalue problem:
     a serial algorithm will be used

     Message from routine divide_et_impera:
     suboptimal parallelization: some nodes have no k-points
 
     Parallelization info
     --------------------
     sticks:   dense  smooth     PW     G-vecs:    dense   smooth      PW
     Min        2198    2198    575               109610   109610   14709
     Max        2199    2199    578               109613   109613   14714
     Sum        4397    4397   1153               219223   219223   29423
 
     Using Slab Decomposition
 


     bravais-lattice index     =            0
     lattice parameter (alat)  =      21.4537  a.u.
     unit-cell volume          =    9874.3142 (a.u.)^3
     number of atoms/cell      =           64
     number of atomic types    =            1
     number of electrons       =       256.00
     number of Kohn-Sham states=          154
     kinetic-energy cutoff     =      30.0000  Ry
     charge density cutoff     =     120.0000  Ry
     scf convergence threshold =      1.0E-06
     mixing beta               =       0.5000
     number of iterations used =            8  plain     mixing
     Exchange-correlation= PBE
                           (   1   4   3   4   0   0   0)

     GPU acceleration is ACTIVE.
     GPU-aware MPI enabled

     Message from routine print_cuda_info:
     High GPU oversubscription detected. Are you sure this is what you want?

     celldm(1)=  21.453705  celldm(2)=   0.000000  celldm(3)=   0.000000
     celldm(4)=   0.000000  celldm(5)=   0.000000  celldm(6)=   0.000000

     crystal axes: (cart. coord. in units of alat)
               a(1) = (   1.000000   0.000000   0.000000 )  
               a(2) = (   0.000000   1.000000   0.000000 )  
               a(3) = (   0.000000   0.000000   1.000000 )  

     reciprocal axes: (cart. coord. in units 2 pi/alat)
               b(1) = (  1.000000  0.000000  0.000000 )  
               b(2) = (  0.000000  1.000000  0.000000 )  
               b(3) = (  0.000000  0.000000  1.000000 )  


     PseudoPot. # 1 for Si read from file:
     /home/ppiaggi/pseudos/Si_ONCV_PBE_sr.upf
     MD5 check sum: 8553c464762ac42b85b1eed164b4d029
     Pseudo is Norm-conserving, Zval =  4.0
     Generated using ONCVPSP code by D. R. Hamann
     Using radial grid of 1510 points,  4 beta functions with: 
                l(1) =   0
                l(2) =   0
                l(3) =   1
                l(4) =   1

     atomic species   valence    mass     pseudopotential
        Si             4.00    28.08500     Si( 1.00)

     No symmetry found



   Cartesian axes

     site n.     atom                  positions (alat units)
         1           Si  tau(   1) = (   0.9388450   0.4255440   0.6552120  )
         2           Si  tau(   2) = (   0.7764580   0.5153380   0.1418160  )
         3           Si  tau(   3) = (   0.7619750   0.9321700   0.3950080  )
         4           Si  tau(   4) = (   0.7144980   0.5064810   0.3370610  )
         5           Si  tau(   5) = (   0.9297580   0.2190040   0.5823740  )
         6           Si  tau(   6) = (   0.2341270   0.4642950   0.8225850  )
         7           Si  tau(   7) = (   0.9318670   0.1823930   0.0877818  )
         8           Si  tau(   8) = (   0.2734590   0.8258650   0.9939010  )
         9           Si  tau(   9) = (   0.6029990   0.8385820   0.2330010  )
        10           Si  tau(  10) = (   0.3125360   0.0473293   0.0167240  )
        11           Si  tau(  11) = (   0.9700510   0.1146620   0.8249790  )
        12           Si  tau(  12) = (   0.1134720   0.6668440   0.9474050  )
        13           Si  tau(  13) = (   0.5693710   0.3762190   0.7041680  )
        14           Si  tau(  14) = (   0.9612000   0.2396170   0.3451940  )
        15           Si  tau(  15) = (   0.6419180   0.1868970   0.9420820  )
        16           Si  tau(  16) = (   0.7491190   0.4148890   0.5698360  )
        17           Si  tau(  17) = (   0.5090260   0.1171120   0.1181480  )
        18           Si  tau(  18) = (   0.7829150   0.2618150   0.7974380  )
        19           Si  tau(  19) = (   0.6596850   0.7941030   0.5393710  )
        20           Si  tau(  20) = (   0.2767440   0.1495770   0.8001240  )
        21           Si  tau(  21) = (   0.4495250   0.0924993   0.7023790  )
        22           Si  tau(  22) = (   0.8338440   0.6330550   0.5578430  )
        23           Si  tau(  23) = (   0.4525460   0.8904130   0.5474960  )
        24           Si  tau(  24) = (   0.2736120   0.4204050   0.0937330  )
        25           Si  tau(  25) = (   0.1740100   0.5689140   0.2068090  )
        26           Si  tau(  26) = (   0.2250440   0.2064090   0.1292620  )
        27           Si  tau(  27) = (   0.9410440   0.9480640   0.9470000  )
        28           Si  tau(  28) = (   0.6390740   0.0910131   0.2574940  )
        29           Si  tau(  29) = (   0.4479780   0.7444100   0.0654567  )
        30           Si  tau(  30) = (   0.7313290   0.2607730   0.4286840  )
        31           Si  tau(  31) = (   0.2846100   0.3239200   0.5833920  )
        32           Si  tau(  32) = (   0.3271530   0.2707570   0.3008790  )
        33           Si  tau(  33) = (   0.1255080   0.8069570   0.5946470  )
        34           Si  tau(  34) = (   0.4571520   0.3457300   0.0161664  )
        35           Si  tau(  35) = (   0.9448680   0.7535310   0.0864799  )
        36           Si  tau(  36) = (   0.3894580   0.3217780   0.8157340  )
        37           Si  tau(  37) = (   0.3284250   0.6090000   0.9691920  )
        38           Si  tau(  38) = (   0.9415250   0.8529990   0.2744980  )
        39           Si  tau(  39) = (   0.5105390   0.8751680   0.7389570  )
        40           Si  tau(  40) = (   0.1067450   0.4672430   0.3878500  )
        41           Si  tau(  41) = (   0.2496900   0.9140320   0.3455350  )
        42           Si  tau(  42) = (   0.8143290   0.4177500   0.9607760  )
        43           Si  tau(  43) = (   0.1410680   0.8057240   0.1816490  )
        44           Si  tau(  44) = (   0.2787040   0.6350580   0.4304570  )
        45           Si  tau(  45) = (   0.1380000   0.5302700   0.6480410  )
        46           Si  tau(  46) = (   0.3060830   0.7388850   0.7086380  )
        47           Si  tau(  47) = (   0.4459800   0.5513570   0.7968080  )
        48           Si  tau(  48) = (   0.1230700   0.2531560   0.4482780  )
        49           Si  tau(  49) = (   0.7290870   0.2745520   0.1393960  )
        50           Si  tau(  50) = (   0.6454070   0.6946370   0.3876730  )
        51           Si  tau(  51) = (   0.9049660   0.5070930   0.4282820  )
        52           Si  tau(  52) = (   0.0585278   0.0506191   0.5145680  )
        53           Si  tau(  53) = (   0.3867410   0.4381440   0.4457390  )
        54           Si  tau(  54) = (   0.0660390   0.3693310   0.1567250  )
        55           Si  tau(  55) = (   0.5887100   0.3455550   0.2625630  )
        56           Si  tau(  56) = (   0.0797185   0.3157780   0.9549700  )
        57           Si  tau(  57) = (   0.3798940   0.5913440   0.2274020  )
        58           Si  tau(  58) = (   0.0377816   0.6724410   0.7475370  )
        59           Si  tau(  59) = (   0.7044560   0.6750320   0.0081618  )
        60           Si  tau(  60) = (   0.0157487   0.6885010   0.4547250  )
        61           Si  tau(  61) = (   0.8437470   0.9924920   0.1532830  )
        62           Si  tau(  62) = (   0.1403110   0.9572580   0.8456700  )
        63           Si  tau(  63) = (   0.6446620   0.5056300   0.8844830  )
        64           Si  tau(  64) = (   0.4154990   0.7725020   0.3283720  )

     number of k points=     1  Fermi-Dirac smearing, width (Ry)=  0.0100
                       cart. coord. in units 2pi/alat
        k(    1) = (   0.0000000   0.0000000   0.0000000), wk =   2.0000000

     Dense  grid:   109612 G-vectors     FFT dimensions: (  75,  75,  75)

     Estimated max dynamical RAM per process >     174.49 MB

     Estimated total dynamical RAM >     671.19 MB

     Initial potential from superposition of free atoms

     starting charge     255.9608, renormalised to     256.0000
     Starting wfcs are  256 randomized atomic wfcs

     total cpu time spent up to now is        4.7 secs

     Self-consistent Calculation

     iteration #  1     ecut=    30.00 Ry     beta= 0.50
     Davidson diagonalization with overlap
     ethr =  1.00E-02,  avg # of iterations =  3.0

     Threshold (ethr) on eigenvalues was too large:
     Diagonalizing with lowered threshold

     Davidson diagonalization with overlap
     ethr =  5.98E-04,  avg # of iterations =  4.0

     total cpu time spent up to now is        5.0 secs

     total energy              =    -499.81475822 Ry
     estimated scf accuracy    <       2.09348966 Ry

     iteration #  2     ecut=    30.00 Ry     beta= 0.50
     Davidson diagonalization with overlap
     ethr =  8.18E-04,  avg # of iterations =  5.0

     total cpu time spent up to now is        5.2 secs

     total energy              =    -498.67164111 Ry
     estimated scf accuracy    <      18.35022740 Ry

     iteration #  3     ecut=    30.00 Ry     beta= 0.50
     Davidson diagonalization with overlap
     ethr =  8.18E-04,  avg # of iterations =  4.0

     total cpu time spent up to now is        5.3 secs

     total energy              =    -500.27901755 Ry
     estimated scf accuracy    <       2.37934200 Ry

     iteration #  4     ecut=    30.00 Ry     beta= 0.50
     Davidson diagonalization with overlap
     ethr =  8.18E-04,  avg # of iterations =  2.0

     total cpu time spent up to now is        5.4 secs

     total energy              =    -500.46189190 Ry
     estimated scf accuracy    <       0.59347937 Ry

     iteration #  5     ecut=    30.00 Ry     beta= 0.50
     Davidson diagonalization with overlap
     ethr =  2.32E-04,  avg # of iterations =  2.0

     total cpu time spent up to now is        5.5 secs

     total energy              =    -500.49022742 Ry
     estimated scf accuracy    <       0.70183501 Ry

     iteration #  6     ecut=    30.00 Ry     beta= 0.50
     Davidson diagonalization with overlap
     ethr =  2.32E-04,  avg # of iterations =  1.0

     total cpu time spent up to now is        5.6 secs

     total energy              =    -500.54541956 Ry
     estimated scf accuracy    <       0.08462420 Ry

     iteration #  7     ecut=    30.00 Ry     beta= 0.50
     Davidson diagonalization with overlap
     ethr =  3.31E-05,  avg # of iterations =  2.0

     total cpu time spent up to now is        5.8 secs

     total energy              =    -500.55610781 Ry
     estimated scf accuracy    <       0.02884044 Ry

     iteration #  8     ecut=    30.00 Ry     beta= 0.50
     Davidson diagonalization with overlap
     ethr =  1.13E-05,  avg # of iterations = 12.0

     total cpu time spent up to now is        6.0 secs

     total energy              =    -500.55772743 Ry
     estimated scf accuracy    <       0.04048041 Ry

     iteration #  9     ecut=    30.00 Ry     beta= 0.50
     Davidson diagonalization with overlap
     ethr =  1.13E-05,  avg # of iterations =  2.0

     total cpu time spent up to now is        6.1 secs

     total energy              =    -500.56086374 Ry
     estimated scf accuracy    <       0.00533263 Ry

     iteration # 10     ecut=    30.00 Ry     beta= 0.50
     Davidson diagonalization with overlap
     ethr =  2.08E-06,  avg # of iterations = 15.0

     total cpu time spent up to now is        6.3 secs

     total energy              =    -500.56144090 Ry
     estimated scf accuracy    <       0.00186532 Ry

     iteration # 11     ecut=    30.00 Ry     beta= 0.50
     Davidson diagonalization with overlap
     ethr =  7.29E-07,  avg # of iterations =  3.0

     total cpu time spent up to now is        6.4 secs

     total energy              =    -500.56142980 Ry
     estimated scf accuracy    <       0.00309705 Ry

     iteration # 12     ecut=    30.00 Ry     beta= 0.50
     Davidson diagonalization with overlap
     ethr =  7.29E-07,  avg # of iterations =  2.0

     total cpu time spent up to now is        6.5 secs

     total energy              =    -500.56164992 Ry
     estimated scf accuracy    <       0.00076434 Ry

     iteration # 13     ecut=    30.00 Ry     beta= 0.50
     Davidson diagonalization with overlap
     ethr =  2.99E-07,  avg # of iterations =  2.0

     total cpu time spent up to now is        6.7 secs

     total energy              =    -500.56172127 Ry
     estimated scf accuracy    <       0.00025237 Ry

     iteration # 14     ecut=    30.00 Ry     beta= 0.50
     Davidson diagonalization with overlap
     ethr =  9.86E-08,  avg # of iterations =  2.0

     total cpu time spent up to now is        6.8 secs

     total energy              =    -500.56173891 Ry
     estimated scf accuracy    <       0.00006772 Ry

     iteration # 15     ecut=    30.00 Ry     beta= 0.50
     Davidson diagonalization with overlap
     ethr =  2.65E-08,  avg # of iterations =  3.0

     total cpu time spent up to now is        6.9 secs

     total energy              =    -500.56174619 Ry
     estimated scf accuracy    <       0.00005003 Ry

     iteration # 16     ecut=    30.00 Ry     beta= 0.50
     Davidson diagonalization with overlap
     ethr =  1.95E-08,  avg # of iterations =  2.0

     total cpu time spent up to now is        7.0 secs

     total energy              =    -500.56174967 Ry
     estimated scf accuracy    <       0.00002462 Ry

     iteration # 17     ecut=    30.00 Ry     beta= 0.50
     Davidson diagonalization with overlap
     ethr =  9.62E-09,  avg # of iterations =  1.0

     total cpu time spent up to now is        7.1 secs

     total energy              =    -500.56175162 Ry
     estimated scf accuracy    <       0.00000298 Ry

     iteration # 18     ecut=    30.00 Ry     beta= 0.50
     Davidson diagonalization with overlap
     ethr =  1.16E-09,  avg # of iterations =  4.0

     total cpu time spent up to now is        7.3 secs

     total energy              =    -500.56175205 Ry
     estimated scf accuracy    <       0.00000460 Ry

     iteration # 19     ecut=    30.00 Ry     beta= 0.50
     Davidson diagonalization with overlap
     ethr =  1.16E-09,  avg # of iterations =  2.0

     total cpu time spent up to now is        7.4 secs

     total energy              =    -500.56175235 Ry
     estimated scf accuracy    <       0.00000141 Ry

     iteration # 20     ecut=    30.00 Ry     beta= 0.50
     Davidson diagonalization with overlap
     ethr =  5.49E-10,  avg # of iterations =  2.0

     total cpu time spent up to now is        7.5 secs

     End of self-consistent calculation

          k = 0.0000 0.0000 0.0000 ( 13685 PWs)   bands (ev):

    -7.3340  -6.9298  -6.2959  -6.2520  -6.2134  -5.7761  -5.6549  -5.6062
    -5.4784  -5.2992  -5.1652  -5.0543  -4.8779  -4.7451  -4.6024  -4.4757
    -4.3136  -4.1541  -4.1224  -3.9409  -3.8319  -3.6994  -3.3847  -3.3171
    -3.2194  -3.1294  -2.9639  -2.8114  -2.7107  -2.5804  -2.5110  -2.4265
    -2.2853  -2.1439  -2.0723  -1.9384  -1.8803  -1.7162  -1.6792  -1.6721
    -1.5629  -1.3959  -1.3262  -1.2594  -1.1593  -1.0761  -0.9816  -0.8796
    -0.7499  -0.6700  -0.6180  -0.3967  -0.2776  -0.2056  -0.0802  -0.0670
     0.0689   0.1026   0.1870   0.3893   0.5380   0.5693   0.6759   0.7150
     0.8989   1.0008   1.0780   1.1533   1.2890   1.3297   1.4392   1.4804
     1.5905   1.7024   1.8368   1.8902   1.9343   2.0121   2.0362   2.0623
     2.1167   2.1812   2.3158   2.4061   2.4562   2.5164   2.5932   2.6168
     2.7366   2.7927   2.8545   2.9199   2.9670   3.0002   3.0734   3.1612
     3.2183   3.2941   3.4077   3.4623   3.5257   3.5676   3.6394   3.6709
     3.7201   3.7969   3.8400   3.9136   3.9893   4.0520   4.1095   4.1508
     4.2388   4.2703   4.3057   4.3791   4.4163   4.4681   4.5075   4.6028
     4.6356   4.6800   4.7018   4.7619   4.8063   4.8716   5.0093   5.0233
     5.1210   5.1468   5.1723   5.1933   5.3138   5.3420   5.3881   5.4655
     5.4968   5.5604   5.6000   5.7219   5.7435   5.8314   5.8701   5.9741
     6.0480   6.1250   6.1507   6.2122   6.2785   6.3473   6.4316   6.4676
     6.5259   6.5757

     the Fermi energy is     5.0453 ev

!    total energy              =    -500.56175216 Ry
     estimated scf accuracy    <       0.00000048 Ry
     smearing contrib. (-TS)   =      -0.15908083 Ry
     internal energy E=F+TS    =    -500.40267133 Ry

     The total energy is F=E-TS. E is the sum of the following terms:
     one-electron contribution =      20.38586456 Ry
     hartree contribution      =      88.68082699 Ry
     xc contribution           =    -148.21772123 Ry
     ewald contribution        =    -461.25164165 Ry

     convergence has been achieved in  20 iterations

     Forces acting on atoms (cartesian axes, Ry/au):

     atom    1 type  1   force =     0.01281785   -0.01509229    0.00579881
     atom    2 type  1   force =     0.00275888    0.00749540   -0.02288251
     atom    3 type  1   force =    -0.01241331   -0.01256750   -0.01270674
     atom    4 type  1   force =    -0.00047079   -0.01137176    0.01334585
     atom    5 type  1   force =     0.00672180   -0.01552203   -0.00626015
     atom    6 type  1   force =    -0.01184417   -0.00812201    0.02090086
     atom    7 type  1   force =    -0.01562138    0.00996414    0.01156786
     atom    8 type  1   force =    -0.05255119    0.04460133   -0.00112206
     atom    9 type  1   force =     0.00372099    0.01008429   -0.00673255
     atom   10 type  1   force =     0.00317007    0.00424223   -0.02179251
     atom   11 type  1   force =    -0.00385094    0.02059537    0.00221205
     atom   12 type  1   force =     0.00926082    0.02559949    0.00709762
     atom   13 type  1   force =     0.02350605    0.01499485    0.01132438
     atom   14 type  1   force =    -0.08072427   -0.00592005   -0.04019416
     atom   15 type  1   force =    -0.02062685    0.01526558    0.04549524
     atom   16 type  1   force =    -0.02981448    0.01683570    0.02065858
     atom   17 type  1   force =    -0.06260660    0.03307280   -0.08752308
     atom   18 type  1   force =     0.01084645    0.02126952    0.00176129
     atom   19 type  1   force =     0.02173152    0.09701219    0.12637631
     atom   20 type  1   force =    -0.02874094   -0.05211777    0.03225357
     atom   21 type  1   force =     0.01823305   -0.01331511   -0.01802142
     atom   22 type  1   force =    -0.03968856    0.05633507    0.08098732
     atom   23 type  1   force =    -0.02161314   -0.00533269   -0.04354876
     atom   24 type  1   force =     0.03249505   -0.00438103   -0.00926732
     atom   25 type  1   force =    -0.02923972    0.03649253    0.01804768
     atom   26 type  1   force =    -0.01144686    0.02560293   -0.01804354
     atom   27 type  1   force =     0.00851038   -0.00594186    0.02837949
     atom   28 type  1   force =     0.08897938   -0.03650968    0.05384466
     atom   29 type  1   force =     0.04316775   -0.01185814    0.03967365
     atom   30 type  1   force =     0.03231013   -0.00989520   -0.02729757
     atom   31 type  1   force =    -0.03347158   -0.00612419    0.02222235
     atom   32 type  1   force =    -0.00912225    0.02780135    0.02788528
     atom   33 type  1   force =     0.01401429    0.03675581    0.02002038
     atom   34 type  1   force =     0.03829465   -0.01238212    0.00366933
     atom   35 type  1   force =     0.00288404    0.01397021   -0.01816701
     atom   36 type  1   force =     0.01535987    0.00917943   -0.00503423
     atom   37 type  1   force =    -0.01997645   -0.04570584   -0.01014399
     atom   38 type  1   force =     0.00374886   -0.00997331    0.02489843
     atom   39 type  1   force =    -0.01475018   -0.00881152    0.02690174
     atom   40 type  1   force =     0.01181675    0.00288299   -0.00004271
     atom   41 type  1   force =    -0.00851169   -0.01367624    0.00266737
     atom   42 type  1   force =     0.01204570   -0.04159581   -0.00923269
     atom   43 type  1   force =     0.01105810   -0.01205407    0.00440634
     atom   44 type  1   force =    -0.02835368   -0.01981199    0.01513918
     atom   45 type  1   force =     0.02192859   -0.04272954   -0.04362106
     atom   46 type  1   force =     0.01015266    0.00270456   -0.00317511
     atom   47 type  1   force =    -0.00101120    0.01342864   -0.00991354
     atom   48 type  1   force =     0.08590843   -0.01223645    0.04303336
     atom   49 type  1   force =     0.04889477   -0.03756459   -0.06761850
     atom   50 type  1   force =    -0.03845760   -0.05902991   -0.14048427
     atom   51 type  1   force =     0.04224988   -0.07057191   -0.06458104
     atom   52 type  1   force =    -0.00466266   -0.00190108   -0.00154122
     atom   53 type  1   force =     0.01158418    0.00840467   -0.04447101
     atom   54 type  1   force =    -0.02124599   -0.00858395    0.03527354
     atom   55 type  1   force =    -0.04256709    0.02163614    0.02716932
     atom   56 type  1   force =     0.00306062   -0.02195313   -0.02325457
     atom   57 type  1   force =     0.03169473   -0.03200943   -0.02120034
     atom   58 type  1   force =    -0.01962160    0.04290391    0.00806709
     atom   59 type  1   force =    -0.00726095   -0.02341502    0.01406185
     atom   60 type  1   force =     0.02141011    0.01951603   -0.03213007
     atom   61 type  1   force =    -0.01425863    0.01485810   -0.00876302
     atom   62 type  1   force =     0.00742389    0.00285417    0.00072187
     atom   63 type  1   force =    -0.03385003   -0.00404626    0.00465934
     atom   64 type  1   force =     0.00661450    0.03576409    0.01824476

     Total force =     0.444831     Total SCF correction =     0.001252


     Computing stress (Cartesian axis) and pressure

          total   stress  (Ry/bohr**3)                   (kbar)     P=      -38.02
  -0.00027980  -0.00000475   0.00001499          -41.16       -0.70        2.20
  -0.00000475  -0.00030169   0.00007886           -0.70      -44.38       11.60
   0.00001499   0.00007886  -0.00019383            2.20       11.60      -28.51

 
     init_run     :      0.91s CPU      4.62s WALL (       1 calls)
     electrons    :      2.67s CPU      2.82s WALL (       1 calls)
     forces       :      0.04s CPU      0.04s WALL (       1 calls)
     stress       :      0.18s CPU      0.19s WALL (       1 calls)

     Called by init_run:
     wfcinit      :      0.68s CPU      4.24s WALL (       1 calls)
                                        4.24s GPU  (       1 calls)
     potinit      :      0.06s CPU      0.14s WALL (       1 calls)
     hinit0       :      0.14s CPU      0.17s WALL (       1 calls)

     Called by electrons:
     c_bands      :      1.56s CPU      1.62s WALL (      21 calls)
     sum_band     :      0.55s CPU      0.60s WALL (      21 calls)
     v_of_rho     :      0.25s CPU      0.34s WALL (      21 calls)
     mix_rho      :      0.25s CPU      0.27s WALL (      21 calls)

     Called by c_bands:
     init_us_2    :      0.08s CPU      0.08s WALL (      43 calls)
     init_us_2:gp :      0.08s CPU      0.08s WALL (      43 calls)
     regterg      :      1.37s CPU      1.43s WALL (      21 calls)

     Called by *egterg:
     rdiaghg      :      0.43s CPU      1.17s WALL (      95 calls)
                                        1.15s GPU  (      95 calls)
     h_psi        :      1.40s CPU      4.26s WALL (      97 calls)
                                        4.26s GPU  (      97 calls)
     g_psi        :      0.00s CPU      0.00s WALL (      75 calls)
                                        0.00s GPU  (      75 calls)

     Called by h_psi:
     h_psi:calbec :      0.64s CPU      3.41s WALL (      97 calls)
                                        3.40s GPU  (      97 calls)
     vloc_psi     :      0.70s CPU      0.78s WALL (      97 calls)
                                        0.78s GPU  (      97 calls)
     add_vuspsi   :      0.04s CPU      0.06s WALL (      97 calls)
                                        0.06s GPU  (      97 calls)

     General routines
     calbec       :      0.64s CPU      3.41s WALL (     102 calls)
     fft          :      0.39s CPU      0.51s WALL (     175 calls)
                                        0.13s GPU  (     111 calls)
     ffts         :      0.09s CPU      0.09s WALL (      21 calls)
     fftw         :      0.77s CPU      0.99s WALL (    2211 calls)
                                        0.90s GPU  (    2211 calls)
 
     Parallel routines
 
     PWSCF        :      3.85s CPU      7.77s WALL

 
   This run was terminated on:  12:33:52  11May2023            

=------------------------------------------------------------------------------=
   JOB DONE.
=------------------------------------------------------------------------------=
