-0.0044619172722963904 -0.008598371875149773 -0.008600570947240604 0.009530778441662177 2.771298137266543 2.7515889536524685 2.7500023231389337 0.008153059776756465 2.7437591574730646 2.7482067807767705 2.770254677559443 0.003356883546653741 1.3798055843199104 1.3838441802147217 1.3703792618025625 5.505594687532762 -0.002362902961598064 0.009873833687831837 5.503498971830199 2.7559914959783125 2.7588096068627124 6.879633205294467 1.3741924528080638 1.377749451914983 8.239916527128024 -0.003721929513731711 2.7436184168592512 8.246391694899476 2.7643237801304723 0.0008730316200599641 -0.003971524196041046 5.521166317007936 -0.0027015600635860604 2.756256484165258 5.533626259474585 2.753585711110943 1.3819859642979695 6.902815823276009 1.3682021804326399 4.122766478624003 4.148892554599122 1.3757504953844177 5.506337973899462 5.526836624394145 0.0029082728401241876 6.8674338528705805 6.910679705072821 1.378505932714229 9.617638490641871 4.152770618231304 1.3713952331085266 8.251547419416429 5.522263653981261 2.761662902900566 0.0007465849748371733 8.293657450883755 2.747581144766929 2.7551866355930685 8.287478058308519 -0.0029192682005783435 4.119272153071672 9.667466165611968 1.3756537362124213 5.4990084666207215 8.290850335359808 2.756746877241513 8.238776308248928 8.27964496352098 0.004482808457159287 9.614317891784717 9.66289209566304 1.3818683139411099 -0.0027422428972664363 -0.007067817699931297 5.501561589318177 2.746708113146869 2.771813819671843 5.507397926647243 1.3834967268243705 1.3773316282177255 6.880719546907336 4.118748773914055 1.3749346396387194 4.129327410206998 5.5040014598029545 0.002856594645989656 5.499662690567744 6.865201794698388 1.3783300069469628 6.890543901473126 9.6265535288981 1.3881191763592975 4.136336952496522 8.240471792830958 2.758801910110395 5.500503835642486 1.3746784477401377 4.1358113742668134 4.1341169892208285 -0.00548778440266912 5.524258212367645 5.508321536925391 1.371129145385536 6.9094284330531375 6.872282806830864 6.876165268607226 4.150888212521552 4.13643591074061 4.117316078446878 6.902579423026244 4.128263059315035 4.123341535975755 4.133139501676454 6.8741883027975685 5.488534286252093 5.5331215724297405 5.512508570186334 6.862389181494215 6.903050024453682 6.876723832918297 9.62628524210302 6.895243318531231 4.121308493827782 9.626622799668962 4.134870171411937 6.8784479054375085 1.3645715124106776 9.669903837024656 4.127114044147576 2.7436799908777942 8.29306370141923 5.50510319492046 6.871673663861703 9.666949383670623 4.133676075266616 4.12465218294189 9.67607883145571 6.876680951012526 8.253848748359484 8.283723142713425 5.4976274493476796 9.617298734003839 9.673858868180014 6.886915432523254 -0.008810582331914977 2.7587216439790794 8.251812407603374 2.745227038093694 -0.009251496286126622 8.262101865916373 4.122665321307824 1.3733216202600946 9.637244317867676 5.49298630769998 2.766826324169838 8.24809597576987 8.248861252857479 -0.005362437293491744 8.253251700286823 9.622404979398748 1.3734898492750434 9.636170071151305 1.3775086535210372 4.1365194754800605 9.6376104633708 2.75033658209674 5.522159198056946 8.251174676697033 6.862459551801121 4.135968607921308 9.630315041709467 4.133270346465857 6.904970913925022 9.642990493241019 8.254093944897612 5.523447854302174 8.26566216363143 9.625733275008221 6.90017473769492 9.626958158162815 0.0006619206993401743 8.29046879635205 8.262629643218173 1.3782156551982394 9.658098118505029 9.631713651559236 5.505473738567765 8.294496396886407 8.265382881475894 6.872286105439 9.677001342197812 9.640172382356617
0.0074792736431082306 -0.0022348558933584046 0.006787217676131367 -0.00156704392522468 2.755901304495453 2.732295363621868 2.7448592650223507 0.005180501752799734 2.736195341435771 2.7466665449361116 2.744803063025033 -0.00202327190345465 1.3856393058808436 1.3708218145878963 1.3658859568234227 5.493870865846563 -0.008190063609191155 0.0009245779558815097 5.493453207866493 2.742008391158387 2.7444416070422806 6.883580959533159 1.3727271724969774 1.3804742321273076 8.260735967818851 0.00814818761118937 2.73916743529395 8.249815148339964 2.7431941431018063 0.009622663540831158 -0.006997699666087707 5.488954844081142 -0.007798853627858693 2.753484618610771 5.488791748088925 2.733691597555243 1.3699743766283339 6.869377282210921 1.372585014503761 4.129144212967821 4.1147157276563116 1.367043056768209 5.4968594897039535 5.500665797522326 -0.004086215805016255 6.873696020004842 6.863871690473634 1.3767902463030979 9.62382284477584 4.117002377547198 1.3698013626365897 8.26254875773235 5.498834273609722 2.7334326275676006 -0.002007843904190835 8.237310754936642 2.74753712489457 2.7586298563652534 8.250964534285119 0.005864843720144689 4.12095414935863 9.614524169219548 1.3688580506816022 5.506755449231743 8.245861172528638 2.738493011326132 8.251895724240685 8.244967450571284 -0.00226460989193862 9.62591995067577 9.611101357382875 1.3722841685181166 0.006340907697428136 -0.00809088361392377 5.48508462026582 2.744587071035339 2.7428800731167926 5.473910340799027 1.3831961719974235 1.3762392463293904 6.851498435064055 4.128740880987067 1.3764838903177166 4.1152512996307555 5.512868242940057 0.005120993755639303 5.479544866530163 6.869450014207452 1.3645591488867346 6.863214898504975 9.633135846331447 1.3806714901178951 4.1164326435743845 8.258764489912926 2.7578408244029036 5.474931894750282 1.367929064725931 4.127221223059581 4.116896585552246 -0.0013741939344269873 5.49383339784835 5.48818013811811 1.3688470306821279 6.872824338046437 6.846380747308258 6.882304843594052 4.1212803413430645 4.113707397704426 4.134955058690543 6.878580083771788 4.1067559820361295 4.119171113443712 4.129139804968031 6.854343798928281 5.5088073731338305 5.496791165707213 5.487061608171483 6.872007756085402 6.865292168405853 6.858367200736295 9.623674074782938 6.867823462285066 4.1212054053466405 9.633615216308572 4.122070475305361 6.845858399333182 1.3766117223116168 9.613672323260197 4.119614117422572 2.754349688569492 8.240146200801343 5.4855132982453645 6.880051253701588 9.629482716505764 4.113916777694436 4.13708742858879 9.616702823115588 6.848404019211712 8.249762252342489 8.249269658365995 5.477130384645376 9.639841516011469 9.614980397197778 6.851131469081565 0.007488089642687553 2.7574727564204675 8.233190377133257 2.7572865184293542 -0.004547953782983302 8.234458779072732 4.124689929180367 1.366762046781618 9.59575380411522 5.498606159620607 2.7487768748354124 8.215807429962727 8.246015452521277 0.0071233276600930606 8.230399011266453 9.62521687470932 1.3748507263956469 9.588529092459966 1.3853450718948837 4.113133255731823 9.601680359832422 2.7467899689302224 5.498996267601991 8.229344397316778 6.881589645628178 4.120227931393283 9.60481885568266 4.123698129227694 6.862996702515386 9.600375591894682 8.261660545774733 5.492134113929436 8.232704395156446 9.632447096364311 6.872678874053379 9.597552268029403 -0.007385603647577923 8.247908688430936 8.229366437315726 1.3754568263667255 9.62298201881596 9.58727391451986 5.508455835150605 8.24442416459721 8.227476507405907 6.888599467293688 9.617325453085877 9.592809260255727
0.005445956416174599 0.007054342016367701 0.003878081549274313 -0.002955093761008292 2.703284517283574 2.741036141173743 2.724071997886206 0.006414929361151384 2.7402182623151017 2.72146836210863 2.712227535379134 0.0017069252217161643 1.357381096710822 1.3492614318973215 1.369823366255134 5.4564859221766815 -0.002013492933121248 -0.00769375467158402 5.4641249326140855 2.7111534535045325 2.745609474497097 6.8151381800051505 1.3568533622933316 1.3737375789989665 8.180633467106055 -0.0073346324953666355 2.737494189222331 8.192325740642108 2.716119850429295 -0.006027340183160671 0.007483536812334819 5.424438647488014 0.005417489414401271 2.7205617975906176 5.421549246808022 2.755401028222438 1.3660087880175078 6.7709157876349675 1.3724883155749912 4.085332271030985 4.061758308908619 1.3650748513824058 5.464824563926899 5.410755873597195 0.0050058127733715865 6.816696200909898 6.76582566874096 1.3644923727307363 9.545758683183907 4.066688574638822 1.3688500137714228 8.192671724202123 5.418722254554993 2.7467963294941082 0.0006470768480014452 8.129644687391288 2.744238678873243 2.722207409270053 8.133904883695136 0.0047835511826029 4.0920209215630345 9.486678705657411 1.3665759382836071 5.4533852087527555 8.132264746439118 2.752144841173443 8.175148094841271 8.131937375918724 -0.007530616853729172 9.53923536023908 9.491935247023324 1.3792328052259026 -0.005813837669860701 -0.009130243376453557 5.494735718597883 2.723217987833006 2.718558158619649 5.494671120401552 1.3606044372193096 1.348040635475119 6.864409085651366 4.0916158142301065 1.3517665280533746 4.1195331838922735 5.460475681963682 0.00854010053199877 5.503063411501265 6.822243981601647 1.362036546385445 6.860091955343972 9.538032081971814 1.3498756622048154 4.124305786228041 8.191461876626756 2.714071321186299 5.499486423239979 1.3564055544577436 4.068413018015476 4.123482432945981 -0.008979149290118194 5.408845299824331 5.492713466587293 1.3557037333755628 6.780724859515246 6.859710935474082 6.816356786657986 4.066954631616935 4.124075860444487 4.091967272213538 6.782721929178114 4.124177684720061 4.100392409853761 4.07147650536016 6.86788753429113 5.45423155461317 5.418023718126863 5.488681006297633 6.825156374859995 6.765488444258414 6.862933181097887 9.543345557341274 6.768602296298543 4.126826210769664 9.542869282503913 4.063874721001997 6.8699327788800755 1.3647507655160636 9.478884221594937 4.115971524016557 2.720409608619599 8.130474609981448 5.4995696344759315 6.810749882193324 9.480470709501459 4.120841571089163 4.085124242941104 9.485086743327473 6.863618578909813 8.191692897294994 8.133658534641327 5.489949977645913 9.554130171474633 9.488531250542046 6.873214148276793 0.004359830810053731 2.7187672815942143 8.235849596584162 2.7332985911148153 0.004115671525613253 8.230243787004182 4.083020969463928 1.3582449607261742 9.604289028599238 5.462282241691605 2.7130771658935995 8.231346335880557 8.173800291795771 0.009262724423167897 8.24702508454956 9.543691540901289 1.3488399012941397 9.615658311153632 1.3613445792654162 4.058110153142898 9.606328798764766 2.7324073549823735 5.413104401243495 8.236902875649774 6.809624340738593 4.060182769848933 9.605605079988912 4.096090607931937 6.770069441774552 9.619211211951882 8.192334499719577 5.42353755739342 8.247519972426543 9.55654548708663 6.7759741548731505 9.62138236827944 -0.0015711595209510557 8.133654155102592 8.249311203768896 1.3694489156933463 9.489759711157033 9.623023600420138 5.4543465175049475 8.136699029407657 8.231174438985233 6.818656044493524 9.491557511807487 9.605001798528255
0.006778646466573066 0.0005318309109776891 -0.002672340445243264 0.006353401502630161 2.741227931753622 2.7431904317680975 2.754872031798271 -0.0023130249330744535 2.736198613407455 2.7454485154913604 2.742550916085889 -0.0019668953112604616 1.3721951738951932 1.3794089547434751 1.3669263118742467 5.503851069432134 0.0043513438170901825 -0.00219325309568485 5.503124746638423 2.7430596716887456 2.7369677903448193 6.886979544079863 1.3768761649711538 1.365570362816093 8.260771309532187 0.008875203032989245 2.7462352736158646 8.263203007478454 2.7476835239065025 -0.0057710246786256665 -0.007669792889719566 5.498723955732502 0.0006581956935447019 2.7593860015964036 5.4852259993059524 2.733616376546303 1.3821604105308471 6.877813152634872 1.3633891967865666 4.129899974471357 4.117932680150163 1.364349569134076 5.520237834670584 5.487825817354244 -0.003560190395801059 6.888869521697388 6.86820613268719 1.3600476724058161 9.650122425603195 4.118273315650995 1.367919648947643 8.270187134069724 5.50257972983709 2.733776804878953 0.006641293442043703 8.250655533981648 2.7347635490071722 2.7610650049682506 8.241197954124655 -0.00119881719809227 4.130344998270832 9.623426491755668 1.3683789574616692 5.510511042885514 8.24224733123206 2.7317857354353756 8.270775005014709 8.234947842096469 -0.0033151526000406778 9.649801568937894 9.624618716008582 1.3658846265362161 -0.00041645437037302513 -0.001993267091970099 5.470850082346611 2.750387730253436 2.756618063446088 5.479883516063858 1.368634983499392 1.3821395328711188 6.845571453068947 4.128667093723181 1.3660604384076136 4.108221271903839 5.50922212210333 0.007891755377359014 5.469383152044638 6.889382672597029 1.375834479633123 6.835308435076114 9.639000127088904 1.3667043493866073 4.109542058587714 8.263883179655924 2.7401774558220215 5.473316942667159 1.3855305043406998 4.1301790758172015 4.110234317831341 0.0038250070270936685 5.503188478441804 5.476434306911877 1.374651045973778 6.860662704580038 6.849355803600781 6.889002479425132 4.130421915964569 4.105719249209012 4.12790011443421 6.875128725123471 4.115143864340119 4.138907036407895 4.123515805891232 6.835563362289641 5.515640354233538 5.498207508360271 5.479396736944926 6.878876814456827 6.869279683926913 6.8384620605193085 9.652601372989901 6.86477999884333 4.095688083121584 9.63725629308948 4.112479215664249 6.850089818163866 1.382168102300221 9.60868466633898 4.099348266519242 2.749052658855011 8.251797212321536 5.470754484641539 6.891791295235176 9.608535226248293 4.106236795405439 4.1253134822762725 9.61626105917202 6.840917932597894 8.268188372856772 8.235036846856366 5.464815339860889 9.643106433110235 9.62231997579006 6.835642477631769 -0.00449419096260072 2.749624047437053 8.218731394608437 2.7460902288219615 -0.009140019664281854 8.208937574547393 4.1301208381348005 1.3682668773936533 9.582691979977044 5.503343412653473 2.754944554195222 8.208061811662995 8.270222296444002 -0.006380872107536033 8.20612568342923 9.64157577100488 1.370646930602698 9.578591168076695 1.381942843339993 4.1303307135562815 9.588482783491202 2.752788661122209 5.489189458181771 8.21760619863149 6.892770347594022 4.1120199071502235 9.572897061091806 4.1327723009203154 6.861721971105209 9.586820262482298 8.263944713810913 5.5001831942651025 8.209573793757015 9.637444192027036 6.858838656414289 9.577097865994013 0.005509504519921763 8.23817289111242 8.204417011804084 1.3808572050341126 9.613607398738113 9.578647208110704 5.509216627982348 8.248128238330308 8.21197362580159 6.882282070640961 9.606573825058014 9.58416989852098
-0.008324348944759388 0.00012027492510323083 -0.004525206127049079 -0.0025169459097290777 2.7787579391264954 2.752357041346496 2.7602764279287517 -0.005241338479269233 2.7432304917544887 2.756819351411794 2.7786486985981904 0.008879379103722003 1.3849050733813115 1.3894357967067597 1.3809084148609085 5.505644282343102 0.00976433772695862 -0.0015712981041009237 5.510239005169982 2.7778100844415072 2.7586576819184176 6.901852991804758 1.3980238677350023 1.3756416972690029 8.270641225222237 0.0036545922196504627 2.7496160971817583 8.262098395220868 2.77685891943748 -0.004703963355184156 -0.004456792866898617 5.551583786534137 0.0031823200366763093 2.7540607522121787 5.547795678113225 2.740642925705249 1.3839803909296005 6.932290271933634 1.375195907638345 4.136596740600861 4.167467672523916 1.3747633592838453 5.5114903057669276 5.545154043519673 0.0008430279154024619 6.896663514990442 6.946826986275927 1.3763114851546694 9.642974810331062 4.156297552644833 1.3771743749843093 8.274768089624862 5.560131030294225 2.742768150528633 0.0007370977061372311 8.327940640917287 2.7509071216071783 2.7517446323241814 8.321601379956572 -0.00789621434897908 4.143131310384909 9.716310514893316 1.3668726621332656 5.511382168678303 8.332637983634394 2.7438627626910406 8.263218386495911 8.321986480404837 -0.008084902534232772 9.64362032254377 9.712588612853196 1.365419432074908 -0.006555535137966003 -0.00013241276158153852 5.501590244959348 2.7540596487724986 2.774371766399107 5.4936885134119695 1.3760157633204708 1.3865845085740371 6.874490998063614 4.141923043935478 1.396454776510261 4.118744190020629 5.52323421427953 -0.005624232048175849 5.494432231756186 6.898523914290662 1.3838722538409756 6.883001828314266 9.646671333258546 1.3874782947147126 4.124301112248334 8.278604749391686 2.7739999072269987 5.496703110617309 1.3779191967682054 4.162088404084666 4.121049275511828 0.008410417239787388 5.553732183590798 5.502198240222943 1.3717222795261894 6.932631234794707 6.875424508032763 6.9019214050649085 4.162940259517507 4.121004034484955 4.137008323601443 6.939833385585062 4.12956341608152 4.133962830085068 4.155628868198847 6.882659762013514 5.519800309995849 5.555013277059099 5.510072385778326 6.890535011008576 6.938579878108758 6.885537532698553 9.648048425978992 6.948631110152475 4.117702542962855 9.659509853933555 4.158557397109158 6.885063053636219 1.3851103131617626 9.70731637806289 4.127605914089473 2.759616571000204 8.337504152622515 5.506010624316811 6.897879505517633 9.720864410452041 4.118231090569501 4.1377432144282205 9.707229206328183 6.885463602240003 8.276114286034273 8.325739278755995 5.506421103877714 9.654559823529764 9.721134753173603 6.8802608841495285 -0.0018747440160586163 2.7807452339898977 8.249536837905499 2.7638670206469715 0.00022620513436846164 8.243229576695498 4.127921497837909 1.3939345202814926 9.620663260004571 5.5040840186358 2.7831065949047686 8.243120336167193 8.274517608817536 -0.009695924466808158 8.255615687101772 9.659325579507021 1.3864156823030207 9.617885902330398 1.3871075389822842 4.160346072830189 9.63524080161502 2.7641682596795696 5.547411681104639 8.260566820945241 6.88821447736186 4.171573571572623 9.626778522710278 4.143118069108751 6.935714245260196 9.61987650751284 8.272657209517316 5.550403106076702 8.2498049737477 9.659391785887811 6.943288255222662 9.617338596249194 0.0011928182939136929 8.335692304668207 8.243924743693801 1.3848929355448332 9.711586689623894 9.632675304359376 5.505089252184139 8.329553869729223 8.26001179078628 6.8932296107067605 9.709006847652415 9.635628108942644
0.0044626745673744745 -0.0029497376131415 -0.007527704284864425 -0.009834634033195223 2.718125564457718 2.7389629808266585 2.71113407722421 -0.001765274390165433 2.745454143833748 2.7030984350833953 2.7190098331448436 0.0027583092134686 1.3525601987774702 1.3472132555229703 1.3725013821843053 5.416154409933867 0.009532264174620985 -0.006651049227271486 5.410896654911033 2.7043318430676515 2.7518213134455953 6.764295440598434 1.3482922155938541 1.3710558802345025 8.111445611762422 -0.0008103077145244902 2.734911442254035 8.127398340955617 2.709050118055044 0.005354556884032303 -0.004996716296007394 5.43082043573608 -0.00734932782153286 2.7111068856901657 5.427326867442049 2.7428481072109285 1.353663087398313 6.780466789725347 1.3802748979369313 4.063556143008735 4.070718393076042 1.3666345367988755 5.418220966521245 5.429485875245178 -0.007083938449259066 6.7714914081679565 6.77421599987921 1.366798773664504 9.474462586872024 4.065962049940987 1.3632671372228111 8.119327893651226 5.420816126530447 2.7488878907528806 -0.0034239579668766383 8.128437057556114 2.748363637976504 2.71233920601306 8.128821002016823 -0.001224706693361847 4.063273351054672 9.488724002647656 1.3637011141061606 5.407097453774343 8.137566887026878 2.739554668607465 8.11049717105495 8.126487968395809 -0.007289506446635079 9.467005580575675 9.48531309661712 1.372917956485866 -0.0057308877152074346 0.0028953545450526082 5.498348979043419 2.7148147232724664 2.7175578052268703 5.493840622698849 1.3555795467177654 1.3499400225569476 6.864798613410792 4.05676804844988 1.3493135296125633 4.115174375915987 5.411929933204722 -0.005568826172302537 5.490159976650593 6.761043333126718 1.3622925926426583 6.861877154993056 9.473025786213116 1.3479267613762966 4.111978826835084 8.11345778528171 2.713117971548093 5.489602006372001 1.3454425428259962 4.060540058052524 4.11425856504937 0.007155724099136404 5.414443518611791 5.496981788711664 1.3520751018101174 6.779851173394581 6.861563908520865 6.768289333118882 4.067495652461094 4.111052139354849 4.06253156600594 6.786194414456469 4.1251384416512344 4.05304280828579 4.07239339157318 6.871934759605416 5.41129908961489 5.4192683844126375 5.4876550925344185 6.771488145183872 6.781652340609685 6.871927145975884 9.48113538932653 6.78338716048172 4.122674888666808 9.46922876039915 4.059860269701414 6.857481915430112 1.3566519808204784 9.48295830976887 4.126290275033357 2.703553077532619 8.139499661266758 5.496593493605509 6.759087717998241 9.490756841732818 4.125782337177407 4.0577763105322475 9.494352650194855 6.87027281304462 8.125861475451424 8.136186644758782 5.479755408063826 9.479548491399697 9.491442068390738 6.85976274130576 -0.005375222449906082 2.704387313797102 8.233916281098606 2.6988685200474416 -0.004619297803470483 8.243452895918674 4.054680826296627 1.358119235997517 9.607734821192023 5.419081306658412 2.713712922312985 8.228802097375526 8.121099694009562 0.001374803961287189 8.240214928044661 9.47772122031191 1.3601683900031063 9.599934113905354 1.361398535003277 4.067032308720977 9.61202129461879 2.7129874521846795 5.422175703232669 8.23951012348223 6.763140344232226 4.062485884228746 9.602725052959675 4.0679568208784875 6.770681100453432 9.6152821033814 8.12096373633934 5.417142006450361 8.231435325532392 9.472987718065452 6.766785097455544 9.598868205770811 -0.006329101464185247 8.140686299812456 8.22751974462999 1.3490024584630949 9.480422971134566 9.613348241480159 5.418634277838721 8.130882120297391 8.235205159812313 6.77329257538306 9.487183874159378 9.613329751237009
0.008608716677844231 -0.006218677979969512 -0.005190950441394109 -0.0037686975910856246 2.7820758845064555 2.736207412697311 2.7605589971320184 0.00017655552624519123 2.7271682056931286 2.7445632844239896 2.7734333825118607 0.006171814476089617 1.382089737634486 1.3791264384007784 1.377328187670503 5.496039480594727 -0.008864831175792502 -0.009820628685156901 5.502720254519931 2.7829466737994797 2.7271126233978293 6.871274068475619 1.3846497927650412 1.3584193087794287 8.257577162063587 0.006538003715709272 2.741751474191196 8.252573665637712 2.766758057831294 -0.0014702062031158205 0.002119756163869734 5.562345889340144 -0.004809503316790301 2.760868514227411 5.554060857793749 2.7395390808684934 1.3761685884117076 6.9396522800320986 1.3620299782760354 4.129402710902405 4.154640342515121 1.3711367559137195 5.4923841272920955 5.557773973089535 0.007505789563275505 6.884730433182714 6.943668373329713 1.3609117932764827 9.619822930427254 4.159100004326203 1.360211020416139 8.260588414650101 5.561270208448761 2.7268183641874204 -0.0010288173875028428 8.330917455786697 2.7461239480880826 2.7569515971821934 8.333915630186082 -0.0004392091177580991 4.134090151139323 9.707654945338527 1.3759527983240745 5.509748690252988 8.330610118389158 2.73992379753988 8.256910174519993 8.331264027745622 -0.007376097540910211 9.630029365632726 9.72363213061479 1.3654717211888894 0.001258775511192567 -0.004538130933857878 5.472651322611877 2.7427127209451974 2.778382386491363 5.470650359981098 1.3689221828931628 1.381092525865879 6.839815579185079 4.133390468127907 1.3840590946463693 4.1068951508529254 5.509212484580688 -0.005067797512593452 5.470135951287347 6.878647986318675 1.3824537471762508 6.845305148232591 9.631307758424612 1.3836972648024592 4.103839214460385 8.259645695327867 2.7799801050189896 5.464055684121162 1.3671337408032347 4.162934092852935 4.0963421436885294 -0.00576639067508214 5.561216805851315 5.468743124358078 1.3800146652766414 6.9386725058463306 6.847022750142237 6.872487070331859 4.160170235972949 4.112772706118607 4.1346721304665754 6.932666348407212 4.095998841276386 4.119676899073935 4.155610308060542 6.838845613639658 5.493162279426287 5.542799448826518 5.46624846016317 6.876795243142028 6.941693567073193 6.835747173138948 9.622649998545032 6.931713820444629 4.105703945975234 9.624947400084075 4.156570464965616 6.8486749611162345 1.3680241473769525 9.712530929439891 4.095513858503676 2.7557789197362688 8.336986824463606 5.474694789350825 6.8721666547471925 9.712218142797717 4.113560666893145 4.125099987336874 9.719471087409826 6.838457627421491 8.257596779344281 8.32308471154519 5.48132434037644 9.628032762397655 9.714652865301616 6.844015856951431 0.00320088629988967 2.7840114562015876 8.199517640152104 2.7434679862519125 0.010051676657774065 8.207570533876956 4.130822784054859 1.387401661306826 9.572795949208242 5.497701500209072 2.7772827289235766 8.21498695582818 8.250966138469739 -0.009602658899669011 8.20130281269525 9.628211497621756 1.3900434551069394 9.57342261234152 1.3826520996810447 4.162771705362746 9.58709367728732 2.747124429403472 5.555189941282577 8.218158416207029 6.883897788602151 4.16850758026786 9.583653024223395 4.118312408216782 6.938255093707121 9.57990939315764 8.260646176643256 5.554352937306303 8.213504761286861 9.630238616626794 6.947546055813542 9.58121612202164 -0.0008653400483869249 8.327167285627377 8.209720805810793 1.375854711920605 9.71280884091639 9.577194579479388 5.5008151985947675 8.338099560218522 8.206139562235226 6.882433031643672 9.722744993587854 9.579757904156725
-0.002723801085525593 -0.00947481050212205 0.006693619766496243 -0.0070721707277341984 2.7057443150392544 2.7776060897887795 2.7826674154687723 -0.004982966734662907 2.776096300532297 2.7801312343931897 2.7205022842919484 -0.005543619470257316 1.395535292309992 1.366778663021315 1.3915676809232562 5.555945001263455 -0.005446498523933876 0.0013961136033994637 5.552964050399595 2.710587118590019 2.7710073836743723 6.956415803482065 1.353799772921728 1.3780314490294265 8.349517553898385 -0.0035173233628727984 2.7703429881097508 8.348235115948068 2.709245083695368 -0.008767372699925169 -0.009344580142279254 5.438683598696191 0.006280855744621618 2.789162378754152 5.426396695339158 2.773753257702244 1.3962052061102002 6.786067870924985 1.3847118250305148 4.174163359329403 4.071774705315033 1.3791593763833192 5.569203114083721 5.436124241031144 -0.009853361463360008 6.944410330139947 6.794439034309795 1.3927905219292376 9.735540511704267 4.0823344009334726 1.385359665888377 8.342428828463891 5.432859652858135 2.76989159643877 0.008956096356985492 8.151533193876698 2.7727103111763847 2.7804148717023383 8.155060450063628 0.0032855574682373145 4.170775162679255 9.506556911451526 1.392847911579338 5.570356425321313 8.153726140698797 2.7826497571148945 8.33693597676103 8.153432570565592 -0.004414588469247315 9.735909129841449 9.510834647678227 1.3846400879678897 0.0019589736332284963 0.006515932580609038 5.5564350205835416 2.783068039372356 2.7125460922232474 5.550073598599356 1.3935719040882946 1.366028182981543 6.946156299879535 4.170848003388998 1.361165513782667 4.163178759570798 5.554318225412537 0.007848034651204415 5.540144085484901 6.956932310332967 1.361537442861201 6.9335294732103705 9.737245646500513 1.3613012623780965 4.156168393081633 8.331344900464728 2.72207829237547 5.548248166267323 1.3950496875783749 4.072296730401521 4.1711934449367165 0.00948032873770861 5.423910178383854 5.547033050791162 1.389546903051458 6.784724732383216 6.934299818898253 6.9544557262017195 4.076722355341941 4.160852271447505 4.1801793397658695 6.787338168757011 4.162217482931619 4.161357741827233 4.075948698712706 6.937737679668681 5.5614400602605505 5.431501063256725 5.555718753604406 6.945054860056458 6.780948051947775 6.933464358030449 9.72355048942179 6.7814115837370466 4.16271412413441 9.737810713824576 4.07155397589157 6.93197333077496 1.397344169935266 9.494980756838041 4.168159519011226 2.7824080583962036 8.141778057006778 5.5531682251162975 6.954711772332936 9.507890117169238 4.163167723099624 4.1668770810609095 9.49563853051996 6.938079810275047 8.343113089676624 8.141144563561442 5.541501571439194 9.727152793612698 9.502421545702958 6.937170405050382 0.0007273034503084952 2.7058811672818015 8.326793459752935 2.7709411648473337 -0.00452605682809581 8.317125511005283 4.161405198653278 1.3504524112149212 9.714088922685077 5.56413737381526 2.7175897595493623 8.318505069901923 8.347758340393389 0.002837476738608712 8.318141970000328 9.736061433143636 1.3659244401525157 9.715469585228833 1.3868517967909826 4.070037564752384 9.718328031262672 2.778703115023388 5.430909508401846 8.316632180743843 6.940729667003712 4.077599754800205 9.701421261072571 4.168044739711026 6.781824347758921 9.710084890943468 8.347063042709484 5.424651829246688 8.327531799674416 9.722345306769686 6.783254674422957 9.718876543879974 0.004019482801249681 8.139379831820861 8.31440060627264 1.399576848053588 9.498567609969305 9.713112194986255 5.56488454291368 8.143131128372604 8.328198402533273 6.948350350348751 9.499379894247646 9.707312529384781