An instance of this daemon is already running
An instance of this daemon is already running

     Program PWSCF v.7.1 starts on 10May2023 at 10:58:57 

     This program is part of the open-source Quantum ESPRESSO suite
     for quantum simulation of materials; please cite
         "P. Giannozzi et al., J. Phys.:Condens. Matter 21 395502 (2009);
         "P. Giannozzi et al., J. Phys.:Condens. Matter 29 465901 (2017);
         "P. Giannozzi et al., J. Chem. Phys. 152 154105 (2020);
          URL http://www.quantum-espresso.org", 
     in publications or presentations arising from this work. More details at
     http://www.quantum-espresso.org/quote

     Parallel version (MPI & OpenMP), running on       4 processor cores
     Number of MPI processes:                 4
     Threads/MPI process:                     1

     MPI processes distributed on     1 nodes
     152746 MiB available memory on the printing compute node when the environment starts
 
     Reading input from pw-si-21.in
Warning: card &CELL ignored
Warning: card / ignored

     Current dimensions of program PWSCF are:
     Max number of different atomic species (ntypx) = 10
     Max number of k-points (npk) =  40000
     Max angular momentum in pseudopotentials (lmaxx) =  4

     IMPORTANT: XC functional enforced from input :
     Exchange-correlation= PBE
                           (   1   4   3   4   0   0   0)
     Any further DFT definition will be discarded
     Please, verify this is what you really want


     gamma-point specific algorithms are used
 
     K-points division:     npool     =       2
     R & G space division:  proc/nbgrp/npool/nimage =       2
     Subspace diagonalization in iterative solution of the eigenvalue problem:
     a serial algorithm will be used

     Message from routine divide_et_impera:
     suboptimal parallelization: some nodes have no k-points
 
     Parallelization info
     --------------------
     sticks:   dense  smooth     PW     G-vecs:    dense   smooth      PW
     Min        2074    2074    546               100402   100402   13614
     Max        2075    2075    547               100407   100407   13619
     Sum        4149    4149   1093               200809   200809   27233
 
     Using Slab Decomposition
 


     bravais-lattice index     =            0
     lattice parameter (alat)  =      20.8197  a.u.
     unit-cell volume          =    9047.7760 (a.u.)^3
     number of atoms/cell      =           64
     number of atomic types    =            1
     number of electrons       =       256.00
     number of Kohn-Sham states=          154
     kinetic-energy cutoff     =      30.0000  Ry
     charge density cutoff     =     120.0000  Ry
     scf convergence threshold =      1.0E-06
     mixing beta               =       0.5000
     number of iterations used =            8  plain     mixing
     Exchange-correlation= PBE
                           (   1   4   3   4   0   0   0)

     GPU acceleration is ACTIVE.
     GPU-aware MPI enabled

     Message from routine print_cuda_info:
     High GPU oversubscription detected. Are you sure this is what you want?

     celldm(1)=  20.819748  celldm(2)=   0.000000  celldm(3)=   0.000000
     celldm(4)=   0.000000  celldm(5)=   0.000000  celldm(6)=   0.000000

     crystal axes: (cart. coord. in units of alat)
               a(1) = (   1.000000   0.000000   0.000000 )  
               a(2) = (   0.000000   0.999251   0.000000 )  
               a(3) = (   0.000000   0.000000   1.003323 )  

     reciprocal axes: (cart. coord. in units 2 pi/alat)
               b(1) = (  1.000000  0.000000  0.000000 )  
               b(2) = (  0.000000  1.000749  0.000000 )  
               b(3) = (  0.000000  0.000000  0.996688 )  


     PseudoPot. # 1 for Si read from file:
     /home/ppiaggi/pseudos/Si_ONCV_PBE_sr.upf
     MD5 check sum: 8553c464762ac42b85b1eed164b4d029
     Pseudo is Norm-conserving, Zval =  4.0
     Generated using ONCVPSP code by D. R. Hamann
     Using radial grid of 1510 points,  4 beta functions with: 
                l(1) =   0
                l(2) =   0
                l(3) =   1
                l(4) =   1

     atomic species   valence    mass     pseudopotential
        Si             4.00    28.08500     Si( 1.00)

     No symmetry found



   Cartesian axes

     site n.     atom                  positions (alat units)
         1           Si  tau(   1) = (   0.0001063   0.0002943  -0.0000392  )
         2           Si  tau(   2) = (   0.0006327   0.2483853   0.2524910  )
         3           Si  tau(   3) = (   0.2522116   0.0008427   0.2532347  )
         4           Si  tau(   4) = (   0.2527375   0.2496027   0.0006725  )
         5           Si  tau(   5) = (   0.1262932   0.1252363   0.1258827  )
         6           Si  tau(   6) = (   0.5035883   0.0005372  -0.0007030  )
         7           Si  tau(   7) = (   0.5048085   0.2493719   0.2521672  )
         8           Si  tau(   8) = (   0.6306989   0.1246855   0.1268083  )
         9           Si  tau(   9) = (   0.7568763   0.0006462   0.2520484  )
        10           Si  tau(  10) = (   0.7571507   0.2489767  -0.0003114  )
        11           Si  tau(  11) = (  -0.0004029   0.4979071   0.0008605  )
        12           Si  tau(  12) = (   0.2516658   0.4988478   0.2522120  )
        13           Si  tau(  13) = (   0.1267840   0.6236429   0.1254416  )
        14           Si  tau(  14) = (   0.3788592   0.3744494   0.1255811  )
        15           Si  tau(  15) = (   0.5050344   0.4987030  -0.0002526  )
        16           Si  tau(  16) = (   0.6304487   0.6219925   0.1253246  )
        17           Si  tau(  17) = (   0.8825063   0.3743429   0.1267294  )
        18           Si  tau(  18) = (   0.7573444   0.4987667   0.2525770  )
        19           Si  tau(  19) = (   0.0008563   0.7475705   0.2525107  )
        20           Si  tau(  20) = (   0.2527456   0.7472306  -0.0001130  )
        21           Si  tau(  21) = (   0.3782973   0.8717088   0.1264762  )
        22           Si  tau(  22) = (   0.5040645   0.7470751   0.2528838  )
        23           Si  tau(  23) = (   0.7564716   0.7473991   0.0000739  )
        24           Si  tau(  24) = (   0.8818177   0.8714143   0.1270376  )
        25           Si  tau(  25) = (  -0.0008026  -0.0003531   0.5046703  )
        26           Si  tau(  26) = (   0.2527205   0.2498320   0.5054131  )
        27           Si  tau(  27) = (   0.1256816   0.1244622   0.6303672  )
        28           Si  tau(  28) = (   0.3786764   0.1239990   0.3789922  )
        29           Si  tau(  29) = (   0.5036356  -0.0004465   0.5045705  )
        30           Si  tau(  30) = (   0.6295181   0.1242788   0.6307204  )
        31           Si  tau(  31) = (   0.8830307   0.1238475   0.3782423  )
        32           Si  tau(  32) = (   0.7562393   0.2499492   0.5045582  )
        33           Si  tau(  33) = (   0.1267537   0.3737400   0.3778115  )
        34           Si  tau(  34) = (   0.0007190   0.4978601   0.5054229  )
        35           Si  tau(  35) = (   0.1261281   0.6231327   0.6309367  )
        36           Si  tau(  36) = (   0.6308255   0.3736759   0.3785660  )
        37           Si  tau(  37) = (   0.3784305   0.6228963   0.3790910  )
        38           Si  tau(  38) = (   0.3789529   0.3742780   0.6308668  )
        39           Si  tau(  39) = (   0.5050990   0.4975581   0.5047456  )
        40           Si  tau(  40) = (   0.6296542   0.6229714   0.6319179  )
        41           Si  tau(  41) = (   0.8828918   0.6221434   0.3781910  )
        42           Si  tau(  42) = (   0.8822307   0.3737831   0.6318823  )
        43           Si  tau(  43) = (   0.1255786   0.8724665   0.3794276  )
        44           Si  tau(  44) = (   0.2519093   0.7465582   0.5057996  )
        45           Si  tau(  45) = (   0.6303691   0.8726221   0.3786366  )
        46           Si  tau(  46) = (   0.3785401   0.8717838   0.6313658  )
        47           Si  tau(  47) = (   0.7571109   0.7467777   0.5041858  )
        48           Si  tau(  48) = (   0.8830665   0.8727945   0.6304707  )
        49           Si  tau(  49) = (   0.0001598   0.2483450   0.7564205  )
        50           Si  tau(  50) = (   0.2524745  -0.0001624   0.7567741  )
        51           Si  tau(  51) = (   0.3779408   0.1250903   0.8841648  )
        52           Si  tau(  52) = (   0.5049353   0.2486425   0.7564478  )
        53           Si  tau(  53) = (   0.7563446   0.0008005   0.7580629  )
        54           Si  tau(  54) = (   0.8826197   0.1244830   0.8840867  )
        55           Si  tau(  55) = (   0.1268903   0.3744665   0.8833467  )
        56           Si  tau(  56) = (   0.2522739   0.4984119   0.7580537  )
        57           Si  tau(  57) = (   0.6304879   0.3733527   0.8832771  )
        58           Si  tau(  58) = (   0.3778285   0.6231067   0.8841821  )
        59           Si  tau(  59) = (   0.7565373   0.4977125   0.7574537  )
        60           Si  tau(  60) = (   0.8817279   0.6235214   0.8830076  )
        61           Si  tau(  61) = (   0.0000949   0.7469483   0.7581141  )
        62           Si  tau(  62) = (   0.1267525   0.8726994   0.8837101  )
        63           Si  tau(  63) = (   0.5041727   0.7473013   0.7581688  )
        64           Si  tau(  64) = (   0.6303587   0.8713355   0.8834156  )

     number of k points=     1  Fermi-Dirac smearing, width (Ry)=  0.0100
                       cart. coord. in units 2pi/alat
        k(    1) = (   0.0000000   0.0000000   0.0000000), wk =   2.0000000

     Dense  grid:   100405 G-vectors     FFT dimensions: (  75,  75,  75)

     Estimated max dynamical RAM per process >     161.35 MB

     Estimated total dynamical RAM >     620.87 MB

     Initial potential from superposition of free atoms

     starting charge     255.9608, renormalised to     256.0000
     Starting wfcs are  256 randomized atomic wfcs

     total cpu time spent up to now is        4.1 secs

     Self-consistent Calculation

     iteration #  1     ecut=    30.00 Ry     beta= 0.50
     Davidson diagonalization with overlap
     ethr =  1.00E-02,  avg # of iterations =  3.0

     Threshold (ethr) on eigenvalues was too large:
     Diagonalizing with lowered threshold

     Davidson diagonalization with overlap
     ethr =  6.34E-04,  avg # of iterations =  2.0

     total cpu time spent up to now is        4.3 secs

     total energy              =    -503.96214365 Ry
     estimated scf accuracy    <       1.80168376 Ry

     iteration #  2     ecut=    30.00 Ry     beta= 0.50
     Davidson diagonalization with overlap
     ethr =  7.04E-04,  avg # of iterations =  2.0

     total cpu time spent up to now is        4.4 secs

     total energy              =    -503.94336873 Ry
     estimated scf accuracy    <       0.34273655 Ry

     iteration #  3     ecut=    30.00 Ry     beta= 0.50
     Davidson diagonalization with overlap
     ethr =  1.34E-04,  avg # of iterations =  4.0

     total cpu time spent up to now is        4.5 secs

     total energy              =    -503.96425873 Ry
     estimated scf accuracy    <       0.00842814 Ry

     iteration #  4     ecut=    30.00 Ry     beta= 0.50
     Davidson diagonalization with overlap
     c_bands:  1 eigenvalues not converged
     ethr =  3.29E-06,  avg # of iterations = 20.0

     total cpu time spent up to now is        4.7 secs

     total energy              =    -503.96645670 Ry
     estimated scf accuracy    <       0.00926713 Ry

     iteration #  5     ecut=    30.00 Ry     beta= 0.50
     Davidson diagonalization with overlap
     c_bands:  3 eigenvalues not converged
     ethr =  3.29E-06,  avg # of iterations = 20.0

     total cpu time spent up to now is        4.9 secs

     total energy              =    -503.96814102 Ry
     estimated scf accuracy    <       0.00061239 Ry

     iteration #  6     ecut=    30.00 Ry     beta= 0.50
     Davidson diagonalization with overlap
     ethr =  2.39E-07,  avg # of iterations =  6.0

     total cpu time spent up to now is        5.0 secs

     total energy              =    -503.96819133 Ry
     estimated scf accuracy    <       0.00009199 Ry

     iteration #  7     ecut=    30.00 Ry     beta= 0.50
     Davidson diagonalization with overlap
     ethr =  3.59E-08,  avg # of iterations =  5.0

     total cpu time spent up to now is        5.2 secs

     total energy              =    -503.96820219 Ry
     estimated scf accuracy    <       0.00000913 Ry

     iteration #  8     ecut=    30.00 Ry     beta= 0.50
     Davidson diagonalization with overlap
     ethr =  3.57E-09,  avg # of iterations =  4.0

     total cpu time spent up to now is        5.3 secs

     total energy              =    -503.96820521 Ry
     estimated scf accuracy    <       0.00000108 Ry

     iteration #  9     ecut=    30.00 Ry     beta= 0.50
     Davidson diagonalization with overlap
     ethr =  4.24E-10,  avg # of iterations =  4.0

     total cpu time spent up to now is        5.4 secs

     End of self-consistent calculation

          k = 0.0000 0.0000 0.0000 ( 12591 PWs)   bands (ev):

    -5.8786  -4.8860  -4.8736  -4.8535  -4.8149  -4.7951  -4.7727  -4.0303
    -4.0103  -3.9881  -3.9313  -3.9207  -3.9103  -3.8942  -3.8925  -3.8745
    -3.8443  -3.8265  -3.8143  -3.6839  -3.6172  -3.6124  -3.5661  -1.9929
    -1.9603  -1.9336  -1.8780  -1.8517  -1.8275  -1.7810  -1.7706  -1.7636
    -1.7446  -1.7346  -1.7198  -1.7128  -1.7011  -1.6975  -1.6904  -1.6808
    -1.6689  -1.0253  -0.9991  -0.9738  -0.8950   0.3510   0.3604   0.3622
     0.3663   0.3840   0.3880   0.3888   0.4010   0.4087   0.4164   0.4248
     0.4407   2.0157   2.0289   2.0452   2.0533   2.0721   2.0868   2.0997
     2.1157   2.1188   2.1298   2.1361   2.1423   2.1853   2.1902   2.1997
     2.2180   2.2291   2.2343   2.2406   2.2442   2.2572   2.2633   2.2657
     2.2684   2.2794   2.3010   2.3094   2.3144   2.3208   2.3348   3.0128
     3.0404   3.0482   3.0673   3.0797   3.1021   3.8897   3.9287   3.9616
     3.9635   3.9693   3.9904   3.9973   4.0175   4.0477   4.0522   4.0582
     4.0613   4.2700   4.3686   4.4695   4.5009   4.5108   4.5287   4.5357
     4.5451   4.5599   4.5692   4.5870   4.6063   4.6230   4.6329   4.6437
     4.6759   4.6893   4.7032   4.7256   4.7373   5.7472   5.8148   5.8646
     6.4743   6.5142   6.5164   6.5896   6.6095   6.6523   6.9258   6.9345
     6.9485   6.9600   6.9733   6.9920   7.1341   7.1457   7.1521   7.1672
     8.0699   8.1214   8.1404   8.1627   8.1713   8.1948   8.2044   8.2100
     8.2265   8.2272

     the Fermi energy is     6.1266 ev

!    total energy              =    -503.96820518 Ry
     estimated scf accuracy    <       0.00000046 Ry
     smearing contrib. (-TS)   =      -0.04158251 Ry
     internal energy E=F+TS    =    -503.92662266 Ry

     The total energy is F=E-TS. E is the sum of the following terms:
     one-electron contribution =     140.71929477 Ry
     hartree contribution      =      37.40297329 Ry
     xc contribution           =    -152.88827761 Ry
     ewald contribution        =    -529.16061311 Ry

     convergence has been achieved in   9 iterations

     Forces acting on atoms (cartesian axes, Ry/au):

     atom    1 type  1   force =     0.02644901   -0.01476735    0.02483345
     atom    2 type  1   force =     0.02306758    0.00443595   -0.00137556
     atom    3 type  1   force =    -0.00138681   -0.01151623   -0.00336347
     atom    4 type  1   force =    -0.00212743    0.00203288    0.01579151
     atom    5 type  1   force =     0.00397086   -0.00384099    0.00363272
     atom    6 type  1   force =     0.00458345   -0.01185521    0.02338225
     atom    7 type  1   force =    -0.00315814   -0.00043139    0.00181905
     atom    8 type  1   force =    -0.00101213   -0.00054258   -0.00416219
     atom    9 type  1   force =    -0.00567465   -0.01103753    0.00246358
     atom   10 type  1   force =    -0.00614116    0.00253061    0.02304893
     atom   11 type  1   force =     0.02803524    0.00460013    0.01277360
     atom   12 type  1   force =     0.00488407    0.00054951   -0.00146811
     atom   13 type  1   force =    -0.00058618   -0.00262394    0.00431583
     atom   14 type  1   force =     0.00030401   -0.00034367    0.00678338
     atom   15 type  1   force =    -0.00346204   -0.00279810    0.01622132
     atom   16 type  1   force =     0.00123236    0.00498611    0.00840814
     atom   17 type  1   force =    -0.02439311   -0.00686167    0.00356267
     atom   18 type  1   force =    -0.00818415   -0.00203141   -0.00143028
     atom   19 type  1   force =     0.02344791   -0.00009857    0.00050391
     atom   20 type  1   force =    -0.00205639    0.00615614    0.01982637
     atom   21 type  1   force =     0.00036520    0.01034574    0.00298570
     atom   22 type  1   force =     0.00246772    0.00145755   -0.00279237
     atom   23 type  1   force =    -0.00470080    0.00091655    0.01936284
     atom   24 type  1   force =    -0.01986695    0.01150844   -0.00248418
     atom   25 type  1   force =     0.02944876   -0.00525801   -0.00007170
     atom   26 type  1   force =    -0.00055827   -0.00244300   -0.00419224
     atom   27 type  1   force =     0.00564849   -0.00181908   -0.00029265
     atom   28 type  1   force =    -0.00020291    0.00569200    0.00012234
     atom   29 type  1   force =     0.00199649   -0.00828791    0.00124246
     atom   30 type  1   force =     0.00498522   -0.00086427   -0.00173861
     atom   31 type  1   force =    -0.02864618    0.00460685    0.00272945
     atom   32 type  1   force =    -0.00071680   -0.00595443    0.00071557
     atom   33 type  1   force =     0.00137802   -0.00147000    0.00503217
     atom   34 type  1   force =     0.02290210   -0.00032025   -0.00371732
     atom   35 type  1   force =     0.00221940   -0.00340431    0.00516593
     atom   36 type  1   force =     0.00048810    0.00128807   -0.00185739
     atom   37 type  1   force =    -0.00037668   -0.00261956    0.00100692
     atom   38 type  1   force =    -0.00056687   -0.00164414    0.00362760
     atom   39 type  1   force =    -0.00271991    0.00481641   -0.00072349
     atom   40 type  1   force =     0.00477812   -0.00125434   -0.00378791
     atom   41 type  1   force =    -0.02092981    0.00229038    0.00355825
     atom   42 type  1   force =    -0.02320303   -0.00117866   -0.00419133
     atom   43 type  1   force =     0.00700153    0.00524577   -0.00025625
     atom   44 type  1   force =     0.00177513    0.00644454   -0.00438589
     atom   45 type  1   force =     0.00196870    0.00417301   -0.00028948
     atom   46 type  1   force =    -0.00030510    0.00576826   -0.00032497
     atom   47 type  1   force =    -0.00622292    0.00382048    0.00277145
     atom   48 type  1   force =    -0.02891271    0.00151235    0.00637999
     atom   49 type  1   force =     0.02628395    0.00289757    0.00384610
     atom   50 type  1   force =    -0.00082986   -0.00423984   -0.00063078
     atom   51 type  1   force =     0.00094605   -0.00052081   -0.02526344
     atom   52 type  1   force =    -0.00538322    0.00213246    0.00194311
     atom   53 type  1   force =    -0.00347405   -0.01143297   -0.00667417
     atom   54 type  1   force =    -0.02489350    0.00301550   -0.02413296
     atom   55 type  1   force =    -0.00245456   -0.00577384   -0.01681269
     atom   56 type  1   force =     0.00183934    0.00231867   -0.00742550
     atom   57 type  1   force =     0.00067726   -0.00135846   -0.01878525
     atom   58 type  1   force =     0.00449204   -0.00214030   -0.02107508
     atom   59 type  1   force =    -0.00573120    0.00413339   -0.00219880
     atom   60 type  1   force =    -0.02273884   -0.00534706   -0.01437842
     atom   61 type  1   force =     0.02619506    0.00775632   -0.00762769
     atom   62 type  1   force =     0.00092590    0.00456937   -0.01925697
     atom   63 type  1   force =    -0.00217897    0.00090130   -0.00424565
     atom   64 type  1   force =    -0.00096175    0.01317759   -0.01644379

     Total force =     0.139864     Total SCF correction =     0.001283


     Computing stress (Cartesian axis) and pressure

          total   stress  (Ry/bohr**3)                   (kbar)     P=      -11.00
  -0.00007257  -0.00002065   0.00000494          -10.68       -3.04        0.73
  -0.00002065  -0.00006361  -0.00002838           -3.04       -9.36       -4.17
   0.00000494  -0.00002838  -0.00008809            0.73       -4.17      -12.96

 
     init_run     :      0.79s CPU      4.01s WALL (       1 calls)
     electrons    :      1.23s CPU      1.32s WALL (       1 calls)
     forces       :      0.03s CPU      0.04s WALL (       1 calls)
     stress       :      0.14s CPU      0.16s WALL (       1 calls)

     Called by init_run:
     wfcinit      :      0.44s CPU      3.53s WALL (       1 calls)
                                        3.53s GPU  (       1 calls)
     potinit      :      0.15s CPU      0.21s WALL (       1 calls)
     hinit0       :      0.17s CPU      0.19s WALL (       1 calls)

     Called by electrons:
     c_bands      :      0.91s CPU      0.96s WALL (      10 calls)
     sum_band     :      0.18s CPU      0.21s WALL (      10 calls)
     v_of_rho     :      0.08s CPU      0.15s WALL (      10 calls)
     mix_rho      :      0.05s CPU      0.07s WALL (      10 calls)

     Called by c_bands:
     init_us_2    :      0.03s CPU      0.03s WALL (      21 calls)
     init_us_2:gp :      0.02s CPU      0.03s WALL (      21 calls)
     regterg      :      0.83s CPU      0.87s WALL (      10 calls)

     Called by *egterg:
     rdiaghg      :      0.36s CPU      0.99s WALL (      79 calls)
                                        0.97s GPU  (      79 calls)
     h_psi        :      0.78s CPU      3.27s WALL (      81 calls)
                                        3.26s GPU  (      81 calls)
     g_psi        :      0.00s CPU      0.00s WALL (      70 calls)
                                        0.00s GPU  (      70 calls)

     Called by h_psi:
     h_psi:calbec :      0.40s CPU      2.82s WALL (      81 calls)
                                        2.82s GPU  (      81 calls)
     vloc_psi     :      0.34s CPU      0.40s WALL (      81 calls)
                                        0.40s GPU  (      81 calls)
     add_vuspsi   :      0.03s CPU      0.04s WALL (      81 calls)
                                        0.04s GPU  (      81 calls)

     General routines
     calbec       :      0.40s CPU      2.82s WALL (      86 calls)
     fft          :      0.19s CPU      0.28s WALL (      87 calls)
                                        0.09s GPU  (      56 calls)
     ffts         :      0.02s CPU      0.02s WALL (      10 calls)
     fftw         :      0.37s CPU      0.49s WALL (    1142 calls)
                                        0.45s GPU  (    1142 calls)
 
     Parallel routines
 
     PWSCF        :      2.23s CPU      5.60s WALL

 
   This run was terminated on:  10:59: 3  10May2023            

=------------------------------------------------------------------------------=
   JOB DONE.
=------------------------------------------------------------------------------=
