An instance of this daemon is already running

     Program PWSCF v.7.1 starts on 10May2023 at 10:58:17 

     This program is part of the open-source Quantum ESPRESSO suite
     for quantum simulation of materials; please cite
         "P. Giannozzi et al., J. Phys.:Condens. Matter 21 395502 (2009);
         "P. Giannozzi et al., J. Phys.:Condens. Matter 29 465901 (2017);
         "P. Giannozzi et al., J. Chem. Phys. 152 154105 (2020);
          URL http://www.quantum-espresso.org", 
     in publications or presentations arising from this work. More details at
     http://www.quantum-espresso.org/quote

     Parallel version (MPI & OpenMP), running on       4 processor cores
     Number of MPI processes:                 4
     Threads/MPI process:                     1

     MPI processes distributed on     1 nodes
     152748 MiB available memory on the printing compute node when the environment starts
 
     Reading input from pw-si-16.in
Warning: card &CELL ignored
Warning: card / ignored

     Current dimensions of program PWSCF are:
     Max number of different atomic species (ntypx) = 10
     Max number of k-points (npk) =  40000
     Max angular momentum in pseudopotentials (lmaxx) =  4

     IMPORTANT: XC functional enforced from input :
     Exchange-correlation= PBE
                           (   1   4   3   4   0   0   0)
     Any further DFT definition will be discarded
     Please, verify this is what you really want


     gamma-point specific algorithms are used
 
     K-points division:     npool     =       2
     R & G space division:  proc/nbgrp/npool/nimage =       2
     Subspace diagonalization in iterative solution of the eigenvalue problem:
     a serial algorithm will be used

     Message from routine divide_et_impera:
     suboptimal parallelization: some nodes have no k-points
 
     Parallelization info
     --------------------
     sticks:   dense  smooth     PW     G-vecs:    dense   smooth      PW
     Min        2086    2086    547               101262   101262   13739
     Max        2087    2087    550               101263   101263   13742
     Sum        4173    4173   1097               202525   202525   27481
 
     Using Slab Decomposition
 


     bravais-lattice index     =            0
     lattice parameter (alat)  =      20.7755  a.u.
     unit-cell volume          =    9118.2849 (a.u.)^3
     number of atoms/cell      =           64
     number of atomic types    =            1
     number of electrons       =       256.00
     number of Kohn-Sham states=          154
     kinetic-energy cutoff     =      30.0000  Ry
     charge density cutoff     =     120.0000  Ry
     scf convergence threshold =      1.0E-06
     mixing beta               =       0.5000
     number of iterations used =            8  plain     mixing
     Exchange-correlation= PBE
                           (   1   4   3   4   0   0   0)

     GPU acceleration is ACTIVE.
     GPU-aware MPI enabled

     Message from routine print_cuda_info:
     High GPU oversubscription detected. Are you sure this is what you want?

     celldm(1)=  20.775473  celldm(2)=   0.000000  celldm(3)=   0.000000
     celldm(4)=   0.000000  celldm(5)=   0.000000  celldm(6)=   0.000000

     crystal axes: (cart. coord. in units of alat)
               a(1) = (   1.000000   0.000000   0.000000 )  
               a(2) = (   0.000000   1.007992   0.000000 )  
               a(3) = (   0.000000   0.000000   1.008796 )  

     reciprocal axes: (cart. coord. in units 2 pi/alat)
               b(1) = (  1.000000  0.000000  0.000000 )  
               b(2) = (  0.000000  0.992071  0.000000 )  
               b(3) = (  0.000000  0.000000  0.991281 )  


     PseudoPot. # 1 for Si read from file:
     /home/ppiaggi/pseudos/Si_ONCV_PBE_sr.upf
     MD5 check sum: 8553c464762ac42b85b1eed164b4d029
     Pseudo is Norm-conserving, Zval =  4.0
     Generated using ONCVPSP code by D. R. Hamann
     Using radial grid of 1510 points,  4 beta functions with: 
                l(1) =   0
                l(2) =   0
                l(3) =   1
                l(4) =   1

     atomic species   valence    mass     pseudopotential
        Si             4.00    28.08500     Si( 1.00)

     No symmetry found



   Cartesian axes

     site n.     atom                  positions (alat units)
         1           Si  tau(   1) = (   0.0005265   0.0002653  -0.0004399  )
         2           Si  tau(   2) = (  -0.0002041   0.2496955   0.2533017  )
         3           Si  tau(   3) = (   0.2498202   0.0000126   0.2533921  )
         4           Si  tau(   4) = (   0.2510322   0.2499270   0.0000961  )
         5           Si  tau(   5) = (   0.1253612   0.1246227   0.1263729  )
         6           Si  tau(   6) = (   0.5007960   0.0004637  -0.0007321  )
         7           Si  tau(   7) = (   0.5008117   0.2494928   0.2526232  )
         8           Si  tau(   8) = (   0.6252687   0.1244828   0.1272125  )
         9           Si  tau(   9) = (   0.7504575  -0.0004876   0.2526622  )
        10           Si  tau(  10) = (   0.7510993   0.2501266   0.0007975  )
        11           Si  tau(  11) = (   0.0007456   0.4984342  -0.0001356  )
        12           Si  tau(  12) = (   0.2498825   0.4999885   0.2532882  )
        13           Si  tau(  13) = (   0.1253078   0.6233549   0.1264422  )
        14           Si  tau(  14) = (   0.3754303   0.3747492   0.1270501  )
        15           Si  tau(  15) = (   0.5004817   0.4987286   0.0002349  )
        16           Si  tau(  16) = (   0.6252914   0.6231770   0.1255406  )
        17           Si  tau(  17) = (   0.8764084   0.3741995   0.1271153  )
        18           Si  tau(  18) = (   0.7511941   0.4984207   0.2522720  )
        19           Si  tau(  19) = (  -0.0001138   0.7488301   0.2520747  )
        20           Si  tau(  20) = (   0.2498942   0.7482242  -0.0006731  )
        21           Si  tau(  21) = (   0.3747222   0.8735586   0.1269543  )
        22           Si  tau(  22) = (   0.5004891   0.7493722   0.2528448  )
        23           Si  tau(  23) = (   0.7510530   0.7485784   0.0008055  )
        24           Si  tau(  24) = (   0.8761308   0.8728721   0.1271259  )
        25           Si  tau(  25) = (  -0.0002679  -0.0006055   0.5055330  )
        26           Si  tau(  26) = (   0.2497901   0.2488116   0.5063138  )
        27           Si  tau(  27) = (   0.1247868   0.1247302   0.6317097  )
        28           Si  tau(  28) = (   0.3762148   0.1250695   0.3797103  )
        29           Si  tau(  29) = (   0.5002396  -0.0000625   0.5054957  )
        30           Si  tau(  30) = (   0.6263356   0.1245892   0.6320791  )
        31           Si  tau(  31) = (   0.8754047   0.1248212   0.3800653  )
        32           Si  tau(  32) = (   0.7512020   0.2504132   0.5052384  )
        33           Si  tau(  33) = (   0.1254932   0.3735676   0.3796470  )
        34           Si  tau(  34) = (  -0.0003866   0.4993983   0.5055539  )
        35           Si  tau(  35) = (   0.1253060   0.6237390   0.6331276  )
        36           Si  tau(  36) = (   0.6262022   0.3745830   0.3797370  )
        37           Si  tau(  37) = (   0.3761506   0.6236194   0.3792899  )
        38           Si  tau(  38) = (   0.3751045   0.3752576   0.6320460  )
        39           Si  tau(  39) = (   0.5008942   0.4994299   0.5060050  )
        40           Si  tau(  40) = (   0.6248880   0.6235083   0.6316688  )
        41           Si  tau(  41) = (   0.8760557   0.6240784   0.3794703  )
        42           Si  tau(  42) = (   0.8760339   0.3743099   0.6321400  )
        43           Si  tau(  43) = (   0.1248237   0.8738990   0.3793210  )
        44           Si  tau(  44) = (   0.2508797   0.7495700   0.5055795  )
        45           Si  tau(  45) = (   0.6260537   0.8744392   0.3801143  )
        46           Si  tau(  46) = (   0.3760144   0.8732597   0.6322107  )
        47           Si  tau(  47) = (   0.7506991   0.7494439   0.5053703  )
        48           Si  tau(  48) = (   0.8766375   0.8733747   0.6330290  )
        49           Si  tau(  49) = (  -0.0005367   0.2499371   0.7588024  )
        50           Si  tau(  50) = (   0.2502477  -0.0008439   0.7588852  )
        51           Si  tau(  51) = (   0.3758670   0.1251079   0.8859074  )
        52           Si  tau(  52) = (   0.5014359   0.2488400   0.7593276  )
        53           Si  tau(  53) = (   0.7511876  -0.0004685   0.7593659  )
        54           Si  tau(  54) = (   0.8756917   0.1245219   0.8858002  )
        55           Si  tau(  55) = (   0.1260270   0.3749461   0.8855481  )
        56           Si  tau(  56) = (   0.2496009   0.4988062   0.7594085  )
        57           Si  tau(  57) = (   0.6263251   0.3752732   0.8855132  )
        58           Si  tau(  58) = (   0.3748395   0.6231205   0.8858797  )
        59           Si  tau(  59) = (   0.7501997   0.4984654   0.7595339  )
        60           Si  tau(  60) = (   0.8759261   0.6232973   0.8857210  )
        61           Si  tau(  61) = (   0.0006691   0.7488824   0.7582664  )
        62           Si  tau(  62) = (   0.1255366   0.8731707   0.8850371  )
        63           Si  tau(  63) = (   0.5007178   0.7480944   0.7590212  )
        64           Si  tau(  64) = (   0.6254709   0.8728433   0.8857200  )

     number of k points=     1  Fermi-Dirac smearing, width (Ry)=  0.0100
                       cart. coord. in units 2pi/alat
        k(    1) = (   0.0000000   0.0000000   0.0000000), wk =   2.0000000

     Dense  grid:   101263 G-vectors     FFT dimensions: (  75,  75,  75)

     Estimated max dynamical RAM per process >     162.48 MB

     Estimated total dynamical RAM >     625.21 MB

     Initial potential from superposition of free atoms

     starting charge     255.9608, renormalised to     256.0000
     Starting wfcs are  256 randomized atomic wfcs

     total cpu time spent up to now is        4.2 secs

     Self-consistent Calculation

     iteration #  1     ecut=    30.00 Ry     beta= 0.50
     Davidson diagonalization with overlap
     ethr =  1.00E-02,  avg # of iterations =  3.0

     Threshold (ethr) on eigenvalues was too large:
     Diagonalizing with lowered threshold

     Davidson diagonalization with overlap
     ethr =  6.26E-04,  avg # of iterations =  3.0

     total cpu time spent up to now is        4.4 secs

     total energy              =    -503.96101802 Ry
     estimated scf accuracy    <       1.77912359 Ry

     iteration #  2     ecut=    30.00 Ry     beta= 0.50
     Davidson diagonalization with overlap
     ethr =  6.95E-04,  avg # of iterations =  1.0

     total cpu time spent up to now is        4.5 secs

     total energy              =    -503.94237043 Ry
     estimated scf accuracy    <       0.34024859 Ry

     iteration #  3     ecut=    30.00 Ry     beta= 0.50
     Davidson diagonalization with overlap
     ethr =  1.33E-04,  avg # of iterations =  4.0

     total cpu time spent up to now is        4.6 secs

     total energy              =    -503.96285340 Ry
     estimated scf accuracy    <       0.00775384 Ry

     iteration #  4     ecut=    30.00 Ry     beta= 0.50
     Davidson diagonalization with overlap
     c_bands:  2 eigenvalues not converged
     ethr =  3.03E-06,  avg # of iterations = 20.0

     total cpu time spent up to now is        4.8 secs

     total energy              =    -503.96488441 Ry
     estimated scf accuracy    <       0.00894952 Ry

     iteration #  5     ecut=    30.00 Ry     beta= 0.50
     Davidson diagonalization with overlap
     ethr =  3.03E-06,  avg # of iterations = 18.0

     total cpu time spent up to now is        5.0 secs

     total energy              =    -503.96652673 Ry
     estimated scf accuracy    <       0.00056417 Ry

     iteration #  6     ecut=    30.00 Ry     beta= 0.50
     Davidson diagonalization with overlap
     ethr =  2.20E-07,  avg # of iterations =  4.0

     total cpu time spent up to now is        5.1 secs

     total energy              =    -503.96657044 Ry
     estimated scf accuracy    <       0.00011345 Ry

     iteration #  7     ecut=    30.00 Ry     beta= 0.50
     Davidson diagonalization with overlap
     ethr =  4.43E-08,  avg # of iterations =  5.0

     total cpu time spent up to now is        5.3 secs

     total energy              =    -503.96658101 Ry
     estimated scf accuracy    <       0.00001165 Ry

     iteration #  8     ecut=    30.00 Ry     beta= 0.50
     Davidson diagonalization with overlap
     ethr =  4.55E-09,  avg # of iterations =  5.0

     total cpu time spent up to now is        5.4 secs

     End of self-consistent calculation

          k = 0.0000 0.0000 0.0000 ( 12659 PWs)   bands (ev):

    -5.9014  -4.9174  -4.8953  -4.8632  -4.8536  -4.8480  -4.8038  -4.0260
    -4.0075  -3.9967  -3.9870  -3.9803  -3.9712  -3.9493  -3.9282  -3.9191
    -3.8911  -3.8788  -3.8716  -3.7385  -3.6936  -3.6913  -3.5572  -2.0049
    -1.9913  -1.9621  -1.9395  -1.9303  -1.8939  -1.8484  -1.8411  -1.8348
    -1.8254  -1.8199  -1.8007  -1.7694  -1.7627  -1.7539  -1.7351  -1.7067
    -1.6912  -1.0917  -1.0119  -0.9943  -0.9696   0.2672   0.2848   0.2930
     0.2980   0.3203   0.3281   0.3378   0.3456   0.3530   0.3587   0.3689
     0.3760   2.0240   2.0281   2.0351   2.0374   2.0452   2.0490   2.0539
     2.0568   2.0667   2.0731   2.0889   2.0920   2.1158   2.1238   2.1272
     2.1315   2.1402   2.1491   2.1553   2.1599   2.1661   2.1696   2.1854
     2.1937   2.2014   2.2052   2.2910   2.2968   2.3016   2.3138   2.9597
     2.9633   2.9963   3.0222   3.0298   3.0478   3.8715   3.8826   3.8889
     3.8943   3.8982   3.9057   3.9115   3.9410   3.9583   3.9742   3.9795
     4.0569   4.3745   4.3914   4.4028   4.4164   4.4195   4.4294   4.4402
     4.4424   4.4626   4.4762   4.4973   4.5018   4.5192   4.5290   4.5442
     4.5523   4.5764   4.6110   4.6284   4.8701   5.6554   5.7178   5.8196
     6.4236   6.4283   6.4956   6.5210   6.5525   6.5708   6.8302   6.8367
     6.8760   6.8933   6.9173   6.9446   7.0298   7.0373   7.0405   7.0723
     8.0362   8.0452   8.0573   8.0602   8.0765   8.0916   8.0960   8.0995
     8.1430   8.1456

     the Fermi energy is     6.0612 ev

!    total energy              =    -503.96658412 Ry
     estimated scf accuracy    <       0.00000089 Ry
     smearing contrib. (-TS)   =      -0.04043034 Ry
     internal energy E=F+TS    =    -503.92615378 Ry

     The total energy is F=E-TS. E is the sum of the following terms:
     one-electron contribution =     138.93197719 Ry
     hartree contribution      =      37.60310930 Ry
     xc contribution           =    -152.63647050 Ry
     ewald contribution        =    -527.82476976 Ry

     convergence has been achieved in   8 iterations

     Forces acting on atoms (cartesian axes, Ry/au):

     atom    1 type  1   force =     0.00281904   -0.03049422    0.01076007
     atom    2 type  1   force =     0.00497293   -0.00360389    0.00005216
     atom    3 type  1   force =     0.00255594   -0.02416901    0.00001498
     atom    4 type  1   force =    -0.00189908   -0.00037914    0.01050108
     atom    5 type  1   force =    -0.00016809   -0.00074725    0.00159527
     atom    6 type  1   force =    -0.00050983   -0.03041260    0.01352849
     atom    7 type  1   force =    -0.00043700    0.00254663    0.00408993
     atom    8 type  1   force =     0.00257853   -0.00242418   -0.00429643
     atom    9 type  1   force =     0.00232147   -0.02368379    0.00314036
     atom   10 type  1   force =    -0.00208511   -0.00247844    0.00828591
     atom   11 type  1   force =     0.00026058    0.00287067    0.01098598
     atom   12 type  1   force =     0.00235060   -0.00367252    0.00118095
     atom   13 type  1   force =    -0.00145413    0.00299143   -0.00081333
     atom   14 type  1   force =    -0.00050793   -0.00150319    0.00125763
     atom   15 type  1   force =    -0.00162902    0.00135227    0.00709100
     atom   16 type  1   force =     0.00123922    0.00333670    0.00706429
     atom   17 type  1   force =    -0.00164814   -0.00129427   -0.00203294
     atom   18 type  1   force =    -0.00215240    0.00620045    0.00294861
     atom   19 type  1   force =     0.00609211    0.00048504    0.00533088
     atom   20 type  1   force =     0.00176634    0.00464602    0.01382667
     atom   21 type  1   force =     0.00087292    0.02682814   -0.00314072
     atom   22 type  1   force =     0.00318477    0.00074421    0.00034944
     atom   23 type  1   force =    -0.00067352    0.00181811    0.00582083
     atom   24 type  1   force =    -0.00355240    0.03144342   -0.00394271
     atom   25 type  1   force =     0.00271537   -0.02385435    0.00166368
     atom   26 type  1   force =     0.00486925    0.00365457   -0.00167401
     atom   27 type  1   force =    -0.00088391   -0.00646890    0.00539055
     atom   28 type  1   force =    -0.00475867   -0.00401483   -0.00178081
     atom   29 type  1   force =     0.00329134   -0.02469839    0.00350316
     atom   30 type  1   force =    -0.00017178   -0.00360409   -0.00019370
     atom   31 type  1   force =    -0.00172827   -0.00498953   -0.00440651
     atom   32 type  1   force =    -0.00199005   -0.00335258    0.00423911
     atom   33 type  1   force =    -0.00160301    0.00261428    0.00033601
     atom   34 type  1   force =     0.00710841   -0.00004280    0.00182999
     atom   35 type  1   force =     0.00139712    0.00146832   -0.00656710
     atom   36 type  1   force =    -0.00244808   -0.00146674   -0.00312404
     atom   37 type  1   force =    -0.00204971    0.00410757    0.00089387
     atom   38 type  1   force =     0.00209559   -0.00789638    0.00391821
     atom   39 type  1   force =    -0.00251070   -0.00163036   -0.00310250
     atom   40 type  1   force =     0.00649616    0.00264775    0.00403139
     atom   41 type  1   force =    -0.00515089    0.00065703   -0.00323298
     atom   42 type  1   force =    -0.00469540    0.00126832    0.00144658
     atom   43 type  1   force =     0.00041343    0.02336922   -0.00061649
     atom   44 type  1   force =    -0.00221709   -0.00215907    0.00082179
     atom   45 type  1   force =    -0.00339652    0.02307953   -0.00438571
     atom   46 type  1   force =    -0.00045697    0.02698503    0.00171549
     atom   47 type  1   force =     0.00107331    0.00032270    0.00438922
     atom   48 type  1   force =    -0.00612996    0.02632486   -0.00340561
     atom   49 type  1   force =     0.00689806   -0.00173573    0.00035963
     atom   50 type  1   force =     0.00186560   -0.02071802   -0.00194551
     atom   51 type  1   force =    -0.00262850   -0.00545546   -0.01350018
     atom   52 type  1   force =    -0.00237014    0.00615565   -0.00451121
     atom   53 type  1   force =    -0.00197080   -0.02593131   -0.00229066
     atom   54 type  1   force =    -0.00294123   -0.00034360   -0.00964745
     atom   55 type  1   force =    -0.00375383   -0.00818323   -0.00980247
     atom   56 type  1   force =     0.00422020    0.00348433   -0.00397060
     atom   57 type  1   force =    -0.00365652   -0.00863128   -0.00644398
     atom   58 type  1   force =     0.00278988    0.00134811   -0.01160053
     atom   59 type  1   force =     0.00312030    0.00629345   -0.00751249
     atom   60 type  1   force =    -0.00140269    0.00317752   -0.01097023
     atom   61 type  1   force =     0.00009868   -0.00023722    0.00437462
     atom   62 type  1   force =    -0.00262523    0.02772606   -0.00805644
     atom   63 type  1   force =    -0.00242206    0.00261357   -0.00091129
     atom   64 type  1   force =     0.00121149    0.02771542   -0.00885920

     Total force =     0.120416     Total SCF correction =     0.001682


     Computing stress (Cartesian axis) and pressure

          total   stress  (Ry/bohr**3)                   (kbar)     P=      -17.41
  -0.00008734  -0.00001478   0.00002655          -12.85       -2.17        3.91
  -0.00001478  -0.00013364  -0.00000570           -2.17      -19.66       -0.84
   0.00002655  -0.00000570  -0.00013415            3.91       -0.84      -19.73

 
     init_run     :      0.79s CPU      4.12s WALL (       1 calls)
     electrons    :      1.12s CPU      1.21s WALL (       1 calls)
     forces       :      0.04s CPU      0.04s WALL (       1 calls)
     stress       :      0.15s CPU      0.16s WALL (       1 calls)

     Called by init_run:
     wfcinit      :      0.45s CPU      3.63s WALL (       1 calls)
                                        3.63s GPU  (       1 calls)
     potinit      :      0.15s CPU      0.22s WALL (       1 calls)
     hinit0       :      0.17s CPU      0.20s WALL (       1 calls)

     Called by electrons:
     c_bands      :      0.82s CPU      0.87s WALL (       9 calls)
     sum_band     :      0.16s CPU      0.19s WALL (       9 calls)
     v_of_rho     :      0.07s CPU      0.15s WALL (       9 calls)
     mix_rho      :      0.06s CPU      0.07s WALL (       9 calls)

     Called by c_bands:
     init_us_2    :      0.02s CPU      0.03s WALL (      19 calls)
     init_us_2:gp :      0.02s CPU      0.03s WALL (      19 calls)
     regterg      :      0.75s CPU      0.79s WALL (       9 calls)

     Called by *egterg:
     rdiaghg      :      0.33s CPU      0.99s WALL (      71 calls)
                                        0.97s GPU  (      71 calls)
     h_psi        :      0.74s CPU      3.29s WALL (      73 calls)
                                        3.29s GPU  (      73 calls)
     g_psi        :      0.00s CPU      0.00s WALL (      63 calls)
                                        0.00s GPU  (      63 calls)

     Called by h_psi:
     h_psi:calbec :      0.39s CPU      2.87s WALL (      73 calls)
                                        2.87s GPU  (      73 calls)
     vloc_psi     :      0.31s CPU      0.38s WALL (      73 calls)
                                        0.38s GPU  (      73 calls)
     add_vuspsi   :      0.02s CPU      0.04s WALL (      73 calls)
                                        0.04s GPU  (      73 calls)

     General routines
     calbec       :      0.40s CPU      2.88s WALL (      78 calls)
     fft          :      0.19s CPU      0.29s WALL (      79 calls)
                                        0.09s GPU  (      51 calls)
     ffts         :      0.02s CPU      0.02s WALL (       9 calls)
     fftw         :      0.33s CPU      0.46s WALL (    1029 calls)
                                        0.42s GPU  (    1029 calls)
 
     Parallel routines
 
     PWSCF        :      2.13s CPU      5.59s WALL

 
   This run was terminated on:  10:58:23  10May2023            

=------------------------------------------------------------------------------=
   JOB DONE.
=------------------------------------------------------------------------------=
