An instance of this daemon is already running
An instance of this daemon is already running

     Program PWSCF v.7.1 starts on 10May2023 at 11: 4:26 

     This program is part of the open-source Quantum ESPRESSO suite
     for quantum simulation of materials; please cite
         "P. Giannozzi et al., J. Phys.:Condens. Matter 21 395502 (2009);
         "P. Giannozzi et al., J. Phys.:Condens. Matter 29 465901 (2017);
         "P. Giannozzi et al., J. Chem. Phys. 152 154105 (2020);
          URL http://www.quantum-espresso.org", 
     in publications or presentations arising from this work. More details at
     http://www.quantum-espresso.org/quote

     Parallel version (MPI & OpenMP), running on       4 processor cores
     Number of MPI processes:                 4
     Threads/MPI process:                     1

     MPI processes distributed on     1 nodes
     149908 MiB available memory on the printing compute node when the environment starts
 
     Reading input from pw-si-61.in
Warning: card &CELL ignored
Warning: card / ignored

     Current dimensions of program PWSCF are:
     Max number of different atomic species (ntypx) = 10
     Max number of k-points (npk) =  40000
     Max angular momentum in pseudopotentials (lmaxx) =  4

     IMPORTANT: XC functional enforced from input :
     Exchange-correlation= PBE
                           (   1   4   3   4   0   0   0)
     Any further DFT definition will be discarded
     Please, verify this is what you really want


     gamma-point specific algorithms are used
 
     K-points division:     npool     =       2
     R & G space division:  proc/nbgrp/npool/nimage =       2
     Subspace diagonalization in iterative solution of the eigenvalue problem:
     a serial algorithm will be used

     Message from routine divide_et_impera:
     suboptimal parallelization: some nodes have no k-points
 
     Parallelization info
     --------------------
     sticks:   dense  smooth     PW     G-vecs:    dense   smooth      PW
     Min        2070    2070    545               100619   100619   13649
     Max        2071    2071    548               100622   100622   13656
     Sum        4141    4141   1093               201241   201241   27305
 
     Using Slab Decomposition
 


     bravais-lattice index     =            0
     lattice parameter (alat)  =      20.6566  a.u.
     unit-cell volume          =    9065.9349 (a.u.)^3
     number of atoms/cell      =           64
     number of atomic types    =            1
     number of electrons       =       256.00
     number of Kohn-Sham states=          154
     kinetic-energy cutoff     =      30.0000  Ry
     charge density cutoff     =     120.0000  Ry
     scf convergence threshold =      1.0E-06
     mixing beta               =       0.5000
     number of iterations used =            8  plain     mixing
     Exchange-correlation= PBE
                           (   1   4   3   4   0   0   0)

     GPU acceleration is ACTIVE.
     GPU-aware MPI enabled

     Message from routine print_cuda_info:
     High GPU oversubscription detected. Are you sure this is what you want?

     celldm(1)=  20.656631  celldm(2)=   0.000000  celldm(3)=   0.000000
     celldm(4)=   0.000000  celldm(5)=   0.000000  celldm(6)=   0.000000

     crystal axes: (cart. coord. in units of alat)
               a(1) = (   1.000000   0.000000   0.000000 )  
               a(2) = (   0.000000   1.014619   0.000000 )  
               a(3) = (   0.000000   0.000000   1.013750 )  

     reciprocal axes: (cart. coord. in units 2 pi/alat)
               b(1) = (  1.000000  0.000000  0.000000 )  
               b(2) = (  0.000000  0.985591  0.000000 )  
               b(3) = (  0.000000  0.000000  0.986436 )  


     PseudoPot. # 1 for Si read from file:
     /home/ppiaggi/pseudos/Si_ONCV_PBE_sr.upf
     MD5 check sum: 8553c464762ac42b85b1eed164b4d029
     Pseudo is Norm-conserving, Zval =  4.0
     Generated using ONCVPSP code by D. R. Hamann
     Using radial grid of 1510 points,  4 beta functions with: 
                l(1) =   0
                l(2) =   0
                l(3) =   1
                l(4) =   1

     atomic species   valence    mass     pseudopotential
        Si             4.00    28.08500     Si( 1.00)

     No symmetry found



   Cartesian axes

     site n.     atom                  positions (alat units)
         1           Si  tau(   1) = (   0.0001896  -0.0006126  -0.0007721  )
         2           Si  tau(   2) = (  -0.0004890   0.2523765   0.2511079  )
         3           Si  tau(   3) = (   0.2515034   0.0003747   0.2524586  )
         4           Si  tau(   4) = (   0.2511475   0.2524064  -0.0000978  )
         5           Si  tau(   5) = (   0.1263431   0.1253685   0.1261385  )
         6           Si  tau(   6) = (   0.5027010  -0.0001341  -0.0004827  )
         7           Si  tau(   7) = (   0.5037225   0.2510185   0.2521595  )
         8           Si  tau(   8) = (   0.6290079   0.1256912   0.1253666  )
         9           Si  tau(   9) = (   0.7556263  -0.0007619   0.2518734  )
        10           Si  tau(  10) = (   0.7543885   0.2512163  -0.0000496  )
        11           Si  tau(  11) = (  -0.0003223   0.5041784  -0.0003694  )
        12           Si  tau(  12) = (   0.2510239   0.5028121   0.2522657  )
        13           Si  tau(  13) = (   0.1264746   0.6289361   0.1255990  )
        14           Si  tau(  14) = (   0.3768813   0.3784270   0.1262874  )
        15           Si  tau(  15) = (   0.5026963   0.5029652   0.0000586  )
        16           Si  tau(  16) = (   0.6296142   0.6286573   0.1258661  )
        17           Si  tau(  17) = (   0.8804346   0.3782750   0.1267035  )
        18           Si  tau(  18) = (   0.7543388   0.5036988   0.2513839  )
        19           Si  tau(  19) = (   0.0001186   0.7543873   0.2517566  )
        20           Si  tau(  20) = (   0.2506673   0.7558339   0.0006712  )
        21           Si  tau(  21) = (   0.3774899   0.8809278   0.1257897  )
        22           Si  tau(  22) = (   0.5026623   0.7546202   0.2526388  )
        23           Si  tau(  23) = (   0.7555288   0.7545141   0.0003538  )
        24           Si  tau(  24) = (   0.8813894   0.8812496   0.1251866  )
        25           Si  tau(  25) = (  -0.0004533   0.0003232   0.5026695  )
        26           Si  tau(  26) = (   0.2513082   0.2513462   0.5034674  )
        27           Si  tau(  27) = (   0.1259978   0.1260657   0.6294320  )
        28           Si  tau(  28) = (   0.3769876   0.1251343   0.3784014  )
        29           Si  tau(  29) = (   0.5036782  -0.0000830   0.5036343  )
        30           Si  tau(  30) = (   0.6284773   0.1255810   0.6299805  )
        31           Si  tau(  31) = (   0.8808602   0.1249692   0.3781961  )
        32           Si  tau(  32) = (   0.7549477   0.2508688   0.5038924  )
        33           Si  tau(  33) = (   0.1258679   0.3769149   0.3771404  )
        34           Si  tau(  34) = (   0.0008247   0.5035947   0.5032434  )
        35           Si  tau(  35) = (   0.1259986   0.6285759   0.6292544  )
        36           Si  tau(  36) = (   0.6290638   0.3774697   0.3783873  )
        37           Si  tau(  37) = (   0.3771418   0.6298753   0.3768021  )
        38           Si  tau(  38) = (   0.3780803   0.3782657   0.6286716  )
        39           Si  tau(  39) = (   0.5025299   0.5029020   0.5028240  )
        40           Si  tau(  40) = (   0.6294654   0.6294724   0.6299956  )
        41           Si  tau(  41) = (   0.8802277   0.6286953   0.3783209  )
        42           Si  tau(  42) = (   0.8814001   0.3770573   0.6299929  )
        43           Si  tau(  43) = (   0.1249110   0.8816985   0.3783747  )
        44           Si  tau(  44) = (   0.2516468   0.7553821   0.5027235  )
        45           Si  tau(  45) = (   0.6292770   0.8810357   0.3781323  )
        46           Si  tau(  46) = (   0.3777303   0.8812611   0.6286142  )
        47           Si  tau(  47) = (   0.7551903   0.7553233   0.5033388  )
        48           Si  tau(  48) = (   0.8811993   0.8809512   0.6299255  )
        49           Si  tau(  49) = (   0.0001032   0.2516124   0.7557818  )
        50           Si  tau(  50) = (   0.2520203  -0.0008334   0.7559737  )
        51           Si  tau(  51) = (   0.3774212   0.1253675   0.8803213  )
        52           Si  tau(  52) = (   0.5024909   0.2520581   0.7545522  )
        53           Si  tau(  53) = (   0.7552977   0.0009126   0.7557059  )
        54           Si  tau(  54) = (   0.8800606   0.1265479   0.8817367  )
        55           Si  tau(  55) = (   0.1256673   0.3775799   0.8805299  )
        56           Si  tau(  56) = (   0.2514602   0.5034808   0.7558908  )
        57           Si  tau(  57) = (   0.6292879   0.3771840   0.8813471  )
        58           Si  tau(  58) = (   0.3769635   0.6285696   0.8805507  )
        59           Si  tau(  59) = (   0.7549161   0.5029204   0.7559071  )
        60           Si  tau(  60) = (   0.8811083   0.6290393   0.8807297  )
        61           Si  tau(  61) = (   0.0000958   0.7541737   0.7558024  )
        62           Si  tau(  62) = (   0.1258292   0.8812114   0.8816237  )
        63           Si  tau(  63) = (   0.5022600   0.7543047   0.7552980  )
        64           Si  tau(  64) = (   0.6292653   0.8804371   0.8818101  )

     number of k points=     1  Fermi-Dirac smearing, width (Ry)=  0.0100
                       cart. coord. in units 2pi/alat
        k(    1) = (   0.0000000   0.0000000   0.0000000), wk =   2.0000000

     Dense  grid:   100621 G-vectors     FFT dimensions: (  75,  75,  75)

     Estimated max dynamical RAM per process >     161.64 MB

     Estimated total dynamical RAM >     622.01 MB

     Initial potential from superposition of free atoms

     starting charge     255.9608, renormalised to     256.0000
     Starting wfcs are  256 randomized atomic wfcs

     total cpu time spent up to now is        4.0 secs

     Self-consistent Calculation

     iteration #  1     ecut=    30.00 Ry     beta= 0.50
     Davidson diagonalization with overlap
     ethr =  1.00E-02,  avg # of iterations =  3.0

     Threshold (ethr) on eigenvalues was too large:
     Diagonalizing with lowered threshold

     Davidson diagonalization with overlap
     ethr =  6.32E-04,  avg # of iterations =  4.0

     total cpu time spent up to now is        4.3 secs

     total energy              =    -503.95352535 Ry
     estimated scf accuracy    <       1.79399237 Ry

     iteration #  2     ecut=    30.00 Ry     beta= 0.50
     Davidson diagonalization with overlap
     ethr =  7.01E-04,  avg # of iterations =  2.0

     total cpu time spent up to now is        4.4 secs

     total energy              =    -503.93513545 Ry
     estimated scf accuracy    <       0.34120084 Ry

     iteration #  3     ecut=    30.00 Ry     beta= 0.50
     Davidson diagonalization with overlap
     ethr =  1.33E-04,  avg # of iterations =  4.0

     total cpu time spent up to now is        4.5 secs

     total energy              =    -503.95578216 Ry
     estimated scf accuracy    <       0.00868321 Ry

     iteration #  4     ecut=    30.00 Ry     beta= 0.50
     Davidson diagonalization with overlap
     c_bands:  4 eigenvalues not converged
     ethr =  3.39E-06,  avg # of iterations = 20.0

     total cpu time spent up to now is        4.7 secs

     total energy              =    -503.95809154 Ry
     estimated scf accuracy    <       0.00892897 Ry

     iteration #  5     ecut=    30.00 Ry     beta= 0.50
     Davidson diagonalization with overlap
     c_bands:  3 eigenvalues not converged
     ethr =  3.39E-06,  avg # of iterations = 20.0

     total cpu time spent up to now is        4.9 secs

     total energy              =    -503.95971729 Ry
     estimated scf accuracy    <       0.00064732 Ry

     iteration #  6     ecut=    30.00 Ry     beta= 0.50
     Davidson diagonalization with overlap
     ethr =  2.53E-07,  avg # of iterations =  3.0

     total cpu time spent up to now is        5.0 secs

     total energy              =    -503.95976698 Ry
     estimated scf accuracy    <       0.00011964 Ry

     iteration #  7     ecut=    30.00 Ry     beta= 0.50
     Davidson diagonalization with overlap
     ethr =  4.67E-08,  avg # of iterations =  5.0

     total cpu time spent up to now is        5.2 secs

     total energy              =    -503.95978174 Ry
     estimated scf accuracy    <       0.00000777 Ry

     iteration #  8     ecut=    30.00 Ry     beta= 0.50
     Davidson diagonalization with overlap
     ethr =  3.03E-09,  avg # of iterations =  4.0

     total cpu time spent up to now is        5.3 secs

     total energy              =    -503.95978457 Ry
     estimated scf accuracy    <       0.00000133 Ry

     iteration #  9     ecut=    30.00 Ry     beta= 0.50
     Davidson diagonalization with overlap
     ethr =  5.21E-10,  avg # of iterations =  4.0

     total cpu time spent up to now is        5.4 secs

     End of self-consistent calculation

          k = 0.0000 0.0000 0.0000 ( 12605 PWs)   bands (ev):

    -5.8877  -4.9001  -4.8870  -4.8677  -4.8137  -4.8020  -4.7858  -4.0343
    -4.0028  -3.9912  -3.9477  -3.9299  -3.9257  -3.9170  -3.9137  -3.9052
    -3.8459  -3.8431  -3.8296  -3.7105  -3.6611  -3.6227  -3.5213  -2.0043
    -1.9863  -1.9130  -1.9025  -1.8961  -1.8410  -1.8187  -1.8003  -1.7952
    -1.7842  -1.7437  -1.7413  -1.7341  -1.7221  -1.7163  -1.6864  -1.6626
    -1.6363  -1.0511  -1.0095  -0.9757  -0.9072   0.3132   0.3264   0.3343
     0.3386   0.3667   0.3726   0.3800   0.3874   0.3927   0.3983   0.4269
     0.4495   2.0257   2.0303   2.0365   2.0411   2.0633   2.0718   2.0823
     2.0920   2.0982   2.1049   2.1163   2.1193   2.1595   2.1717   2.1761
     2.1851   2.1904   2.1915   2.2015   2.2021   2.2084   2.2162   2.2395
     2.2492   2.2712   2.3119   2.3245   2.3429   2.3551   2.3885   2.9501
     2.9932   3.0634   3.0643   3.0941   3.0985   3.8429   3.9158   3.9459
     3.9503   3.9544   3.9575   3.9696   3.9800   4.0137   4.0288   4.0773
     4.0990   4.2574   4.4395   4.4636   4.4705   4.4807   4.5000   4.5085
     4.5138   4.5184   4.5235   4.5345   4.5578   4.5597   4.5803   4.5956
     4.6012   4.6277   4.6814   4.8048   4.9052   5.7112   5.7601   5.8968
     6.4120   6.4739   6.5410   6.5678   6.6208   6.6361   6.8461   6.8789
     6.9473   6.9524   6.9939   7.0066   7.0915   7.1055   7.1237   7.1375
     7.9943   8.1016   8.1059   8.1092   8.1672   8.1684   8.1751   8.1857
     8.1890   8.1927

     the Fermi energy is     6.1094 ev

!    total energy              =    -503.95978451 Ry
     estimated scf accuracy    <       0.00000053 Ry
     smearing contrib. (-TS)   =      -0.04256945 Ry
     internal energy E=F+TS    =    -503.91721507 Ry

     The total energy is F=E-TS. E is the sum of the following terms:
     one-electron contribution =     140.16455856 Ry
     hartree contribution      =      37.49067394 Ry
     xc contribution           =    -152.81473736 Ry
     ewald contribution        =    -528.75771020 Ry

     convergence has been achieved in   9 iterations

     Forces acting on atoms (cartesian axes, Ry/au):

     atom    1 type  1   force =     0.01606727   -0.01449682   -0.01447984
     atom    2 type  1   force =     0.02030510   -0.00709825    0.00377207
     atom    3 type  1   force =     0.00008438   -0.02533281   -0.00105316
     atom    4 type  1   force =     0.00245102   -0.00307723   -0.01878863
     atom    5 type  1   force =    -0.00151040    0.00005281   -0.00513292
     atom    6 type  1   force =     0.00017204   -0.02034223   -0.01627586
     atom    7 type  1   force =    -0.00474089    0.00274459   -0.00053492
     atom    8 type  1   force =     0.00033499   -0.00642427    0.00085743
     atom    9 type  1   force =    -0.00537988   -0.01885235   -0.00233694
     atom   10 type  1   force =     0.00027316    0.00491813   -0.01489515
     atom   11 type  1   force =     0.02022600   -0.00177912   -0.01767271
     atom   12 type  1   force =     0.00190300    0.00469980   -0.00184736
     atom   13 type  1   force =    -0.00147684   -0.00026192   -0.00004507
     atom   14 type  1   force =     0.00356286   -0.00763910   -0.00149931
     atom   15 type  1   force =     0.00178245    0.00315377   -0.01937039
     atom   16 type  1   force =    -0.00564022    0.00327790   -0.00291586
     atom   17 type  1   force =    -0.02095230   -0.00182072   -0.01022274
     atom   18 type  1   force =    -0.00143640   -0.00147150    0.00631545
     atom   19 type  1   force =     0.01822698    0.00488062    0.00088494
     atom   20 type  1   force =     0.00545187   -0.00055254   -0.02207373
     atom   21 type  1   force =    -0.00003824    0.02230875    0.00049045
     atom   22 type  1   force =     0.00521514    0.00610379   -0.00630928
     atom   23 type  1   force =    -0.00306698    0.00449624   -0.01982232
     atom   24 type  1   force =    -0.01814318    0.01789231   -0.00073283
     atom   25 type  1   force =     0.02180518   -0.02456756    0.01211387
     atom   26 type  1   force =     0.00235357    0.00267388    0.00242666
     atom   27 type  1   force =     0.00108867   -0.00700700    0.00167570
     atom   28 type  1   force =     0.00417703    0.00012067   -0.00297583
     atom   29 type  1   force =    -0.00160912   -0.02128480    0.00106848
     atom   30 type  1   force =     0.00248595   -0.00146199   -0.00150233
     atom   31 type  1   force =    -0.02146232    0.00439470   -0.00796645
     atom   32 type  1   force =    -0.00195343    0.00216968    0.00261393
     atom   33 type  1   force =     0.00057625   -0.00063316    0.00144766
     atom   34 type  1   force =     0.01582663   -0.00387160    0.00276805
     atom   35 type  1   force =     0.00441996    0.00401114    0.00003517
     atom   36 type  1   force =     0.00143770   -0.00311809   -0.00463839
     atom   37 type  1   force =    -0.00151964   -0.00567561    0.00299584
     atom   38 type  1   force =    -0.00666689   -0.00340889    0.00203345
     atom   39 type  1   force =     0.00431391    0.00904690    0.00281221
     atom   40 type  1   force =    -0.00268990   -0.00358265   -0.00405625
     atom   41 type  1   force =    -0.01750198    0.00198429   -0.00528002
     atom   42 type  1   force =    -0.02119008    0.00144910   -0.00396977
     atom   43 type  1   force =     0.00421444    0.01758638   -0.00605907
     atom   44 type  1   force =    -0.00178025    0.00306054    0.00467203
     atom   45 type  1   force =    -0.00060194    0.01983869   -0.00357593
     atom   46 type  1   force =     0.00000131    0.01823727    0.00252904
     atom   47 type  1   force =    -0.00282774    0.00256381    0.00556764
     atom   48 type  1   force =    -0.01894857    0.02350652   -0.00297818
     atom   49 type  1   force =     0.01956289   -0.00161774    0.00146643
     atom   50 type  1   force =    -0.00285644   -0.01914088   -0.00345143
     atom   51 type  1   force =    -0.00037782    0.00157767    0.02249478
     atom   52 type  1   force =     0.00222989   -0.00035434    0.00506776
     atom   53 type  1   force =    -0.00496223   -0.02644283    0.00278826
     atom   54 type  1   force =    -0.01424962   -0.00639771    0.01891835
     atom   55 type  1   force =     0.00112682   -0.00034330    0.02287315
     atom   56 type  1   force =     0.00087377   -0.00182321   -0.00348560
     atom   57 type  1   force =    -0.00374586   -0.00190340    0.01801469
     atom   58 type  1   force =    -0.00035758    0.00402651    0.02543350
     atom   59 type  1   force =    -0.00111995    0.00163425   -0.00038744
     atom   60 type  1   force =    -0.02238360   -0.00202295    0.02223304
     atom   61 type  1   force =     0.02229328    0.00741447   -0.00109100
     atom   62 type  1   force =     0.00239435    0.01691751    0.01480041
     atom   63 type  1   force =     0.00357310    0.00709133    0.00212191
     atom   64 type  1   force =     0.00037934    0.01997255    0.01413438

     Total force =     0.144137     Total SCF correction =     0.001377


     Computing stress (Cartesian axis) and pressure

          total   stress  (Ry/bohr**3)                   (kbar)     P=      -12.69
  -0.00003922   0.00001713   0.00001990           -5.77        2.52        2.93
   0.00001713  -0.00011253  -0.00002760            2.52      -16.55       -4.06
   0.00001990  -0.00002760  -0.00010703            2.93       -4.06      -15.74

 
     init_run     :      0.77s CPU      3.99s WALL (       1 calls)
     electrons    :      1.23s CPU      1.34s WALL (       1 calls)
     forces       :      0.03s CPU      0.05s WALL (       1 calls)
     stress       :      0.16s CPU      0.16s WALL (       1 calls)

     Called by init_run:
     wfcinit      :      0.43s CPU      3.51s WALL (       1 calls)
                                        3.51s GPU  (       1 calls)
     potinit      :      0.14s CPU      0.22s WALL (       1 calls)
     hinit0       :      0.17s CPU      0.20s WALL (       1 calls)

     Called by electrons:
     c_bands      :      0.91s CPU      0.97s WALL (      10 calls)
     sum_band     :      0.19s CPU      0.21s WALL (      10 calls)
     v_of_rho     :      0.08s CPU      0.16s WALL (      10 calls)
     mix_rho      :      0.06s CPU      0.07s WALL (      10 calls)

     Called by c_bands:
     init_us_2    :      0.03s CPU      0.03s WALL (      21 calls)
     init_us_2:gp :      0.02s CPU      0.03s WALL (      21 calls)
     regterg      :      0.83s CPU      0.89s WALL (      10 calls)

     Called by *egterg:
     rdiaghg      :      0.37s CPU      1.00s WALL (      78 calls)
                                        0.98s GPU  (      78 calls)
     h_psi        :      0.76s CPU      3.25s WALL (      80 calls)
                                        3.25s GPU  (      80 calls)
     g_psi        :      0.00s CPU      0.00s WALL (      69 calls)
                                        0.00s GPU  (      69 calls)

     Called by h_psi:
     h_psi:calbec :      0.38s CPU      2.80s WALL (      80 calls)
                                        2.80s GPU  (      80 calls)
     vloc_psi     :      0.34s CPU      0.41s WALL (      80 calls)
                                        0.40s GPU  (      80 calls)
     add_vuspsi   :      0.03s CPU      0.04s WALL (      80 calls)
                                        0.04s GPU  (      80 calls)

     General routines
     calbec       :      0.39s CPU      2.80s WALL (      85 calls)
     fft          :      0.19s CPU      0.30s WALL (      87 calls)
                                        0.10s GPU  (      56 calls)
     ffts         :      0.02s CPU      0.02s WALL (      10 calls)
     fftw         :      0.37s CPU      0.50s WALL (    1140 calls)
                                        0.45s GPU  (    1140 calls)
 
     Parallel routines
 
     PWSCF        :      2.22s CPU      5.60s WALL

 
   This run was terminated on:  11: 4:31  10May2023            

=------------------------------------------------------------------------------=
   JOB DONE.
=------------------------------------------------------------------------------=
