An instance of this daemon is already running

     Program PWSCF v.7.1 starts on 10May2023 at 11: 1:25 

     This program is part of the open-source Quantum ESPRESSO suite
     for quantum simulation of materials; please cite
         "P. Giannozzi et al., J. Phys.:Condens. Matter 21 395502 (2009);
         "P. Giannozzi et al., J. Phys.:Condens. Matter 29 465901 (2017);
         "P. Giannozzi et al., J. Chem. Phys. 152 154105 (2020);
          URL http://www.quantum-espresso.org", 
     in publications or presentations arising from this work. More details at
     http://www.quantum-espresso.org/quote

     Parallel version (MPI & OpenMP), running on       4 processor cores
     Number of MPI processes:                 4
     Threads/MPI process:                     1

     MPI processes distributed on     1 nodes
     149858 MiB available memory on the printing compute node when the environment starts
 
     Reading input from pw-si-39.in
Warning: card &CELL ignored
Warning: card / ignored

     Current dimensions of program PWSCF are:
     Max number of different atomic species (ntypx) = 10
     Max number of k-points (npk) =  40000
     Max angular momentum in pseudopotentials (lmaxx) =  4

     IMPORTANT: XC functional enforced from input :
     Exchange-correlation= PBE
                           (   1   4   3   4   0   0   0)
     Any further DFT definition will be discarded
     Please, verify this is what you really want


     gamma-point specific algorithms are used
 
     K-points division:     npool     =       2
     R & G space division:  proc/nbgrp/npool/nimage =       2
     Subspace diagonalization in iterative solution of the eigenvalue problem:
     a serial algorithm will be used

     Message from routine divide_et_impera:
     suboptimal parallelization: some nodes have no k-points
 
     Parallelization info
     --------------------
     sticks:   dense  smooth     PW     G-vecs:    dense   smooth      PW
     Min        2041    2041    541                97690    97690   13273
     Max        2042    2042    544                97691    97691   13276
     Sum        4083    4083   1085               195381   195381   26549
 
     Using Slab Decomposition
 


     bravais-lattice index     =            0
     lattice parameter (alat)  =      20.7803  a.u.
     unit-cell volume          =    8805.4866 (a.u.)^3
     number of atoms/cell      =           64
     number of atomic types    =            1
     number of electrons       =       256.00
     number of Kohn-Sham states=          154
     kinetic-energy cutoff     =      30.0000  Ry
     charge density cutoff     =     120.0000  Ry
     scf convergence threshold =      1.0E-06
     mixing beta               =       0.5000
     number of iterations used =            8  plain     mixing
     Exchange-correlation= PBE
                           (   1   4   3   4   0   0   0)

     GPU acceleration is ACTIVE.
     GPU-aware MPI enabled

     Message from routine print_cuda_info:
     High GPU oversubscription detected. Are you sure this is what you want?

     celldm(1)=  20.780282  celldm(2)=   0.000000  celldm(3)=   0.000000
     celldm(4)=   0.000000  celldm(5)=   0.000000  celldm(6)=   0.000000

     crystal axes: (cart. coord. in units of alat)
               a(1) = (   1.000000   0.000000   0.000000 )  
               a(2) = (   0.000000   0.991282   0.000000 )  
               a(3) = (   0.000000   0.000000   0.989924 )  

     reciprocal axes: (cart. coord. in units 2 pi/alat)
               b(1) = (  1.000000  0.000000  0.000000 )  
               b(2) = (  0.000000  1.008795  0.000000 )  
               b(3) = (  0.000000  0.000000  1.010179 )  


     PseudoPot. # 1 for Si read from file:
     /home/ppiaggi/pseudos/Si_ONCV_PBE_sr.upf
     MD5 check sum: 8553c464762ac42b85b1eed164b4d029
     Pseudo is Norm-conserving, Zval =  4.0
     Generated using ONCVPSP code by D. R. Hamann
     Using radial grid of 1510 points,  4 beta functions with: 
                l(1) =   0
                l(2) =   0
                l(3) =   1
                l(4) =   1

     atomic species   valence    mass     pseudopotential
        Si             4.00    28.08500     Si( 1.00)

     No symmetry found



   Cartesian axes

     site n.     atom                  positions (alat units)
         1           Si  tau(   1) = (  -0.0007207   0.0003091  -0.0005114  )
         2           Si  tau(   2) = (   0.0000247   0.2464979   0.2500121  )
         3           Si  tau(   3) = (   0.2509585  -0.0005990   0.2493439  )
         4           Si  tau(   4) = (   0.2511796   0.2471670  -0.0006987  )
         5           Si  tau(   5) = (   0.1262767   0.1231020   0.1241765  )
         6           Si  tau(   6) = (   0.5028139  -0.0007829  -0.0005071  )
         7           Si  tau(   7) = (   0.5036516   0.2454089   0.2506290  )
         8           Si  tau(   8) = (   0.6299322   0.1232524   0.1239839  )
         9           Si  tau(   9) = (   0.7547722   0.0002758   0.2492064  )
        10           Si  tau(  10) = (   0.7542587   0.2470751   0.0007841  )
        11           Si  tau(  11) = (  -0.0006380   0.4922914  -0.0005365  )
        12           Si  tau(  12) = (   0.2510799   0.4918778   0.2488677  )
        13           Si  tau(  13) = (   0.1258905   0.6156942   0.1252647  )
        14           Si  tau(  14) = (   0.3767475   0.3685880   0.1242549  )
        15           Si  tau(  15) = (   0.5040245   0.4922299   0.0003885  )
        16           Si  tau(  16) = (   0.6284143   0.6161138   0.1255669  )
        17           Si  tau(  17) = (   0.8807161   0.3702550   0.1251910  )
        18           Si  tau(  18) = (   0.7544814   0.4932208   0.2495356  )
        19           Si  tau(  19) = (  -0.0002046   0.7385099   0.2496235  )
        20           Si  tau(  20) = (   0.2523693   0.7387935   0.0000953  )
        21           Si  tau(  21) = (   0.3779884   0.8612793   0.1249162  )
        22           Si  tau(  22) = (   0.5026630   0.7396462   0.2491202  )
        23           Si  tau(  23) = (   0.7547101   0.7387945  -0.0005710  )
        24           Si  tau(  24) = (   0.8810150   0.8626742   0.1251426  )
        25           Si  tau(  25) = (  -0.0007731  -0.0002674   0.5001411  )
        26           Si  tau(  26) = (   0.2510492   0.2464914   0.4996615  )
        27           Si  tau(  27) = (   0.1256279   0.1231042   0.6245969  )
        28           Si  tau(  28) = (   0.3769530   0.1237306   0.3745419  )
        29           Si  tau(  29) = (   0.5041415   0.0008211   0.5000793  )
        30           Si  tau(  30) = (   0.6296434   0.1223829   0.6251951  )
        31           Si  tau(  31) = (   0.8801570   0.1231566   0.3742042  )
        32           Si  tau(  32) = (   0.7552011   0.2460833   0.5002023  )
        33           Si  tau(  33) = (   0.1260100   0.3687251   0.3738017  )
        34           Si  tau(  34) = (  -0.0005969   0.4929661   0.5000770  )
        35           Si  tau(  35) = (   0.1264140   0.6155367   0.6247535  )
        36           Si  tau(  36) = (   0.6294542   0.3695587   0.3747509  )
        37           Si  tau(  37) = (   0.3766615   0.6165079   0.3748841  )
        38           Si  tau(  38) = (   0.3774954   0.3689316   0.6236013  )
        39           Si  tau(  39) = (   0.5026665   0.4934271   0.4989301  )
        40           Si  tau(  40) = (   0.6289329   0.6158902   0.6247852  )
        41           Si  tau(  41) = (   0.8801428   0.6152433   0.3744452  )
        42           Si  tau(  42) = (   0.8808575   0.3698076   0.6238292  )
        43           Si  tau(  43) = (   0.1253986   0.8612820   0.3741974  )
        44           Si  tau(  44) = (   0.2524592   0.7384976   0.4996946  )
        45           Si  tau(  45) = (   0.6287316   0.8611528   0.3742728  )
        46           Si  tau(  46) = (   0.3771751   0.8624506   0.6236111  )
        47           Si  tau(  47) = (   0.7544736   0.7389996   0.4997465  )
        48           Si  tau(  48) = (   0.8809154   0.8625269   0.6249145  )
        49           Si  tau(  49) = (   0.0005050   0.2462876   0.7499360  )
        50           Si  tau(  50) = (   0.2508028   0.0003005   0.7485948  )
        51           Si  tau(  51) = (   0.3783371   0.1224432   0.8748508  )
        52           Si  tau(  52) = (   0.5034777   0.2462560   0.7485878  )
        53           Si  tau(  53) = (   0.7549047  -0.0008077   0.7489116  )
        54           Si  tau(  54) = (   0.8816181   0.1224471   0.8741634  )
        55           Si  tau(  55) = (   0.1261720   0.3696246   0.8747763  )
        56           Si  tau(  56) = (   0.2524299   0.4925740   0.7499410  )
        57           Si  tau(  57) = (   0.6288340   0.3691543   0.8747237  )
        58           Si  tau(  58) = (   0.3776757   0.6150485   0.8738088  )
        59           Si  tau(  59) = (   0.7551931   0.4925184   0.7494921  )
        60           Si  tau(  60) = (   0.8809303   0.6164982   0.8750183  )
        61           Si  tau(  61) = (  -0.0002246   0.7393941   0.7483625  )
        62           Si  tau(  62) = (   0.1249146   0.8619090   0.8743517  )
        63           Si  tau(  63) = (   0.5038701   0.7393598   0.7488023  )
        64           Si  tau(  64) = (   0.6293655   0.8614092   0.8732431  )

     number of k points=     1  Fermi-Dirac smearing, width (Ry)=  0.0100
                       cart. coord. in units 2pi/alat
        k(    1) = (   0.0000000   0.0000000   0.0000000), wk =   2.0000000

     Dense  grid:    97691 G-vectors     FFT dimensions: (  75,  72,  72)

     Estimated max dynamical RAM per process >     156.17 MB

     Estimated total dynamical RAM >     600.81 MB

     Initial potential from superposition of free atoms

     starting charge     255.9608, renormalised to     256.0000
     Starting wfcs are  256 randomized atomic wfcs

     total cpu time spent up to now is        4.4 secs

     Self-consistent Calculation

     iteration #  1     ecut=    30.00 Ry     beta= 0.50
     Davidson diagonalization with overlap
     ethr =  1.00E-02,  avg # of iterations =  3.0

     Threshold (ethr) on eigenvalues was too large:
     Diagonalizing with lowered threshold

     Davidson diagonalization with overlap
     ethr =  6.65E-04,  avg # of iterations =  4.0

     total cpu time spent up to now is        4.6 secs

     total energy              =    -503.94061314 Ry
     estimated scf accuracy    <       1.88106579 Ry

     iteration #  2     ecut=    30.00 Ry     beta= 0.50
     Davidson diagonalization with overlap
     ethr =  7.35E-04,  avg # of iterations =  2.0

     total cpu time spent up to now is        4.7 secs

     total energy              =    -503.92215810 Ry
     estimated scf accuracy    <       0.34976553 Ry

     iteration #  3     ecut=    30.00 Ry     beta= 0.50
     Davidson diagonalization with overlap
     ethr =  1.37E-04,  avg # of iterations =  4.0

     total cpu time spent up to now is        4.7 secs

     total energy              =    -503.94430757 Ry
     estimated scf accuracy    <       0.01150570 Ry

     iteration #  4     ecut=    30.00 Ry     beta= 0.50
     Davidson diagonalization with overlap
     c_bands:  4 eigenvalues not converged
     ethr =  4.49E-06,  avg # of iterations = 20.0

     total cpu time spent up to now is        5.0 secs

     total energy              =    -503.94712361 Ry
     estimated scf accuracy    <       0.00933418 Ry

     iteration #  5     ecut=    30.00 Ry     beta= 0.50
     Davidson diagonalization with overlap
     ethr =  3.65E-06,  avg # of iterations =  7.0

     total cpu time spent up to now is        5.1 secs

     total energy              =    -503.94884899 Ry
     estimated scf accuracy    <       0.00089060 Ry

     iteration #  6     ecut=    30.00 Ry     beta= 0.50
     Davidson diagonalization with overlap
     ethr =  3.48E-07,  avg # of iterations =  3.0

     total cpu time spent up to now is        5.2 secs

     total energy              =    -503.94889286 Ry
     estimated scf accuracy    <       0.00019689 Ry

     iteration #  7     ecut=    30.00 Ry     beta= 0.50
     Davidson diagonalization with overlap
     ethr =  7.69E-08,  avg # of iterations =  5.0

     total cpu time spent up to now is        5.3 secs

     total energy              =    -503.94891686 Ry
     estimated scf accuracy    <       0.00001327 Ry

     iteration #  8     ecut=    30.00 Ry     beta= 0.50
     Davidson diagonalization with overlap
     ethr =  5.19E-09,  avg # of iterations =  4.0

     total cpu time spent up to now is        5.4 secs

     total energy              =    -503.94892129 Ry
     estimated scf accuracy    <       0.00000250 Ry

     iteration #  9     ecut=    30.00 Ry     beta= 0.50
     Davidson diagonalization with overlap
     ethr =  9.78E-10,  avg # of iterations =  4.0

     total cpu time spent up to now is        5.5 secs

     End of self-consistent calculation

          k = 0.0000 0.0000 0.0000 ( 12197 PWs)   bands (ev):

    -5.7922  -4.7719  -4.7604  -4.7552  -4.6967  -4.6790  -4.6519  -3.9061
    -3.8606  -3.8537  -3.7995  -3.7818  -3.7700  -3.7655  -3.7512  -3.7409
    -3.6858  -3.6756  -3.6640  -3.5208  -3.4728  -3.4530  -3.3741  -1.8484
    -1.7704  -1.7392  -1.6932  -1.6874  -1.6196  -1.5894  -1.5841  -1.5784
    -1.5489  -1.5315  -1.5278  -1.5159  -1.4860  -1.4777  -1.4728  -1.4636
    -1.4454  -0.9083  -0.8392  -0.7992  -0.7435   0.5590   0.5649   0.5712
     0.5902   0.5975   0.6110   0.6196   0.6340   0.6514   0.6551   0.6701
     0.6830   2.1696   2.1800   2.1907   2.2079   2.2260   2.2436   2.2684
     2.2689   2.2857   2.2890   2.3058   2.3133   2.3586   2.3700   2.3763
     2.3905   2.3932   2.4043   2.4175   2.4229   2.4426   2.4516   2.4597
     2.4622   2.5403   2.5633   2.5764   2.5914   2.6127   2.6213   3.1891
     3.2336   3.2437   3.2682   3.2974   3.3363   4.0982   4.1535   4.1605
     4.1768   4.1816   4.2189   4.2444   4.2541   4.2641   4.2868   4.2989
     4.3074   4.4519   4.6304   4.6865   4.7293   4.7498   4.7524   4.7742
     4.7834   4.8102   4.8257   4.8443   4.8475   4.8598   4.8696   4.8834
     4.9389   4.9481   4.9810   5.0085   5.0715   5.9794   6.1251   6.1511
     6.6642   6.7255   6.7419   6.8073   6.8486   6.8936   7.1564   7.1727
     7.1981   7.2056   7.2424   7.2713   7.4949   7.5012   7.5096   7.5361
     8.3271   8.4129   8.4243   8.4400   8.4458   8.4690   8.4785   8.4916
     8.5280   8.5458

     the Fermi energy is     6.3760 ev

!    total energy              =    -503.94892185 Ry
     estimated scf accuracy    <       0.00000023 Ry
     smearing contrib. (-TS)   =      -0.04790664 Ry
     internal energy E=F+TS    =    -503.90101521 Ry

     The total energy is F=E-TS. E is the sum of the following terms:
     one-electron contribution =     147.03428516 Ry
     hartree contribution      =      36.69320475 Ry
     xc contribution           =    -153.76662060 Ry
     ewald contribution        =    -533.86188452 Ry

     convergence has been achieved in   9 iterations

     Forces acting on atoms (cartesian axes, Ry/au):

     atom    1 type  1   force =     0.02981465   -0.02625129    0.03598404
     atom    2 type  1   force =     0.01957620   -0.00297774   -0.00419929
     atom    3 type  1   force =     0.00358952   -0.01607017    0.00120586
     atom    4 type  1   force =     0.00524015   -0.00900017    0.02985975
     atom    5 type  1   force =    -0.00140864   -0.00091542    0.00418159
     atom    6 type  1   force =     0.00858900   -0.01974492    0.03054210
     atom    7 type  1   force =    -0.00199214    0.00383606   -0.00677039
     atom    8 type  1   force =    -0.00739936   -0.00485883    0.00647525
     atom    9 type  1   force =    -0.00335292   -0.02012797    0.00203089
     atom   10 type  1   force =     0.00688585   -0.00491820    0.02247964
     atom   11 type  1   force =     0.02668040    0.00124852    0.03430380
     atom   12 type  1   force =     0.00367304    0.00346747    0.00393824
     atom   13 type  1   force =     0.00087244   -0.00090598   -0.00172809
     atom   14 type  1   force =     0.00782917    0.00057023    0.00744763
     atom   15 type  1   force =    -0.00680069    0.00228683    0.02870877
     atom   16 type  1   force =     0.00234195    0.00075467   -0.00084570
     atom   17 type  1   force =    -0.02120038   -0.00339081    0.00385310
     atom   18 type  1   force =    -0.00252701   -0.00169599    0.00118030
     atom   19 type  1   force =     0.01883090    0.00205579    0.00032369
     atom   20 type  1   force =    -0.00402652    0.00116780    0.02604289
     atom   21 type  1   force =    -0.00351796    0.02281641    0.00106654
     atom   22 type  1   force =    -0.00035786   -0.00300745    0.00539912
     atom   23 type  1   force =    -0.00281074    0.00476103    0.03569361
     atom   24 type  1   force =    -0.02196046    0.01504275   -0.00069441
     atom   25 type  1   force =     0.02231971   -0.01595585   -0.00514008
     atom   26 type  1   force =     0.00028441   -0.00179232   -0.00274018
     atom   27 type  1   force =     0.00048263   -0.00067570   -0.00197646
     atom   28 type  1   force =     0.00141538   -0.00784725    0.00362459
     atom   29 type  1   force =    -0.00567605   -0.02028638   -0.00673969
     atom   30 type  1   force =     0.00044359    0.00218070   -0.00204475
     atom   31 type  1   force =    -0.01807137   -0.00285202    0.00406619
     atom   32 type  1   force =    -0.00441149    0.00044139   -0.00359650
     atom   33 type  1   force =    -0.00094585    0.00472063    0.00741692
     atom   34 type  1   force =     0.02688559   -0.00074030   -0.00718521
     atom   35 type  1   force =     0.00156525    0.00038497   -0.00042258
     atom   36 type  1   force =    -0.00159894   -0.00104361    0.00273827
     atom   37 type  1   force =     0.00274646   -0.00487125   -0.00601450
     atom   38 type  1   force =     0.00094216    0.00268924    0.00224462
     atom   39 type  1   force =     0.00181987   -0.00153683    0.00027485
     atom   40 type  1   force =     0.00084293   -0.00219357   -0.00190605
     atom   41 type  1   force =    -0.01934196    0.00382532    0.00339307
     atom   42 type  1   force =    -0.01950395   -0.00470334    0.00711099
     atom   43 type  1   force =     0.00317191    0.01853696    0.00582876
     atom   44 type  1   force =    -0.00686701    0.00559061   -0.00183195
     atom   45 type  1   force =     0.00123090    0.02373608    0.00239029
     atom   46 type  1   force =     0.00416337    0.01809478    0.00373611
     atom   47 type  1   force =     0.00015238    0.00151309   -0.00142465
     atom   48 type  1   force =    -0.02337248    0.01516284   -0.00619438
     atom   49 type  1   force =     0.01839626    0.00242424   -0.00709640
     atom   50 type  1   force =     0.00425964   -0.01972771    0.00213282
     atom   51 type  1   force =    -0.00711877    0.00340692   -0.03521636
     atom   52 type  1   force =    -0.00144909   -0.00169135    0.00086146
     atom   53 type  1   force =     0.00038642   -0.01439797    0.00149153
     atom   54 type  1   force =    -0.03428447    0.00924291   -0.03109695
     atom   55 type  1   force =    -0.00064734    0.00179988   -0.03358676
     atom   56 type  1   force =    -0.00260612   -0.00262376   -0.00739045
     atom   57 type  1   force =     0.00140489    0.00034430   -0.03366380
     atom   58 type  1   force =     0.00589734    0.00427099   -0.02544574
     atom   59 type  1   force =    -0.00349233    0.00174408   -0.00179321
     atom   60 type  1   force =    -0.02198766    0.00056473   -0.03833901
     atom   61 type  1   force =     0.02214015   -0.00212639    0.00234462
     atom   62 type  1   force =     0.00499381    0.01849020   -0.02794547
     atom   63 type  1   force =    -0.00760255    0.00015534   -0.00341539
     atom   64 type  1   force =    -0.00353625    0.02160282   -0.02392748

     Total force =     0.179815     Total SCF correction =     0.000728


     Computing stress (Cartesian axis) and pressure

          total   stress  (Ry/bohr**3)                   (kbar)     P=       12.99
   0.00005722  -0.00004215   0.00002696            8.42       -6.20        3.97
  -0.00004215   0.00010384  -0.00003172           -6.20       15.28       -4.67
   0.00002696  -0.00003172   0.00010381            3.97       -4.67       15.27

 
     init_run     :      1.22s CPU      4.30s WALL (       1 calls)
     electrons    :      1.06s CPU      1.13s WALL (       1 calls)
     forces       :      0.04s CPU      0.04s WALL (       1 calls)
     stress       :      0.15s CPU      0.15s WALL (       1 calls)

     Called by init_run:
     wfcinit      :      0.50s CPU      3.45s WALL (       1 calls)
                                        3.45s GPU  (       1 calls)
     potinit      :      0.21s CPU      0.28s WALL (       1 calls)
     hinit0       :      0.49s CPU      0.51s WALL (       1 calls)

     Called by electrons:
     c_bands      :      0.74s CPU      0.80s WALL (      10 calls)
     sum_band     :      0.18s CPU      0.18s WALL (      10 calls)
     v_of_rho     :      0.10s CPU      0.17s WALL (      10 calls)
     mix_rho      :      0.05s CPU      0.06s WALL (      10 calls)

     Called by c_bands:
     init_us_2    :      0.03s CPU      0.03s WALL (      21 calls)
     init_us_2:gp :      0.03s CPU      0.03s WALL (      21 calls)
     regterg      :      0.67s CPU      0.72s WALL (      10 calls)

     Called by *egterg:
     rdiaghg      :      0.29s CPU      0.89s WALL (      65 calls)
                                        0.88s GPU  (      65 calls)
     h_psi        :      0.76s CPU      3.13s WALL (      67 calls)
                                        3.13s GPU  (      67 calls)
     g_psi        :      0.00s CPU      0.00s WALL (      56 calls)
                                        0.00s GPU  (      56 calls)

     Called by h_psi:
     h_psi:calbec :      0.47s CPU      2.78s WALL (      67 calls)
                                        2.78s GPU  (      67 calls)
     vloc_psi     :      0.26s CPU      0.31s WALL (      67 calls)
                                        0.31s GPU  (      67 calls)
     add_vuspsi   :      0.02s CPU      0.04s WALL (      67 calls)
                                        0.04s GPU  (      67 calls)

     General routines
     calbec       :      0.47s CPU      2.78s WALL (      72 calls)
     fft          :      0.52s CPU      0.60s WALL (      87 calls)
                                        0.11s GPU  (      56 calls)
     ffts         :      0.02s CPU      0.02s WALL (      10 calls)
     fftw         :      0.30s CPU      0.39s WALL (    1112 calls)
                                        0.35s GPU  (    1112 calls)
 
     Parallel routines
 
     PWSCF        :      2.49s CPU      5.68s WALL

 
   This run was terminated on:  11: 1:31  10May2023            

=------------------------------------------------------------------------------=
   JOB DONE.
=------------------------------------------------------------------------------=
