An instance of this daemon is already running
An instance of this daemon is already running

     Program PWSCF v.7.1 starts on 10May2023 at 11: 1: 1 

     This program is part of the open-source Quantum ESPRESSO suite
     for quantum simulation of materials; please cite
         "P. Giannozzi et al., J. Phys.:Condens. Matter 21 395502 (2009);
         "P. Giannozzi et al., J. Phys.:Condens. Matter 29 465901 (2017);
         "P. Giannozzi et al., J. Chem. Phys. 152 154105 (2020);
          URL http://www.quantum-espresso.org", 
     in publications or presentations arising from this work. More details at
     http://www.quantum-espresso.org/quote

     Parallel version (MPI & OpenMP), running on       4 processor cores
     Number of MPI processes:                 4
     Threads/MPI process:                     1

     MPI processes distributed on     1 nodes
     150529 MiB available memory on the printing compute node when the environment starts
 
     Reading input from pw-si-36.in
Warning: card &CELL ignored
Warning: card / ignored

     Current dimensions of program PWSCF are:
     Max number of different atomic species (ntypx) = 10
     Max number of k-points (npk) =  40000
     Max angular momentum in pseudopotentials (lmaxx) =  4

     IMPORTANT: XC functional enforced from input :
     Exchange-correlation= PBE
                           (   1   4   3   4   0   0   0)
     Any further DFT definition will be discarded
     Please, verify this is what you really want


     gamma-point specific algorithms are used
 
     K-points division:     npool     =       2
     R & G space division:  proc/nbgrp/npool/nimage =       2
     Subspace diagonalization in iterative solution of the eigenvalue problem:
     a serial algorithm will be used

     Message from routine divide_et_impera:
     suboptimal parallelization: some nodes have no k-points
 
     Parallelization info
     --------------------
     sticks:   dense  smooth     PW     G-vecs:    dense   smooth      PW
     Min        2020    2020    536                97636    97636   13260
     Max        2021    2021    537                97637    97637   13261
     Sum        4041    4041   1073               195273   195273   26521
 
     Using Slab Decomposition
 


     bravais-lattice index     =            0
     lattice parameter (alat)  =      20.5861  a.u.
     unit-cell volume          =    8803.1357 (a.u.)^3
     number of atoms/cell      =           64
     number of atomic types    =            1
     number of electrons       =       256.00
     number of Kohn-Sham states=          154
     kinetic-energy cutoff     =      30.0000  Ry
     charge density cutoff     =     120.0000  Ry
     scf convergence threshold =      1.0E-06
     mixing beta               =       0.5000
     number of iterations used =            8  plain     mixing
     Exchange-correlation= PBE
                           (   1   4   3   4   0   0   0)

     GPU acceleration is ACTIVE.
     GPU-aware MPI enabled

     Message from routine print_cuda_info:
     High GPU oversubscription detected. Are you sure this is what you want?

     celldm(1)=  20.586133  celldm(2)=   0.000000  celldm(3)=   0.000000
     celldm(4)=   0.000000  celldm(5)=   0.000000  celldm(6)=   0.000000

     crystal axes: (cart. coord. in units of alat)
               a(1) = (   1.000000   0.000000   0.000000 )  
               a(2) = (   0.000000   0.998880   0.000000 )  
               a(3) = (   0.000000   0.000000   1.010182 )  

     reciprocal axes: (cart. coord. in units 2 pi/alat)
               b(1) = (  1.000000  0.000000  0.000000 )  
               b(2) = (  0.000000  1.001121  0.000000 )  
               b(3) = (  0.000000  0.000000  0.989921 )  


     PseudoPot. # 1 for Si read from file:
     /home/ppiaggi/pseudos/Si_ONCV_PBE_sr.upf
     MD5 check sum: 8553c464762ac42b85b1eed164b4d029
     Pseudo is Norm-conserving, Zval =  4.0
     Generated using ONCVPSP code by D. R. Hamann
     Using radial grid of 1510 points,  4 beta functions with: 
                l(1) =   0
                l(2) =   0
                l(3) =   1
                l(4) =   1

     atomic species   valence    mass     pseudopotential
        Si             4.00    28.08500     Si( 1.00)

     No symmetry found



   Cartesian axes

     site n.     atom                  positions (alat units)
         1           Si  tau(   1) = (  -0.0003668   0.0007998  -0.0004583  )
         2           Si  tau(   2) = (  -0.0005938   0.2488985   0.2494476  )
         3           Si  tau(   3) = (   0.2499134   0.0004716   0.2509636  )
         4           Si  tau(   4) = (   0.2488845   0.2491892  -0.0004928  )
         5           Si  tau(   5) = (   0.1249956   0.1239116   0.1249610  )
         6           Si  tau(   6) = (   0.4986632  -0.0005767   0.0006035  )
         7           Si  tau(   7) = (   0.4988524   0.2483277   0.2497510  )
         8           Si  tau(   8) = (   0.6244870   0.1248418   0.1260504  )
         9           Si  tau(   9) = (   0.7480345   0.0008443   0.2497407  )
        10           Si  tau(  10) = (   0.7476319   0.2488495   0.0002198  )
        11           Si  tau(  11) = (  -0.0005207   0.4984907  -0.0004669  )
        12           Si  tau(  12) = (   0.2501109   0.4977584   0.2497350  )
        13           Si  tau(  13) = (   0.1238340   0.6225502   0.1260640  )
        14           Si  tau(  14) = (   0.3732469   0.3733317   0.1250150  )
        15           Si  tau(  15) = (   0.4996725   0.4982187  -0.0001002  )
        16           Si  tau(  16) = (   0.6231404   0.6221852   0.1250604  )
        17           Si  tau(  17) = (   0.8726386   0.3726750   0.1260374  )
        18           Si  tau(  18) = (   0.7475942   0.4971267   0.2511469  )
        19           Si  tau(  19) = (   0.0005905   0.7468126   0.2510686  )
        20           Si  tau(  20) = (   0.2485834   0.7475588   0.0002621  )
        21           Si  tau(  21) = (   0.3747893   0.8705745   0.1254959  )
        22           Si  tau(  22) = (   0.4982325   0.7475677   0.2498371  )
        23           Si  tau(  23) = (   0.7488518   0.7476278   0.0007302  )
        24           Si  tau(  24) = (   0.8730104   0.8705419   0.1260622  )
        25           Si  tau(  25) = (   0.0001002   0.0006856   0.4999434  )
        26           Si  tau(  26) = (   0.2496183   0.2483490   0.5003110  )
        27           Si  tau(  27) = (   0.1239021   0.1235929   0.6254550  )
        28           Si  tau(  28) = (   0.3734064   0.1243628   0.3759587  )
        29           Si  tau(  29) = (   0.4987525  -0.0007728   0.5004026  )
        30           Si  tau(  30) = (   0.6229874   0.1246465   0.6257507  )
        31           Si  tau(  31) = (   0.8736300   0.1245790   0.3761778  )
        32           Si  tau(  32) = (   0.7491077   0.2484310   0.5015509  )
        33           Si  tau(  33) = (   0.1245855   0.3726451   0.3749999  )
        34           Si  tau(  34) = (   0.0005895   0.4978863   0.5008146  )
        35           Si  tau(  35) = (   0.1249084   0.6224076   0.6260707  )
        36           Si  tau(  36) = (   0.6242934   0.3730850   0.3759960  )
        37           Si  tau(  37) = (   0.3739797   0.6224476   0.3754567  )
        38           Si  tau(  38) = (   0.3737906   0.3732154   0.6261327  )
        39           Si  tau(  39) = (   0.4987190   0.4977174   0.5009276  )
        40           Si  tau(  40) = (   0.6244812   0.6216631   0.6258806  )
        41           Si  tau(  41) = (   0.8735883   0.6216787   0.3752423  )
        42           Si  tau(  42) = (   0.8735648   0.3742508   0.6261260  )
        43           Si  tau(  43) = (   0.1241906   0.8714778   0.3747966  )
        44           Si  tau(  44) = (   0.2497400   0.7465791   0.5005531  )
        45           Si  tau(  45) = (   0.6237228   0.8710401   0.3756329  )
        46           Si  tau(  46) = (   0.3745014   0.8712771   0.6254692  )
        47           Si  tau(  47) = (   0.7483721   0.7470067   0.5007551  )
        48           Si  tau(  48) = (   0.8725160   0.8709556   0.6266013  )
        49           Si  tau(  49) = (   0.0002581   0.2492377   0.7505221  )
        50           Si  tau(  50) = (   0.2487916  -0.0000690   0.7518951  )
        51           Si  tau(  51) = (   0.3737361   0.1235866   0.8767921  )
        52           Si  tau(  52) = (   0.4987256   0.2495382   0.7508688  )
        53           Si  tau(  53) = (   0.7479284   0.0006334   0.7509047  )
        54           Si  tau(  54) = (   0.8721999   0.1238719   0.8765143  )
        55           Si  tau(  55) = (   0.1240986   0.3738887   0.8758000  )
        56           Si  tau(  56) = (   0.2497849   0.4982349   0.7504498  )
        57           Si  tau(  57) = (   0.6228750   0.3728176   0.8757009  )
        58           Si  tau(  58) = (   0.3738618   0.6214778   0.8765046  )
        59           Si  tau(  59) = (   0.7474403   0.4985446   0.7515236  )
        60           Si  tau(  60) = (   0.8737260   0.6224987   0.8766389  )
        61           Si  tau(  61) = (   0.0006262   0.7476137   0.7515191  )
        62           Si  tau(  62) = (   0.1246172   0.8710258   0.8756672  )
        63           Si  tau(  63) = (   0.4981593   0.7461843   0.7505375  )
        64           Si  tau(  64) = (   0.6237926   0.8717737   0.8768404  )

     number of k points=     1  Fermi-Dirac smearing, width (Ry)=  0.0100
                       cart. coord. in units 2pi/alat
        k(    1) = (   0.0000000   0.0000000   0.0000000), wk =   2.0000000

     Dense  grid:    97637 G-vectors     FFT dimensions: (  72,  72,  75)

     Estimated max dynamical RAM per process >     156.29 MB

     Estimated total dynamical RAM >     601.34 MB

     Initial potential from superposition of free atoms

     starting charge     255.9608, renormalised to     256.0000
     Starting wfcs are  256 randomized atomic wfcs

     total cpu time spent up to now is        4.2 secs

     Self-consistent Calculation

     iteration #  1     ecut=    30.00 Ry     beta= 0.50
     Davidson diagonalization with overlap
     ethr =  1.00E-02,  avg # of iterations =  3.0

     Threshold (ethr) on eigenvalues was too large:
     Diagonalizing with lowered threshold

     Davidson diagonalization with overlap
     ethr =  6.65E-04,  avg # of iterations =  2.0

     total cpu time spent up to now is        4.4 secs

     total energy              =    -503.96218685 Ry
     estimated scf accuracy    <       1.88263538 Ry

     iteration #  2     ecut=    30.00 Ry     beta= 0.50
     Davidson diagonalization with overlap
     ethr =  7.35E-04,  avg # of iterations =  1.0

     total cpu time spent up to now is        4.5 secs

     total energy              =    -503.94332479 Ry
     estimated scf accuracy    <       0.35035981 Ry

     iteration #  3     ecut=    30.00 Ry     beta= 0.50
     Davidson diagonalization with overlap
     ethr =  1.37E-04,  avg # of iterations =  4.0

     total cpu time spent up to now is        4.6 secs

     total energy              =    -503.96598224 Ry
     estimated scf accuracy    <       0.00896588 Ry

     iteration #  4     ecut=    30.00 Ry     beta= 0.50
     Davidson diagonalization with overlap
     c_bands:  4 eigenvalues not converged
     ethr =  3.50E-06,  avg # of iterations = 20.0

     total cpu time spent up to now is        4.8 secs

     total energy              =    -503.96807799 Ry
     estimated scf accuracy    <       0.00985593 Ry

     iteration #  5     ecut=    30.00 Ry     beta= 0.50
     Davidson diagonalization with overlap
     ethr =  3.50E-06,  avg # of iterations =  6.0

     total cpu time spent up to now is        4.9 secs

     total energy              =    -503.96985297 Ry
     estimated scf accuracy    <       0.00063329 Ry

     iteration #  6     ecut=    30.00 Ry     beta= 0.50
     Davidson diagonalization with overlap
     ethr =  2.47E-07,  avg # of iterations =  3.0

     total cpu time spent up to now is        5.0 secs

     total energy              =    -503.96989807 Ry
     estimated scf accuracy    <       0.00013638 Ry

     iteration #  7     ecut=    30.00 Ry     beta= 0.50
     Davidson diagonalization with overlap
     ethr =  5.33E-08,  avg # of iterations =  5.0

     total cpu time spent up to now is        5.1 secs

     total energy              =    -503.96991330 Ry
     estimated scf accuracy    <       0.00001157 Ry

     iteration #  8     ecut=    30.00 Ry     beta= 0.50
     Davidson diagonalization with overlap
     ethr =  4.52E-09,  avg # of iterations =  5.0

     total cpu time spent up to now is        5.2 secs

     total energy              =    -503.96991643 Ry
     estimated scf accuracy    <       0.00000116 Ry

     iteration #  9     ecut=    30.00 Ry     beta= 0.50
     Davidson diagonalization with overlap
     ethr =  4.51E-10,  avg # of iterations =  5.0

     total cpu time spent up to now is        5.3 secs

     End of self-consistent calculation

          k = 0.0000 0.0000 0.0000 ( 12181 PWs)   bands (ev):

    -5.7797  -4.7783  -4.7294  -4.7207  -4.6939  -4.6849  -4.6546  -3.8504
    -3.8320  -3.8167  -3.8046  -3.7977  -3.7719  -3.7569  -3.7241  -3.7213
    -3.7178  -3.6922  -3.6828  -3.5434  -3.4923  -3.4764  -3.3553  -1.7656
    -1.7232  -1.7186  -1.6914  -1.6686  -1.6628  -1.5902  -1.5782  -1.5756
    -1.5681  -1.5563  -1.5447  -1.5182  -1.5075  -1.5000  -1.4858  -1.4414
    -1.4206  -0.8923  -0.8084  -0.7927  -0.7795   0.5592   0.5763   0.5962
     0.6098   0.6136   0.6217   0.6309   0.6359   0.6386   0.6501   0.6671
     0.6686   2.2473   2.2514   2.2570   2.2600   2.2619   2.2658   2.2704
     2.2745   2.2806   2.2856   2.2989   2.3043   2.3219   2.3484   2.3523
     2.3793   2.3855   2.3963   2.4042   2.4101   2.4236   2.4265   2.4405
     2.4476   2.4984   2.5303   2.6010   2.6095   2.6170   2.6281   3.2160
     3.2277   3.2689   3.2724   3.3051   3.3219   4.1602   4.1754   4.1812
     4.1856   4.1911   4.1956   4.2028   4.2136   4.2346   4.2553   4.2898
     4.3762   4.6956   4.6993   4.7083   4.7308   4.7526   4.7600   4.7623
     4.7821   4.7893   4.7937   4.7984   4.8118   4.8200   4.8308   4.8574
     4.8749   4.8953   4.9424   4.9639   5.2057   6.0037   6.0875   6.1664
     6.6982   6.7127   6.8045   6.8272   6.8432   6.8609   7.1598   7.1638
     7.1880   7.1903   7.2359   7.3022   7.5079   7.5106   7.5167   7.5464
     8.4198   8.4248   8.4396   8.4464   8.4491   8.4525   8.4852   8.4939
     8.5081   8.5317

     the Fermi energy is     6.3832 ev

!    total energy              =    -503.96991661 Ry
     estimated scf accuracy    <       0.00000057 Ry
     smearing contrib. (-TS)   =      -0.04637303 Ry
     internal energy E=F+TS    =    -503.92354358 Ry

     The total energy is F=E-TS. E is the sum of the following terms:
     one-electron contribution =     147.37633934 Ry
     hartree contribution      =      36.56113622 Ry
     xc contribution           =    -153.78028490 Ry
     ewald contribution        =    -534.08073424 Ry

     convergence has been achieved in   9 iterations

     Forces acting on atoms (cartesian axes, Ry/au):

     atom    1 type  1   force =    -0.00742340   -0.01632971   -0.02200009
     atom    2 type  1   force =    -0.00273725   -0.00342129    0.00400237
     atom    3 type  1   force =    -0.00188341   -0.01384612   -0.00456510
     atom    4 type  1   force =    -0.00053899   -0.00073237   -0.02513512
     atom    5 type  1   force =    -0.00148518    0.00182610   -0.00324124
     atom    6 type  1   force =     0.00312083   -0.00496639   -0.02349312
     atom    7 type  1   force =    -0.00139930    0.00436249    0.00552076
     atom    8 type  1   force =    -0.00775614   -0.00384073   -0.01055704
     atom    9 type  1   force =     0.00578817   -0.01438167    0.00803760
     atom   10 type  1   force =     0.00319075    0.00118669   -0.02717857
     atom   11 type  1   force =    -0.00636835   -0.00448318   -0.01913755
     atom   12 type  1   force =    -0.00567438    0.00129034    0.00429384
     atom   13 type  1   force =     0.00377342   -0.00138780   -0.00837427
     atom   14 type  1   force =     0.00717429   -0.00110866   -0.00672125
     atom   15 type  1   force =    -0.00579738   -0.00472717   -0.02514208
     atom   16 type  1   force =     0.00429847    0.00265805   -0.00072342
     atom   17 type  1   force =     0.00545348    0.00533930   -0.01024679
     atom   18 type  1   force =     0.00353451    0.00447078   -0.00389147
     atom   19 type  1   force =    -0.01224546    0.00022212   -0.00142276
     atom   20 type  1   force =     0.00165907   -0.00397634   -0.02514693
     atom   21 type  1   force =    -0.00735489    0.01535371   -0.00512899
     atom   22 type  1   force =     0.00521392   -0.00552964    0.00496149
     atom   23 type  1   force =    -0.00179133   -0.00381484   -0.02765680
     atom   24 type  1   force =     0.00995420    0.01583331   -0.00458455
     atom   25 type  1   force =    -0.00980070   -0.01776126    0.00499692
     atom   26 type  1   force =    -0.00426326    0.00195620    0.00551031
     atom   27 type  1   force =     0.00477569    0.00307847    0.00218312
     atom   28 type  1   force =     0.00720587   -0.00139565   -0.00316238
     atom   29 type  1   force =     0.00078732   -0.00536143    0.00162684
     atom   30 type  1   force =     0.00044513   -0.00213317   -0.00054479
     atom   31 type  1   force =     0.00292857   -0.00059617   -0.00699008
     atom   32 type  1   force =    -0.00038691    0.00356441    0.00049943
     atom   33 type  1   force =     0.00108750    0.00214131   -0.00192144
     atom   34 type  1   force =    -0.00657910   -0.00026069   -0.00013471
     atom   35 type  1   force =    -0.00098082    0.00230892   -0.00116582
     atom   36 type  1   force =    -0.00587846   -0.00483878   -0.00009792
     atom   37 type  1   force =     0.00221334   -0.00106996   -0.00239210
     atom   38 type  1   force =    -0.00002892   -0.00022586   -0.00345198
     atom   39 type  1   force =     0.00183769   -0.00000976    0.00024022
     atom   40 type  1   force =    -0.00657269    0.00453288   -0.00159043
     atom   41 type  1   force =     0.00411792    0.00241901    0.00146911
     atom   42 type  1   force =     0.00335137   -0.00126201    0.00129581
     atom   43 type  1   force =     0.00497903    0.00970881    0.00420527
     atom   44 type  1   force =    -0.00367699    0.00443472    0.00051918
     atom   45 type  1   force =     0.00016055    0.01129056   -0.00495127
     atom   46 type  1   force =    -0.00431791    0.00964334    0.00328715
     atom   47 type  1   force =     0.00324472   -0.00267720    0.00013325
     atom   48 type  1   force =     0.00994059    0.01374809   -0.00349203
     atom   49 type  1   force =    -0.01093628   -0.00320024    0.00652561
     atom   50 type  1   force =     0.00259750   -0.01060966   -0.00345095
     atom   51 type  1   force =     0.00269692    0.00384464    0.02383565
     atom   52 type  1   force =    -0.00414412   -0.00685312    0.00482071
     atom   53 type  1   force =    -0.00093181   -0.01232084    0.00403194
     atom   54 type  1   force =     0.00991750    0.00627469    0.02219493
     atom   55 type  1   force =     0.00211447   -0.00011746    0.02508511
     atom   56 type  1   force =    -0.00322257   -0.00223771    0.00690482
     atom   57 type  1   force =     0.00351614    0.00300523    0.02892342
     atom   58 type  1   force =     0.00012551    0.00518914    0.02609958
     atom   59 type  1   force =     0.00799783   -0.00361604    0.00467408
     atom   60 type  1   force =     0.00179247    0.00347237    0.02326343
     atom   61 type  1   force =    -0.01049070   -0.00461039   -0.00017262
     atom   62 type  1   force =     0.00001361    0.01306040    0.03075948
     atom   63 type  1   force =     0.00584441    0.00269083    0.00750519
     atom   64 type  1   force =    -0.00218607    0.00479642    0.02045905

     Total force =     0.125422     Total SCF correction =     0.001424


     Computing stress (Cartesian axis) and pressure

          total   stress  (Ry/bohr**3)                   (kbar)     P=       12.87
   0.00010486   0.00002356   0.00002218           15.43        3.47        3.26
   0.00002356   0.00010971   0.00000951            3.47       16.14        1.40
   0.00002218   0.00000951   0.00004791            3.26        1.40        7.05

 
     init_run     :      1.01s CPU      4.14s WALL (       1 calls)
     electrons    :      1.02s CPU      1.11s WALL (       1 calls)
     forces       :      0.04s CPU      0.04s WALL (       1 calls)
     stress       :      0.15s CPU      0.15s WALL (       1 calls)

     Called by init_run:
     wfcinit      :      0.44s CPU      3.42s WALL (       1 calls)
                                        3.42s GPU  (       1 calls)
     potinit      :      0.14s CPU      0.22s WALL (       1 calls)
     hinit0       :      0.41s CPU      0.43s WALL (       1 calls)

     Called by electrons:
     c_bands      :      0.72s CPU      0.76s WALL (      10 calls)
     sum_band     :      0.16s CPU      0.19s WALL (      10 calls)
     v_of_rho     :      0.08s CPU      0.16s WALL (      10 calls)
     mix_rho      :      0.06s CPU      0.06s WALL (      10 calls)

     Called by c_bands:
     init_us_2    :      0.02s CPU      0.03s WALL (      21 calls)
     init_us_2:gp :      0.02s CPU      0.03s WALL (      21 calls)
     regterg      :      0.64s CPU      0.69s WALL (      10 calls)

     Called by *egterg:
     rdiaghg      :      0.30s CPU      0.91s WALL (      63 calls)
                                        0.90s GPU  (      63 calls)
     h_psi        :      0.66s CPU      3.06s WALL (      65 calls)
                                        3.06s GPU  (      65 calls)
     g_psi        :      0.00s CPU      0.00s WALL (      54 calls)
                                        0.00s GPU  (      54 calls)

     Called by h_psi:
     h_psi:calbec :      0.40s CPU      2.73s WALL (      65 calls)
                                        2.73s GPU  (      65 calls)
     vloc_psi     :      0.23s CPU      0.29s WALL (      65 calls)
                                        0.28s GPU  (      65 calls)
     add_vuspsi   :      0.02s CPU      0.03s WALL (      65 calls)
                                        0.03s GPU  (      65 calls)

     General routines
     calbec       :      0.40s CPU      2.74s WALL (      70 calls)
     fft          :      0.43s CPU      0.53s WALL (      87 calls)
                                        0.10s GPU  (      56 calls)
     ffts         :      0.02s CPU      0.02s WALL (      10 calls)
     fftw         :      0.27s CPU      0.37s WALL (    1108 calls)
                                        0.33s GPU  (    1108 calls)
 
     Parallel routines
 
     PWSCF        :      2.24s CPU      5.52s WALL

 
   This run was terminated on:  11: 1: 7  10May2023            

=------------------------------------------------------------------------------=
   JOB DONE.
=------------------------------------------------------------------------------=
