An instance of this daemon is already running
An instance of this daemon is already running
An instance of this daemon is already running

     Program PWSCF v.7.1 starts on 10May2023 at 11: 1:35 

     This program is part of the open-source Quantum ESPRESSO suite
     for quantum simulation of materials; please cite
         "P. Giannozzi et al., J. Phys.:Condens. Matter 21 395502 (2009);
         "P. Giannozzi et al., J. Phys.:Condens. Matter 29 465901 (2017);
         "P. Giannozzi et al., J. Chem. Phys. 152 154105 (2020);
          URL http://www.quantum-espresso.org", 
     in publications or presentations arising from this work. More details at
     http://www.quantum-espresso.org/quote

     Parallel version (MPI & OpenMP), running on       4 processor cores
     Number of MPI processes:                 4
     Threads/MPI process:                     1

     MPI processes distributed on     1 nodes
     149906 MiB available memory on the printing compute node when the environment starts
 
     Reading input from pw-si-40.in
Warning: card &CELL ignored
Warning: card / ignored

     Current dimensions of program PWSCF are:
     Max number of different atomic species (ntypx) = 10
     Max number of k-points (npk) =  40000
     Max angular momentum in pseudopotentials (lmaxx) =  4

     IMPORTANT: XC functional enforced from input :
     Exchange-correlation= PBE
                           (   1   4   3   4   0   0   0)
     Any further DFT definition will be discarded
     Please, verify this is what you really want


     gamma-point specific algorithms are used
 
     K-points division:     npool     =       2
     R & G space division:  proc/nbgrp/npool/nimage =       2
     Subspace diagonalization in iterative solution of the eigenvalue problem:
     a serial algorithm will be used

     Message from routine divide_et_impera:
     suboptimal parallelization: some nodes have no k-points
 
     Parallelization info
     --------------------
     sticks:   dense  smooth     PW     G-vecs:    dense   smooth      PW
     Min        2051    2051    543                98389    98389   13407
     Max        2052    2052    546                98392    98392   13410
     Sum        4103    4103   1089               196781   196781   26817
 
     Using Slab Decomposition
 


     bravais-lattice index     =            0
     lattice parameter (alat)  =      20.8434  a.u.
     unit-cell volume          =    8863.4689 (a.u.)^3
     number of atoms/cell      =           64
     number of atomic types    =            1
     number of electrons       =       256.00
     number of Kohn-Sham states=          154
     kinetic-energy cutoff     =      30.0000  Ry
     charge density cutoff     =     120.0000  Ry
     scf convergence threshold =      1.0E-06
     mixing beta               =       0.5000
     number of iterations used =            8  plain     mixing
     Exchange-correlation= PBE
                           (   1   4   3   4   0   0   0)

     GPU acceleration is ACTIVE.
     GPU-aware MPI enabled

     Message from routine print_cuda_info:
     High GPU oversubscription detected. Are you sure this is what you want?

     celldm(1)=  20.843435  celldm(2)=   0.000000  celldm(3)=   0.000000
     celldm(4)=   0.000000  celldm(5)=   0.000000  celldm(6)=   0.000000

     crystal axes: (cart. coord. in units of alat)
               a(1) = (   1.000000   0.000000   0.000000 )  
               a(2) = (   0.000000   0.988992   0.000000 )  
               a(3) = (   0.000000   0.000000   0.989699 )  

     reciprocal axes: (cart. coord. in units 2 pi/alat)
               b(1) = (  1.000000  0.000000  0.000000 )  
               b(2) = (  0.000000  1.011131  0.000000 )  
               b(3) = (  0.000000  0.000000  1.010408 )  


     PseudoPot. # 1 for Si read from file:
     /home/ppiaggi/pseudos/Si_ONCV_PBE_sr.upf
     MD5 check sum: 8553c464762ac42b85b1eed164b4d029
     Pseudo is Norm-conserving, Zval =  4.0
     Generated using ONCVPSP code by D. R. Hamann
     Using radial grid of 1510 points,  4 beta functions with: 
                l(1) =   0
                l(2) =   0
                l(3) =   1
                l(4) =   1

     atomic species   valence    mass     pseudopotential
        Si             4.00    28.08500     Si( 1.00)

     No symmetry found



   Cartesian axes

     site n.     atom                  positions (alat units)
         1           Si  tau(   1) = (  -0.0000737   0.0003371   0.0004420  )
         2           Si  tau(   2) = (  -0.0001852   0.2495328   0.2499342  )
         3           Si  tau(   3) = (   0.2502698   0.0008799   0.2489017  )
         4           Si  tau(   4) = (   0.2498287   0.2492981   0.0003779  )
         5           Si  tau(   5) = (   0.1248500   0.1246549   0.1251124  )
         6           Si  tau(   6) = (   0.4990443   0.0001309  -0.0006547  )
         7           Si  tau(   7) = (   0.4995959   0.2494729   0.2487653  )
         8           Si  tau(   8) = (   0.6245557   0.1253773   0.1241968  )
         9           Si  tau(   9) = (   0.7482087   0.0005584   0.2493566  )
        10           Si  tau(  10) = (   0.7490420   0.2487894   0.0002499  )
        11           Si  tau(  11) = (  -0.0000327   0.4985457  -0.0000792  )
        12           Si  tau(  12) = (   0.2496198   0.4988783   0.2499554  )
        13           Si  tau(  13) = (   0.1239900   0.6228125   0.1240381  )
        14           Si  tau(  14) = (   0.3737997   0.3745189   0.1244072  )
        15           Si  tau(  15) = (   0.4996440   0.4983020  -0.0008694  )
        16           Si  tau(  16) = (   0.6237788   0.6223771   0.1247728  )
        17           Si  tau(  17) = (   0.8737694   0.3729257   0.1249536  )
        18           Si  tau(  18) = (   0.7487189   0.4981305   0.2493048  )
        19           Si  tau(  19) = (  -0.0007747   0.7479939   0.2503287  )
        20           Si  tau(  20) = (   0.2503432   0.7480812   0.0000932  )
        21           Si  tau(  21) = (   0.3744961   0.8710913   0.1255454  )
        22           Si  tau(  22) = (   0.5000088   0.7465251   0.2499353  )
        23           Si  tau(  23) = (   0.7494160   0.7478308   0.0007421  )
        24           Si  tau(  24) = (   0.8739390   0.8711923   0.1248196  )
        25           Si  tau(  25) = (  -0.0006132  -0.0000475   0.4998754  )
        26           Si  tau(  26) = (   0.2491971   0.2497227   0.4985922  )
        27           Si  tau(  27) = (   0.1248038   0.1245648   0.6231765  )
        28           Si  tau(  28) = (   0.3736592   0.1248081   0.3737794  )
        29           Si  tau(  29) = (   0.4992503   0.0008487   0.5000592  )
        30           Si  tau(  30) = (   0.6236454   0.1245399   0.6235581  )
        31           Si  tau(  31) = (   0.8741392   0.1239849   0.3745471  )
        32           Si  tau(  32) = (   0.7491781   0.2484806   0.4989037  )
        33           Si  tau(  33) = (   0.1252058   0.3737108   0.3736476  )
        34           Si  tau(  34) = (  -0.0004197   0.4980227   0.4998756  )
        35           Si  tau(  35) = (   0.1244896   0.6231890   0.6234630  )
        36           Si  tau(  36) = (   0.6234049   0.3736305   0.3750929  )
        37           Si  tau(  37) = (   0.3738728   0.6219543   0.3745763  )
        38           Si  tau(  38) = (   0.3746398   0.3740005   0.6246464  )
        39           Si  tau(  39) = (   0.4998743   0.4982404   0.4998066  )
        40           Si  tau(  40) = (   0.6239164   0.6220968   0.6234421  )
        41           Si  tau(  41) = (   0.8740228   0.6221205   0.3752002  )
        42           Si  tau(  42) = (   0.8730513   0.3732804   0.6236073  )
        43           Si  tau(  43) = (   0.1247944   0.8712271   0.3749764  )
        44           Si  tau(  44) = (   0.2489362   0.7469119   0.4996681  )
        45           Si  tau(  45) = (   0.6239621   0.8714010   0.3750761  )
        46           Si  tau(  46) = (   0.3739085   0.8713275   0.6233938  )
        47           Si  tau(  47) = (   0.7489167   0.7474756   0.4995173  )
        48           Si  tau(  48) = (   0.8732583   0.8718715   0.6232535  )
        49           Si  tau(  49) = (   0.0007894   0.2489103   0.7480247  )
        50           Si  tau(  50) = (   0.2495545  -0.0008194   0.7493818  )
        51           Si  tau(  51) = (   0.3745855   0.1241264   0.8740547  )
        52           Si  tau(  52) = (   0.5002153   0.2489193   0.7482195  )
        53           Si  tau(  53) = (   0.7492166   0.0003080   0.7496602  )
        54           Si  tau(  54) = (   0.8741731   0.1250496   0.8736496  )
        55           Si  tau(  55) = (   0.1248720   0.3731686   0.8737200  )
        56           Si  tau(  56) = (   0.2490900   0.4973053   0.7484671  )
        57           Si  tau(  57) = (   0.6243636   0.3744698   0.8740127  )
        58           Si  tau(  58) = (   0.3751640   0.6228356   0.8728922  )
        59           Si  tau(  59) = (   0.7488236   0.4984768   0.7490631  )
        60           Si  tau(  60) = (   0.8745705   0.6231015   0.8745502  )
        61           Si  tau(  61) = (   0.0000530   0.7474579   0.7485313  )
        62           Si  tau(  62) = (   0.1252949   0.8709510   0.8729863  )
        63           Si  tau(  63) = (   0.5000316   0.7474639   0.7489720  )
        64           Si  tau(  64) = (   0.6240005   0.8722575   0.8730996  )

     number of k points=     1  Fermi-Dirac smearing, width (Ry)=  0.0100
                       cart. coord. in units 2pi/alat
        k(    1) = (   0.0000000   0.0000000   0.0000000), wk =   2.0000000

     Dense  grid:    98391 G-vectors     FFT dimensions: (  75,  72,  72)

     Estimated max dynamical RAM per process >     157.09 MB

     Estimated total dynamical RAM >     604.36 MB

     Initial potential from superposition of free atoms

     starting charge     255.9608, renormalised to     256.0000
     Starting wfcs are  256 randomized atomic wfcs

     total cpu time spent up to now is        4.4 secs

     Self-consistent Calculation

     iteration #  1     ecut=    30.00 Ry     beta= 0.50
     Davidson diagonalization with overlap
     ethr =  1.00E-02,  avg # of iterations =  3.0

     Threshold (ethr) on eigenvalues was too large:
     Diagonalizing with lowered threshold

     Davidson diagonalization with overlap
     ethr =  6.57E-04,  avg # of iterations =  4.0

     total cpu time spent up to now is        4.6 secs

     total energy              =    -503.95975356 Ry
     estimated scf accuracy    <       1.86185153 Ry

     iteration #  2     ecut=    30.00 Ry     beta= 0.50
     Davidson diagonalization with overlap
     ethr =  7.27E-04,  avg # of iterations =  1.0

     total cpu time spent up to now is        4.7 secs

     total energy              =    -503.94104142 Ry
     estimated scf accuracy    <       0.34824410 Ry

     iteration #  3     ecut=    30.00 Ry     beta= 0.50
     Davidson diagonalization with overlap
     ethr =  1.36E-04,  avg # of iterations =  4.0

     total cpu time spent up to now is        4.8 secs

     total energy              =    -503.96305351 Ry
     estimated scf accuracy    <       0.00926324 Ry

     iteration #  4     ecut=    30.00 Ry     beta= 0.50
     Davidson diagonalization with overlap
     c_bands:  3 eigenvalues not converged
     ethr =  3.62E-06,  avg # of iterations = 20.0

     total cpu time spent up to now is        5.0 secs

     total energy              =    -503.96540111 Ry
     estimated scf accuracy    <       0.00953407 Ry

     iteration #  5     ecut=    30.00 Ry     beta= 0.50
     Davidson diagonalization with overlap
     ethr =  3.62E-06,  avg # of iterations = 17.0

     total cpu time spent up to now is        5.2 secs

     total energy              =    -503.96715165 Ry
     estimated scf accuracy    <       0.00071998 Ry

     iteration #  6     ecut=    30.00 Ry     beta= 0.50
     Davidson diagonalization with overlap
     ethr =  2.81E-07,  avg # of iterations =  3.0

     total cpu time spent up to now is        5.3 secs

     total energy              =    -503.96719767 Ry
     estimated scf accuracy    <       0.00014530 Ry

     iteration #  7     ecut=    30.00 Ry     beta= 0.50
     Davidson diagonalization with overlap
     ethr =  5.68E-08,  avg # of iterations =  5.0

     total cpu time spent up to now is        5.4 secs

     total energy              =    -503.96721526 Ry
     estimated scf accuracy    <       0.00000967 Ry

     iteration #  8     ecut=    30.00 Ry     beta= 0.50
     Davidson diagonalization with overlap
     ethr =  3.78E-09,  avg # of iterations =  4.0

     total cpu time spent up to now is        5.5 secs

     total energy              =    -503.96721858 Ry
     estimated scf accuracy    <       0.00000163 Ry

     iteration #  9     ecut=    30.00 Ry     beta= 0.50
     Davidson diagonalization with overlap
     ethr =  6.35E-10,  avg # of iterations =  4.0

     total cpu time spent up to now is        5.6 secs

     End of self-consistent calculation

          k = 0.0000 0.0000 0.0000 ( 12297 PWs)   bands (ev):

    -5.8087  -4.7896  -4.7795  -4.7725  -4.7515  -4.6922  -4.6753  -3.9271
    -3.8905  -3.8780  -3.8373  -3.8241  -3.7976  -3.7829  -3.7734  -3.7680
    -3.7333  -3.7256  -3.6891  -3.5609  -3.5045  -3.4913  -3.4458  -1.8639
    -1.8434  -1.7670  -1.7200  -1.7185  -1.6652  -1.6273  -1.6046  -1.5999
    -1.5964  -1.5852  -1.5778  -1.5684  -1.5610  -1.5437  -1.5426  -1.5235
    -1.5160  -0.9090  -0.8867  -0.8533  -0.7808   0.5215   0.5276   0.5313
     0.5442   0.5501   0.5514   0.5573   0.5596   0.5920   0.5971   0.6093
     0.6172   2.1402   2.1527   2.1682   2.1778   2.1940   2.2181   2.2331
     2.2354   2.2521   2.2580   2.2595   2.2649   2.3276   2.3411   2.3457
     2.3486   2.3562   2.3588   2.3618   2.3828   2.3963   2.4029   2.4063
     2.4229   2.4617   2.4831   2.4940   2.5146   2.5312   2.5469   3.1527
     3.1649   3.1952   3.2055   3.2741   3.2884   4.0445   4.0631   4.1185
     4.1219   4.1887   4.1895   4.1940   4.2004   4.2098   4.2141   4.2165
     4.2301   4.4158   4.5152   4.6793   4.6874   4.7016   4.7133   4.7211
     4.7417   4.7514   4.7637   4.7787   4.8017   4.8123   4.8243   4.8292
     4.8647   4.8778   4.8921   4.8994   4.9483   5.9382   6.0471   6.0625
     6.6350   6.6617   6.6916   6.7327   6.8153   6.8456   7.0985   7.1068
     7.1313   7.1457   7.1930   7.2011   7.4116   7.4183   7.4235   7.4400
     8.2729   8.2918   8.3797   8.3913   8.4040   8.4133   8.4244   8.4307
     8.4493   8.4754

     the Fermi energy is     6.3137 ev

!    total energy              =    -503.96721859 Ry
     estimated scf accuracy    <       0.00000057 Ry
     smearing contrib. (-TS)   =      -0.04551178 Ry
     internal energy E=F+TS    =    -503.92170681 Ry

     The total energy is F=E-TS. E is the sum of the following terms:
     one-electron contribution =     145.63095102 Ry
     hartree contribution      =      36.80606753 Ry
     xc contribution           =    -153.55428422 Ry
     ewald contribution        =    -532.80444114 Ry

     convergence has been achieved in   9 iterations

     Forces acting on atoms (cartesian axes, Ry/au):

     atom    1 type  1   force =    -0.00339144    0.01942384    0.02427070
     atom    2 type  1   force =    -0.00244215   -0.00346618   -0.00048671
     atom    3 type  1   force =    -0.00579623    0.01490601    0.00546249
     atom    4 type  1   force =    -0.00058340   -0.00172188    0.02539872
     atom    5 type  1   force =    -0.00160403    0.00463523    0.00198235
     atom    6 type  1   force =    -0.00113071    0.02129014    0.03537032
     atom    7 type  1   force =    -0.00368966    0.00095415    0.00225017
     atom    8 type  1   force =    -0.00405618   -0.00181079    0.00358273
     atom    9 type  1   force =     0.00330078    0.01805955    0.00055341
     atom   10 type  1   force =     0.00153872    0.00410796    0.02313751
     atom   11 type  1   force =    -0.00378747   -0.00672805    0.02713970
     atom   12 type  1   force =    -0.00298496   -0.00188217   -0.00526863
     atom   13 type  1   force =     0.00311728    0.00430589    0.00810454
     atom   14 type  1   force =     0.00380485    0.00033692    0.00432137
     atom   15 type  1   force =    -0.00389429    0.00056283    0.03066316
     atom   16 type  1   force =     0.00319033    0.00097611    0.00127801
     atom   17 type  1   force =     0.00362956    0.00494976    0.00218136
     atom   18 type  1   force =     0.00092368   -0.00233463    0.00347288
     atom   19 type  1   force =    -0.00064206   -0.00858769   -0.00165484
     atom   20 type  1   force =    -0.00113001   -0.00992637    0.02537250
     atom   21 type  1   force =     0.00480653   -0.01810037    0.00069215
     atom   22 type  1   force =    -0.00436315   -0.00207319    0.00192398
     atom   23 type  1   force =    -0.00400722   -0.00485904    0.02275447
     atom   24 type  1   force =     0.00201345   -0.01461205    0.00616601
     atom   25 type  1   force =    -0.00006265    0.02070884   -0.00513869
     atom   26 type  1   force =     0.00341841   -0.00074278    0.00089239
     atom   27 type  1   force =     0.00234878    0.00050888    0.00339638
     atom   28 type  1   force =     0.00598878    0.00462219    0.00299279
     atom   29 type  1   force =    -0.00399740    0.01778416   -0.00765794
     atom   30 type  1   force =     0.00657568    0.00220936    0.00354408
     atom   31 type  1   force =     0.00209893    0.00406888   -0.00077118
     atom   32 type  1   force =    -0.00183572    0.00088366   -0.00176162
     atom   33 type  1   force =    -0.00448634    0.00402792    0.00498614
     atom   34 type  1   force =    -0.00104082   -0.00301346   -0.00446789
     atom   35 type  1   force =    -0.00111518   -0.00482290    0.00456765
     atom   36 type  1   force =     0.00425459   -0.00015531   -0.00285235
     atom   37 type  1   force =     0.00397088    0.00405208    0.00356276
     atom   38 type  1   force =    -0.00033887   -0.00279518   -0.00368430
     atom   39 type  1   force =    -0.00602178   -0.00225203   -0.00323487
     atom   40 type  1   force =     0.00300524    0.00492563    0.00453770
     atom   41 type  1   force =     0.00087266    0.00255428   -0.00198127
     atom   42 type  1   force =     0.00586817    0.00105203    0.00384488
     atom   43 type  1   force =     0.00076451   -0.01496019   -0.00223852
     atom   44 type  1   force =     0.00357332   -0.00303279   -0.00517595
     atom   45 type  1   force =    -0.00033440   -0.01763926   -0.00031462
     atom   46 type  1   force =     0.00274392   -0.02070810    0.00433806
     atom   47 type  1   force =     0.00025914   -0.00655213   -0.00303420
     atom   48 type  1   force =     0.00377798   -0.02154966    0.00724800
     atom   49 type  1   force =    -0.00768166    0.00147989   -0.00180220
     atom   50 type  1   force =     0.00104147    0.02693312   -0.00858618
     atom   51 type  1   force =    -0.00140979    0.00679388   -0.03116504
     atom   52 type  1   force =    -0.00395083    0.00169985    0.00238614
     atom   53 type  1   force =     0.00023541    0.02319008   -0.00920140
     atom   54 type  1   force =     0.00555860    0.00145859   -0.02664855
     atom   55 type  1   force =    -0.00198987    0.00209213   -0.02659736
     atom   56 type  1   force =     0.00123859    0.00559407   -0.00123555
     atom   57 type  1   force =     0.00203101   -0.00567404   -0.02942683
     atom   58 type  1   force =    -0.00492560    0.00012324   -0.02551505
     atom   59 type  1   force =     0.00357579   -0.00000805   -0.00309925
     atom   60 type  1   force =    -0.00063313    0.00046265   -0.03132652
     atom   61 type  1   force =    -0.00556618   -0.00325325   -0.00378737
     atom   62 type  1   force =    -0.00403598   -0.01838928   -0.02200525
     atom   63 type  1   force =    -0.00241733   -0.00353736   -0.00848594
     atom   64 type  1   force =     0.00581945   -0.02654561   -0.02376940

     Total force =     0.143400     Total SCF correction =     0.001433


     Computing stress (Cartesian axis) and pressure

          total   stress  (Ry/bohr**3)                   (kbar)     P=        6.71
   0.00001169  -0.00003137  -0.00002216            1.72       -4.61       -3.26
  -0.00003137   0.00006578   0.00000858           -4.61        9.68        1.26
  -0.00002216   0.00000858   0.00005947           -3.26        1.26        8.75

 
     init_run     :      1.17s CPU      4.31s WALL (       1 calls)
     electrons    :      1.14s CPU      1.26s WALL (       1 calls)
     forces       :      0.04s CPU      0.04s WALL (       1 calls)
     stress       :      0.15s CPU      0.15s WALL (       1 calls)

     Called by init_run:
     wfcinit      :      0.51s CPU      3.48s WALL (       1 calls)
                                        3.48s GPU  (       1 calls)
     potinit      :      0.16s CPU      0.24s WALL (       1 calls)
     hinit0       :      0.48s CPU      0.50s WALL (       1 calls)

     Called by electrons:
     c_bands      :      0.82s CPU      0.90s WALL (      10 calls)
     sum_band     :      0.17s CPU      0.20s WALL (      10 calls)
     v_of_rho     :      0.09s CPU      0.18s WALL (      10 calls)
     mix_rho      :      0.06s CPU      0.07s WALL (      10 calls)

     Called by c_bands:
     init_us_2    :      0.03s CPU      0.03s WALL (      21 calls)
     init_us_2:gp :      0.03s CPU      0.03s WALL (      21 calls)
     regterg      :      0.74s CPU      0.78s WALL (      10 calls)

     Called by *egterg:
     rdiaghg      :      0.36s CPU      0.97s WALL (      74 calls)
                                        0.96s GPU  (      74 calls)
     h_psi        :      0.76s CPU      3.14s WALL (      76 calls)
                                        3.14s GPU  (      76 calls)
     g_psi        :      0.00s CPU      0.00s WALL (      65 calls)
                                        0.00s GPU  (      65 calls)

     Called by h_psi:
     h_psi:calbec :      0.45s CPU      2.78s WALL (      76 calls)
                                        2.78s GPU  (      76 calls)
     vloc_psi     :      0.26s CPU      0.31s WALL (      76 calls)
                                        0.31s GPU  (      76 calls)
     add_vuspsi   :      0.03s CPU      0.04s WALL (      76 calls)
                                        0.04s GPU  (      76 calls)

     General routines
     calbec       :      0.46s CPU      2.79s WALL (      81 calls)
     fft          :      0.51s CPU      0.61s WALL (      87 calls)
                                        0.11s GPU  (      56 calls)
     ffts         :      0.02s CPU      0.02s WALL (      10 calls)
     fftw         :      0.30s CPU      0.40s WALL (    1130 calls)
                                        0.36s GPU  (    1130 calls)
 
     Parallel routines
 
     PWSCF        :      2.53s CPU      5.83s WALL

 
   This run was terminated on:  11: 1:40  10May2023            

=------------------------------------------------------------------------------=
   JOB DONE.
=------------------------------------------------------------------------------=
