An instance of this daemon is already running
An instance of this daemon is already running

     Program PWSCF v.7.1 starts on 10May2023 at 10:58:10 

     This program is part of the open-source Quantum ESPRESSO suite
     for quantum simulation of materials; please cite
         "P. Giannozzi et al., J. Phys.:Condens. Matter 21 395502 (2009);
         "P. Giannozzi et al., J. Phys.:Condens. Matter 29 465901 (2017);
         "P. Giannozzi et al., J. Chem. Phys. 152 154105 (2020);
          URL http://www.quantum-espresso.org", 
     in publications or presentations arising from this work. More details at
     http://www.quantum-espresso.org/quote

     Parallel version (MPI & OpenMP), running on       4 processor cores
     Number of MPI processes:                 4
     Threads/MPI process:                     1

     MPI processes distributed on     1 nodes
     152762 MiB available memory on the printing compute node when the environment starts
 
     Reading input from pw-si-15.in
Warning: card &CELL ignored
Warning: card / ignored

     Current dimensions of program PWSCF are:
     Max number of different atomic species (ntypx) = 10
     Max number of k-points (npk) =  40000
     Max angular momentum in pseudopotentials (lmaxx) =  4

     IMPORTANT: XC functional enforced from input :
     Exchange-correlation= PBE
                           (   1   4   3   4   0   0   0)
     Any further DFT definition will be discarded
     Please, verify this is what you really want


     gamma-point specific algorithms are used
 
     K-points division:     npool     =       2
     R & G space division:  proc/nbgrp/npool/nimage =       2
     Subspace diagonalization in iterative solution of the eigenvalue problem:
     a serial algorithm will be used

     Message from routine divide_et_impera:
     suboptimal parallelization: some nodes have no k-points
 
     Parallelization info
     --------------------
     sticks:   dense  smooth     PW     G-vecs:    dense   smooth      PW
     Min        2078    2078    547                99766    99766   13571
     Max        2079    2079    550                99771    99771   13574
     Sum        4157    4157   1097               199537   199537   27145
 
     Using Slab Decomposition
 


     bravais-lattice index     =            0
     lattice parameter (alat)  =      20.7275  a.u.
     unit-cell volume          =    8988.0441 (a.u.)^3
     number of atoms/cell      =           64
     number of atomic types    =            1
     number of electrons       =       256.00
     number of Kohn-Sham states=          154
     kinetic-energy cutoff     =      30.0000  Ry
     charge density cutoff     =     120.0000  Ry
     scf convergence threshold =      1.0E-06
     mixing beta               =       0.5000
     number of iterations used =            8  plain     mixing
     Exchange-correlation= PBE
                           (   1   4   3   4   0   0   0)

     GPU acceleration is ACTIVE.
     GPU-aware MPI enabled

     Message from routine print_cuda_info:
     High GPU oversubscription detected. Are you sure this is what you want?

     celldm(1)=  20.727532  celldm(2)=   0.000000  celldm(3)=   0.000000
     celldm(4)=   0.000000  celldm(5)=   0.000000  celldm(6)=   0.000000

     crystal axes: (cart. coord. in units of alat)
               a(1) = (   1.000000   0.000000   0.000000 )  
               a(2) = (   0.000000   1.010829   0.000000 )  
               a(3) = (   0.000000   0.000000   0.998492 )  

     reciprocal axes: (cart. coord. in units 2 pi/alat)
               b(1) = (  1.000000  0.000000  0.000000 )  
               b(2) = (  0.000000  0.989287  0.000000 )  
               b(3) = (  0.000000  0.000000  1.001511 )  


     PseudoPot. # 1 for Si read from file:
     /home/ppiaggi/pseudos/Si_ONCV_PBE_sr.upf
     MD5 check sum: 8553c464762ac42b85b1eed164b4d029
     Pseudo is Norm-conserving, Zval =  4.0
     Generated using ONCVPSP code by D. R. Hamann
     Using radial grid of 1510 points,  4 beta functions with: 
                l(1) =   0
                l(2) =   0
                l(3) =   1
                l(4) =   1

     atomic species   valence    mass     pseudopotential
        Si             4.00    28.08500     Si( 1.00)

     No symmetry found



   Cartesian axes

     site n.     atom                  positions (alat units)
         1           Si  tau(   1) = (   0.0005970   0.0001765   0.0001876  )
         2           Si  tau(   2) = (  -0.0002251   0.2518389   0.2494822  )
         3           Si  tau(   3) = (   0.2496274  -0.0001379   0.2486129  )
         4           Si  tau(   4) = (   0.2496625   0.2503614   0.0005739  )
         5           Si  tau(   5) = (   0.1249151   0.1257250   0.1245983  )
         6           Si  tau(   6) = (   0.4979954   0.0007059   0.0006009  )
         7           Si  tau(   7) = (   0.4979440   0.2503518   0.2497019  )
         8           Si  tau(   8) = (   0.6224782   0.1246134   0.1242707  )
         9           Si  tau(   9) = (   0.7468398   0.0008618   0.2498659  )
        10           Si  tau(  10) = (   0.7480501   0.2508610  -0.0006937  )
        11           Si  tau(  11) = (   0.0000719   0.5021338   0.0002149  )
        12           Si  tau(  12) = (   0.2485836   0.5019014   0.2494923  )
        13           Si  tau(  13) = (   0.1248419   0.6277352   0.1249078  )
        14           Si  tau(  14) = (   0.3746587   0.3769420   0.1245922  )
        15           Si  tau(  15) = (   0.4976528   0.5019084  -0.0005879  )
        16           Si  tau(  16) = (   0.6225770   0.6279803   0.1237808  )
        17           Si  tau(  17) = (   0.8714564   0.3763875   0.1252080  )
        18           Si  tau(  18) = (   0.7466775   0.5015084   0.2500356  )
        19           Si  tau(  19) = (  -0.0004213   0.7537664   0.2487891  )
        20           Si  tau(  20) = (   0.2484739   0.7535191  -0.0008330  )
        21           Si  tau(  21) = (   0.3734981   0.8789172   0.1246708  )
        22           Si  tau(  22) = (   0.4990498   0.7535755   0.2486864  )
        23           Si  tau(  23) = (   0.7477114   0.7538938  -0.0002046  )
        24           Si  tau(  24) = (   0.8724809   0.8783528   0.1238355  )
        25           Si  tau(  25) = (   0.0002193  -0.0003463   0.4978466  )
        26           Si  tau(  26) = (   0.2498504   0.2511094   0.4987445  )
        27           Si  tau(  27) = (   0.1246296   0.1253993   0.6236526  )
        28           Si  tau(  28) = (   0.3741655   0.1259969   0.3747507  )
        29           Si  tau(  29) = (   0.4975418   0.0006937   0.4976584  )
        30           Si  tau(  30) = (   0.6223094   0.1257784   0.6229794  )
        31           Si  tau(  31) = (   0.8730381   0.1251187   0.3739437  )
        32           Si  tau(  32) = (   0.7474945   0.2517893   0.4990772  )
        33           Si  tau(  33) = (   0.1242579   0.3766502   0.3741829  )
        34           Si  tau(  34) = (   0.0004613   0.5019162   0.4991078  )
        35           Si  tau(  35) = (   0.1250040   0.6271532   0.6230766  )
        36           Si  tau(  36) = (   0.6229639   0.3764918   0.3730101  )
        37           Si  tau(  37) = (   0.3740804   0.6283812   0.3731554  )
        38           Si  tau(  38) = (   0.3728936   0.3771891   0.6222324  )
        39           Si  tau(  39) = (   0.4984168   0.5024657   0.4993907  )
        40           Si  tau(  40) = (   0.6224419   0.6266001   0.6233915  )
        41           Si  tau(  41) = (   0.8721535   0.6277570   0.3733849  )
        42           Si  tau(  42) = (   0.8725075   0.3768343   0.6228696  )
        43           Si  tau(  43) = (   0.1244474   0.8786163   0.3734689  )
        44           Si  tau(  44) = (   0.2498442   0.7523793   0.4977918  )
        45           Si  tau(  45) = (   0.6221102   0.8792887   0.3738948  )
        46           Si  tau(  46) = (   0.3730015   0.8785438   0.6223891  )
        47           Si  tau(  47) = (   0.7473708   0.7522441   0.4990139  )
        48           Si  tau(  48) = (   0.8714775   0.8789439   0.6231562  )
        49           Si  tau(  49) = (   0.0000495   0.2512616   0.7471952  )
        50           Si  tau(  50) = (   0.2500555   0.0005795   0.7472091  )
        51           Si  tau(  51) = (   0.3742538   0.1251800   0.8721031  )
        52           Si  tau(  52) = (   0.4986301   0.2501780   0.7472232  )
        53           Si  tau(  53) = (   0.7474065   0.0008942   0.7472114  )
        54           Si  tau(  54) = (   0.8713484   0.1261733   0.8722953  )
        55           Si  tau(  55) = (   0.1254125   0.3760975   0.8719231  )
        56           Si  tau(  56) = (   0.2487375   0.5019498   0.7477352  )
        57           Si  tau(  57) = (   0.6233354   0.3764713   0.8717791  )
        58           Si  tau(  58) = (   0.3744526   0.6273031   0.8721451  )
        59           Si  tau(  59) = (   0.7482767   0.5014146   0.7476439  )
        60           Si  tau(  60) = (   0.8719389   0.6283763   0.8729418  )
        61           Si  tau(  61) = (  -0.0005757   0.7528775   0.7471507  )
        62           Si  tau(  62) = (   0.1239522   0.8785445   0.8715238  )
        63           Si  tau(  63) = (   0.4989476   0.7536723   0.7482745  )
        64           Si  tau(  64) = (   0.6236687   0.8784681   0.8721917  )

     number of k points=     1  Fermi-Dirac smearing, width (Ry)=  0.0100
                       cart. coord. in units 2pi/alat
        k(    1) = (   0.0000000   0.0000000   0.0000000), wk =   2.0000000

     Dense  grid:    99769 G-vectors     FFT dimensions: (  75,  75,  75)

     Estimated max dynamical RAM per process >     160.41 MB

     Estimated total dynamical RAM >     617.29 MB

     Initial potential from superposition of free atoms

     starting charge     255.9608, renormalised to     256.0000
     Starting wfcs are  256 randomized atomic wfcs

     total cpu time spent up to now is        4.0 secs

     Self-consistent Calculation

     iteration #  1     ecut=    30.00 Ry     beta= 0.50
     Davidson diagonalization with overlap
     ethr =  1.00E-02,  avg # of iterations =  3.0

     Threshold (ethr) on eigenvalues was too large:
     Diagonalizing with lowered threshold

     Davidson diagonalization with overlap
     ethr =  6.40E-04,  avg # of iterations =  4.0

     total cpu time spent up to now is        4.2 secs

     total energy              =    -503.97675368 Ry
     estimated scf accuracy    <       1.82119695 Ry

     iteration #  2     ecut=    30.00 Ry     beta= 0.50
     Davidson diagonalization with overlap
     ethr =  7.11E-04,  avg # of iterations =  1.0

     total cpu time spent up to now is        4.3 secs

     total energy              =    -503.95796464 Ry
     estimated scf accuracy    <       0.34456372 Ry

     iteration #  3     ecut=    30.00 Ry     beta= 0.50
     Davidson diagonalization with overlap
     ethr =  1.35E-04,  avg # of iterations =  4.0

     total cpu time spent up to now is        4.4 secs

     total energy              =    -503.97941450 Ry
     estimated scf accuracy    <       0.00733278 Ry

     iteration #  4     ecut=    30.00 Ry     beta= 0.50
     Davidson diagonalization with overlap
     c_bands:  1 eigenvalues not converged
     ethr =  2.86E-06,  avg # of iterations = 20.0

     total cpu time spent up to now is        4.7 secs

     total energy              =    -503.98137020 Ry
     estimated scf accuracy    <       0.00908482 Ry

     iteration #  5     ecut=    30.00 Ry     beta= 0.50
     Davidson diagonalization with overlap
     ethr =  2.86E-06,  avg # of iterations =  6.0

     total cpu time spent up to now is        4.8 secs

     total energy              =    -503.98302100 Ry
     estimated scf accuracy    <       0.00046761 Ry

     iteration #  6     ecut=    30.00 Ry     beta= 0.50
     Davidson diagonalization with overlap
     ethr =  1.83E-07,  avg # of iterations =  4.0

     total cpu time spent up to now is        4.9 secs

     total energy              =    -503.98306562 Ry
     estimated scf accuracy    <       0.00011555 Ry

     iteration #  7     ecut=    30.00 Ry     beta= 0.50
     Davidson diagonalization with overlap
     ethr =  4.51E-08,  avg # of iterations =  5.0

     total cpu time spent up to now is        5.0 secs

     total energy              =    -503.98307196 Ry
     estimated scf accuracy    <       0.00001986 Ry

     iteration #  8     ecut=    30.00 Ry     beta= 0.50
     Davidson diagonalization with overlap
     ethr =  7.76E-09,  avg # of iterations =  5.0

     total cpu time spent up to now is        5.1 secs

     End of self-consistent calculation

          k = 0.0000 0.0000 0.0000 ( 12503 PWs)   bands (ev):

    -5.8473  -4.8525  -4.8146  -4.8051  -4.7809  -4.7750  -4.7615  -3.9356
    -3.9269  -3.9146  -3.9064  -3.8899  -3.8778  -3.8629  -3.8495  -3.8443
    -3.8328  -3.8226  -3.8062  -3.6491  -3.6111  -3.6014  -3.5087  -1.9113
    -1.8586  -1.8545  -1.8403  -1.8165  -1.8005  -1.7401  -1.7214  -1.7196
    -1.7129  -1.7016  -1.6951  -1.6730  -1.6650  -1.6579  -1.6498  -1.6136
    -1.6040  -0.9945  -0.9254  -0.9137  -0.9052   0.3835   0.4026   0.4280
     0.4416   0.4463   0.4504   0.4561   0.4621   0.4712   0.4766   0.4806
     0.4830   2.1281   2.1336   2.1371   2.1422   2.1442   2.1475   2.1520
     2.1546   2.1609   2.1655   2.1698   2.1748   2.1978   2.2153   2.2217
     2.2420   2.2530   2.2563   2.2642   2.2646   2.2686   2.2751   2.2850
     2.2905   2.3053   2.3241   2.3931   2.4044   2.4106   2.4155   3.0681
     3.0692   3.1023   3.1066   3.1535   3.1743   3.9968   4.0000   4.0043
     4.0081   4.0294   4.0397   4.0420   4.0435   4.0530   4.0755   4.1068
     4.1782   4.5156   4.5212   4.5326   4.5341   4.5599   4.5659   4.5757
     4.5913   4.5973   4.6141   4.6167   4.6255   4.6334   4.6384   4.6745
     4.6921   4.7128   4.7388   4.7678   4.9584   5.8034   5.8691   5.9499
     6.5464   6.5490   6.6279   6.6336   6.6720   6.6929   6.9672   6.9777
     6.9802   7.0009   7.0544   7.1035   7.2308   7.2311   7.2346   7.2605
     8.2044   8.2079   8.2118   8.2205   8.2236   8.2251   8.2422   8.2700
     8.3029   8.3117

     the Fermi energy is     6.1923 ev

!    total energy              =    -503.98307559 Ry
     estimated scf accuracy    <       0.00000085 Ry
     smearing contrib. (-TS)   =      -0.04215870 Ry
     internal energy E=F+TS    =    -503.94091689 Ry

     The total energy is F=E-TS. E is the sum of the following terms:
     one-electron contribution =     142.52511292 Ry
     hartree contribution      =      37.10393281 Ry
     xc contribution           =    -153.10246705 Ry
     ewald contribution        =    -530.46749557 Ry

     convergence has been achieved in   8 iterations

     Forces acting on atoms (cartesian axes, Ry/au):

     atom    1 type  1   force =    -0.01261105   -0.01758022   -0.00830001
     atom    2 type  1   force =    -0.00806640   -0.00383641   -0.00141241
     atom    3 type  1   force =    -0.00080754   -0.01605366    0.00526745
     atom    4 type  1   force =     0.00167683    0.00367156   -0.00795248
     atom    5 type  1   force =    -0.00300715   -0.00194587    0.00221131
     atom    6 type  1   force =     0.00113002   -0.02591203   -0.00894366
     atom    7 type  1   force =     0.00372594    0.00251997   -0.00386819
     atom    8 type  1   force =     0.00288891    0.00526104    0.00116201
     atom    9 type  1   force =     0.00570912   -0.02443014   -0.00326853
     atom   10 type  1   force =    -0.00472230    0.00118673    0.00103716
     atom   11 type  1   force =    -0.00914586   -0.00057275   -0.00462125
     atom   12 type  1   force =     0.00436904    0.00204132   -0.00071627
     atom   13 type  1   force =    -0.00297743    0.00048934   -0.00221732
     atom   14 type  1   force =    -0.00586426   -0.00388126    0.00195648
     atom   15 type  1   force =     0.00662211    0.00126268   -0.00420910
     atom   16 type  1   force =     0.00249542   -0.00316417    0.00115994
     atom   17 type  1   force =     0.01085644    0.00088173   -0.00326056
     atom   18 type  1   force =     0.00338408    0.00688542   -0.00643197
     atom   19 type  1   force =    -0.00788158   -0.00069902    0.00029008
     atom   20 type  1   force =     0.00351242    0.00046251   -0.00252225
     atom   21 type  1   force =     0.00005665    0.01666193   -0.00359808
     atom   22 type  1   force =    -0.00285809    0.00288784   -0.00041050
     atom   23 type  1   force =     0.00021084   -0.00076909   -0.00373908
     atom   24 type  1   force =     0.00604009    0.02486466    0.00483315
     atom   25 type  1   force =    -0.00803040   -0.01848274    0.00383029
     atom   26 type  1   force =    -0.00655827   -0.00025034   -0.00085247
     atom   27 type  1   force =    -0.00069376   -0.00203837   -0.00474371
     atom   28 type  1   force =    -0.00615889   -0.00448449   -0.00643838
     atom   29 type  1   force =     0.00334140   -0.02282203    0.00576018
     atom   30 type  1   force =     0.00237187   -0.00412192   -0.00346954
     atom   31 type  1   force =     0.00449226    0.00261829    0.00137990
     atom   32 type  1   force =     0.00248121   -0.00385754   -0.00455506
     atom   33 type  1   force =     0.00128803   -0.00250510    0.00075227
     atom   34 type  1   force =    -0.01202760    0.00365838   -0.00400364
     atom   35 type  1   force =    -0.00219212    0.00297085   -0.00016761
     atom   36 type  1   force =    -0.00402013   -0.00222697    0.00789647
     atom   37 type  1   force =     0.00209396   -0.00553386    0.00035673
     atom   38 type  1   force =     0.00472460   -0.00404634    0.00650887
     atom   39 type  1   force =    -0.00150159   -0.00098335   -0.00894489
     atom   40 type  1   force =     0.00388111    0.00379857    0.00342091
     atom   41 type  1   force =     0.01011040   -0.00182589    0.00259125
     atom   42 type  1   force =     0.00983284   -0.00191710    0.00089857
     atom   43 type  1   force =     0.00146093    0.01794199    0.00009299
     atom   44 type  1   force =    -0.00519007    0.00519398    0.00096183
     atom   45 type  1   force =     0.00477211    0.01586176    0.00201409
     atom   46 type  1   force =     0.00468221    0.01905513    0.00199748
     atom   47 type  1   force =    -0.00187757    0.00621176   -0.00275813
     atom   48 type  1   force =     0.01063405    0.01756330   -0.00132453
     atom   49 type  1   force =    -0.01018453   -0.00053545    0.00338419
     atom   50 type  1   force =    -0.00427265   -0.02336206    0.00276793
     atom   51 type  1   force =    -0.00095345   -0.00023330    0.00598278
     atom   52 type  1   force =    -0.00388231    0.00784256    0.00094680
     atom   53 type  1   force =     0.00015802   -0.02134185    0.00213589
     atom   54 type  1   force =     0.01653692   -0.00549318    0.00283756
     atom   55 type  1   force =    -0.00497735   -0.00100084    0.00887940
     atom   56 type  1   force =     0.00393353    0.00217641    0.00089795
     atom   57 type  1   force =    -0.00201173   -0.00255183    0.00545494
     atom   58 type  1   force =    -0.00578632    0.00305100    0.00356890
     atom   59 type  1   force =    -0.00008186    0.00559938    0.00225699
     atom   60 type  1   force =     0.01044102   -0.00443815    0.00158174
     atom   61 type  1   force =    -0.00855466    0.00333494    0.00061487
     atom   62 type  1   force =     0.00155886    0.02131611    0.00343543
     atom   63 type  1   force =    -0.00227025    0.00062323   -0.00410926
     atom   64 type  1   force =    -0.00230604    0.02500296    0.00571408

     Total force =     0.103907     Total SCF correction =     0.001588


     Computing stress (Cartesian axis) and pressure

          total   stress  (Ry/bohr**3)                   (kbar)     P=       -5.73
  -0.00002130   0.00000832   0.00002031           -3.13        1.22        2.99
   0.00000832  -0.00008229   0.00001137            1.22      -12.11        1.67
   0.00002031   0.00001137  -0.00001332            2.99        1.67       -1.96

 
     init_run     :      0.78s CPU      3.95s WALL (       1 calls)
     electrons    :      1.02s CPU      1.12s WALL (       1 calls)
     forces       :      0.04s CPU      0.04s WALL (       1 calls)
     stress       :      0.15s CPU      0.16s WALL (       1 calls)

     Called by init_run:
     wfcinit      :      0.45s CPU      3.48s WALL (       1 calls)
                                        3.48s GPU  (       1 calls)
     potinit      :      0.14s CPU      0.21s WALL (       1 calls)
     hinit0       :      0.17s CPU      0.20s WALL (       1 calls)

     Called by electrons:
     c_bands      :      0.73s CPU      0.78s WALL (       9 calls)
     sum_band     :      0.17s CPU      0.20s WALL (       9 calls)
     v_of_rho     :      0.07s CPU      0.14s WALL (       9 calls)
     mix_rho      :      0.05s CPU      0.06s WALL (       9 calls)

     Called by c_bands:
     init_us_2    :      0.02s CPU      0.03s WALL (      19 calls)
     init_us_2:gp :      0.02s CPU      0.02s WALL (      19 calls)
     regterg      :      0.66s CPU      0.70s WALL (       9 calls)

     Called by *egterg:
     rdiaghg      :      0.26s CPU      0.88s WALL (      60 calls)
                                        0.87s GPU  (      60 calls)
     h_psi        :      0.74s CPU      3.18s WALL (      62 calls)
                                        3.18s GPU  (      62 calls)
     g_psi        :      0.00s CPU      0.00s WALL (      52 calls)
                                        0.00s GPU  (      52 calls)

     Called by h_psi:
     h_psi:calbec :      0.40s CPU      2.77s WALL (      62 calls)
                                        2.77s GPU  (      62 calls)
     vloc_psi     :      0.31s CPU      0.37s WALL (      62 calls)
                                        0.36s GPU  (      62 calls)
     add_vuspsi   :      0.02s CPU      0.03s WALL (      62 calls)
                                        0.03s GPU  (      62 calls)

     General routines
     calbec       :      0.41s CPU      2.78s WALL (      67 calls)
     fft          :      0.18s CPU      0.28s WALL (      79 calls)
                                        0.09s GPU  (      51 calls)
     ffts         :      0.02s CPU      0.02s WALL (       9 calls)
     fftw         :      0.33s CPU      0.45s WALL (    1003 calls)
                                        0.41s GPU  (    1003 calls)
 
     Parallel routines
 
     PWSCF        :      2.02s CPU      5.34s WALL

 
   This run was terminated on:  10:58:15  10May2023            

=------------------------------------------------------------------------------=
   JOB DONE.
=------------------------------------------------------------------------------=
