An instance of this daemon is already running

     Program PWSCF v.7.1 starts on 10May2023 at 11: 2:15 

     This program is part of the open-source Quantum ESPRESSO suite
     for quantum simulation of materials; please cite
         "P. Giannozzi et al., J. Phys.:Condens. Matter 21 395502 (2009);
         "P. Giannozzi et al., J. Phys.:Condens. Matter 29 465901 (2017);
         "P. Giannozzi et al., J. Chem. Phys. 152 154105 (2020);
          URL http://www.quantum-espresso.org", 
     in publications or presentations arising from this work. More details at
     http://www.quantum-espresso.org/quote

     Parallel version (MPI & OpenMP), running on       4 processor cores
     Number of MPI processes:                 4
     Threads/MPI process:                     1

     MPI processes distributed on     1 nodes
     149903 MiB available memory on the printing compute node when the environment starts
 
     Reading input from pw-si-45.in
Warning: card &CELL ignored
Warning: card / ignored

     Current dimensions of program PWSCF are:
     Max number of different atomic species (ntypx) = 10
     Max number of k-points (npk) =  40000
     Max angular momentum in pseudopotentials (lmaxx) =  4

     IMPORTANT: XC functional enforced from input :
     Exchange-correlation= PBE
                           (   1   4   3   4   0   0   0)
     Any further DFT definition will be discarded
     Please, verify this is what you really want


     gamma-point specific algorithms are used
 
     K-points division:     npool     =       2
     R & G space division:  proc/nbgrp/npool/nimage =       2
     Subspace diagonalization in iterative solution of the eigenvalue problem:
     a serial algorithm will be used

     Message from routine divide_et_impera:
     suboptimal parallelization: some nodes have no k-points
 
     Parallelization info
     --------------------
     sticks:   dense  smooth     PW     G-vecs:    dense   smooth      PW
     Min        2027    2027    541                97923    97923   13352
     Max        2028    2028    544                97924    97924   13353
     Sum        4055    4055   1085               195847   195847   26705
 
     Using Slab Decomposition
 


     bravais-lattice index     =            0
     lattice parameter (alat)  =      20.6584  a.u.
     unit-cell volume          =    8829.6354 (a.u.)^3
     number of atoms/cell      =           64
     number of atomic types    =            1
     number of electrons       =       256.00
     number of Kohn-Sham states=          154
     kinetic-energy cutoff     =      30.0000  Ry
     charge density cutoff     =     120.0000  Ry
     scf convergence threshold =      1.0E-06
     mixing beta               =       0.5000
     number of iterations used =            8  plain     mixing
     Exchange-correlation= PBE
                           (   1   4   3   4   0   0   0)

     GPU acceleration is ACTIVE.
     GPU-aware MPI enabled

     Message from routine print_cuda_info:
     High GPU oversubscription detected. Are you sure this is what you want?

     celldm(1)=  20.658418  celldm(2)=   0.000000  celldm(3)=   0.000000
     celldm(4)=   0.000000  celldm(5)=   0.000000  celldm(6)=   0.000000

     crystal axes: (cart. coord. in units of alat)
               a(1) = (   1.000000   0.000000   0.000000 )  
               a(2) = (   0.000000   0.997145   0.000000 )  
               a(3) = (   0.000000   0.000000   1.004369 )  

     reciprocal axes: (cart. coord. in units 2 pi/alat)
               b(1) = (  1.000000  0.000000  0.000000 )  
               b(2) = (  0.000000  1.002864  0.000000 )  
               b(3) = (  0.000000  0.000000  0.995650 )  


     PseudoPot. # 1 for Si read from file:
     /home/ppiaggi/pseudos/Si_ONCV_PBE_sr.upf
     MD5 check sum: 8553c464762ac42b85b1eed164b4d029
     Pseudo is Norm-conserving, Zval =  4.0
     Generated using ONCVPSP code by D. R. Hamann
     Using radial grid of 1510 points,  4 beta functions with: 
                l(1) =   0
                l(2) =   0
                l(3) =   1
                l(4) =   1

     atomic species   valence    mass     pseudopotential
        Si             4.00    28.08500     Si( 1.00)

     No symmetry found



   Cartesian axes

     site n.     atom                  positions (alat units)
         1           Si  tau(   1) = (  -0.0003778   0.0006131  -0.0001564  )
         2           Si  tau(   2) = (  -0.0008819   0.2501794   0.2514601  )
         3           Si  tau(   3) = (   0.2469555  -0.0006340   0.2513481  )
         4           Si  tau(   4) = (   0.2482971   0.2509001  -0.0009106  )
         5           Si  tau(   5) = (   0.1233845   0.1259955   0.1262878  )
         6           Si  tau(   6) = (   0.4947822  -0.0000440   0.0003587  )
         7           Si  tau(   7) = (   0.4945274   0.2501257   0.2510491  )
         8           Si  tau(   8) = (   0.6181941   0.1246156   0.1253585  )
         9           Si  tau(   9) = (   0.7424506  -0.0001098   0.2521029  )
        10           Si  tau(  10) = (   0.7422966   0.2502639   0.0001852  )
        11           Si  tau(  11) = (   0.0000201   0.5008022   0.0008573  )
        12           Si  tau(  12) = (   0.2479192   0.5007958   0.2524304  )
        13           Si  tau(  13) = (   0.1245631   0.6276730   0.1261670  )
        14           Si  tau(  14) = (   0.3710196   0.3765701   0.1268746  )
        15           Si  tau(  15) = (   0.4951904   0.5022414  -0.0005150  )
        16           Si  tau(  16) = (   0.6194018   0.6276294   0.1254761  )
        17           Si  tau(  17) = (   0.8665662   0.3765142   0.1258988  )
        18           Si  tau(  18) = (   0.7435273   0.5007923   0.2512288  )
        19           Si  tau(  19) = (   0.0007768   0.7531556   0.2513608  )
        20           Si  tau(  20) = (   0.2467999   0.7529639   0.0007663  )
        21           Si  tau(  21) = (   0.3709404   0.8777612   0.1253574  )
        22           Si  tau(  22) = (   0.4952660   0.7531677   0.2515556  )
        23           Si  tau(  23) = (   0.7429616   0.7523134   0.0000705  )
        24           Si  tau(  24) = (   0.8670347   0.8767837   0.1266425  )
        25           Si  tau(  25) = (  -0.0001345  -0.0006138   0.5039354  )
        26           Si  tau(  26) = (   0.2471949   0.2512418   0.5043012  )
        27           Si  tau(  27) = (   0.1230558   0.1248336   0.6296866  )
        28           Si  tau(  28) = (   0.3719580   0.1250455   0.3785839  )
        29           Si  tau(  29) = (   0.4954417  -0.0001114   0.5043254  )
        30           Si  tau(  30) = (   0.6188333   0.1255008   0.6303241  )
        31           Si  tau(  31) = (   0.8673681   0.1255862   0.3772126  )
        32           Si  tau(  32) = (   0.7434559   0.2508139   0.5038967  )
        33           Si  tau(  33) = (   0.1243400   0.3761133   0.3774222  )
        34           Si  tau(  34) = (   0.0008512   0.5008568   0.5036119  )
        35           Si  tau(  35) = (   0.1240206   0.6278217   0.6301773  )
        36           Si  tau(  36) = (   0.6188228   0.3769814   0.3777283  )
        37           Si  tau(  37) = (   0.3722053   0.6276548   0.3778483  )
        38           Si  tau(  38) = (   0.3705969   0.3769279   0.6294813  )
        39           Si  tau(  39) = (   0.4942409   0.5006743   0.5034782  )
        40           Si  tau(  40) = (   0.6187912   0.6274195   0.6306937  )
        41           Si  tau(  41) = (   0.8670152   0.6277420   0.3774339  )
        42           Si  tau(  42) = (   0.8662466   0.3761978   0.6295110  )
        43           Si  tau(  43) = (   0.1244405   0.8773389   0.3772124  )
        44           Si  tau(  44) = (   0.2472484   0.7523156   0.5036809  )
        45           Si  tau(  45) = (   0.6196734   0.8768523   0.3777779  )
        46           Si  tau(  46) = (   0.3716464   0.8780376   0.6308233  )
        47           Si  tau(  47) = (   0.7419266   0.7518498   0.5036959  )
        48           Si  tau(  48) = (   0.8662136   0.8778047   0.6296819  )
        49           Si  tau(  49) = (   0.0008256   0.2511509   0.7555336  )
        50           Si  tau(  50) = (   0.2477246   0.0005011   0.7560821  )
        51           Si  tau(  51) = (   0.3720030   0.1252937   0.8813611  )
        52           Si  tau(  52) = (   0.4955216   0.2511318   0.7562681  )
        53           Si  tau(  53) = (   0.7434576   0.0003187   0.7553347  )
        54           Si  tau(  54) = (   0.8670963   0.1247679   0.8825771  )
        55           Si  tau(  55) = (   0.1242048   0.3759564   0.8822259  )
        56           Si  tau(  56) = (   0.2468915   0.5023780   0.7552537  )
        57           Si  tau(  57) = (   0.6194467   0.3757395   0.8819430  )
        58           Si  tau(  58) = (   0.3718598   0.6275127   0.8826196  )
        59           Si  tau(  59) = (   0.7422981   0.5021997   0.7550866  )
        60           Si  tau(  60) = (   0.8670390   0.6276016   0.8819011  )
        61           Si  tau(  61) = (   0.0001578   0.7517820   0.7556293  )
        62           Si  tau(  62) = (   0.1230621   0.8771011   0.8812785  )
        63           Si  tau(  63) = (   0.4956532   0.7531016   0.7553472  )
        64           Si  tau(  64) = (   0.6186124   0.8777999   0.8812901  )

     number of k points=     1  Fermi-Dirac smearing, width (Ry)=  0.0100
                       cart. coord. in units 2pi/alat
        k(    1) = (   0.0000000   0.0000000   0.0000000), wk =   2.0000000

     Dense  grid:    97924 G-vectors     FFT dimensions: (  75,  72,  75)

     Estimated max dynamical RAM per process >     157.29 MB

     Estimated total dynamical RAM >     605.25 MB

     Initial potential from superposition of free atoms

     starting charge     255.9608, renormalised to     256.0000
     Starting wfcs are  256 randomized atomic wfcs

     total cpu time spent up to now is        4.2 secs

     Self-consistent Calculation

     iteration #  1     ecut=    30.00 Ry     beta= 0.50
     Davidson diagonalization with overlap
     ethr =  1.00E-02,  avg # of iterations =  3.0

     Threshold (ethr) on eigenvalues was too large:
     Diagonalizing with lowered threshold

     Davidson diagonalization with overlap
     ethr =  6.62E-04,  avg # of iterations =  2.0

     total cpu time spent up to now is        4.4 secs

     total energy              =    -503.95558704 Ry
     estimated scf accuracy    <       1.87370850 Ry

     iteration #  2     ecut=    30.00 Ry     beta= 0.50
     Davidson diagonalization with overlap
     ethr =  7.32E-04,  avg # of iterations =  1.0

     total cpu time spent up to now is        4.5 secs

     total energy              =    -503.93688502 Ry
     estimated scf accuracy    <       0.34954153 Ry

     iteration #  3     ecut=    30.00 Ry     beta= 0.50
     Davidson diagonalization with overlap
     ethr =  1.37E-04,  avg # of iterations =  4.0

     total cpu time spent up to now is        4.6 secs

     total energy              =    -503.95935883 Ry
     estimated scf accuracy    <       0.00978630 Ry

     iteration #  4     ecut=    30.00 Ry     beta= 0.50
     Davidson diagonalization with overlap
     c_bands:  3 eigenvalues not converged
     ethr =  3.82E-06,  avg # of iterations = 20.0

     total cpu time spent up to now is        4.8 secs

     total energy              =    -503.96163861 Ry
     estimated scf accuracy    <       0.00946155 Ry

     iteration #  5     ecut=    30.00 Ry     beta= 0.50
     Davidson diagonalization with overlap
     ethr =  3.70E-06,  avg # of iterations = 18.0

     total cpu time spent up to now is        5.0 secs

     total energy              =    -503.96337393 Ry
     estimated scf accuracy    <       0.00076982 Ry

     iteration #  6     ecut=    30.00 Ry     beta= 0.50
     Davidson diagonalization with overlap
     ethr =  3.01E-07,  avg # of iterations =  3.0

     total cpu time spent up to now is        5.1 secs

     total energy              =    -503.96342410 Ry
     estimated scf accuracy    <       0.00013070 Ry

     iteration #  7     ecut=    30.00 Ry     beta= 0.50
     Davidson diagonalization with overlap
     ethr =  5.11E-08,  avg # of iterations =  5.0

     total cpu time spent up to now is        5.2 secs

     total energy              =    -503.96344363 Ry
     estimated scf accuracy    <       0.00000620 Ry

     iteration #  8     ecut=    30.00 Ry     beta= 0.50
     Davidson diagonalization with overlap
     ethr =  2.42E-09,  avg # of iterations =  4.0

     total cpu time spent up to now is        5.3 secs

     total energy              =    -503.96344646 Ry
     estimated scf accuracy    <       0.00000208 Ry

     iteration #  9     ecut=    30.00 Ry     beta= 0.50
     Davidson diagonalization with overlap
     ethr =  8.12E-10,  avg # of iterations =  4.0

     total cpu time spent up to now is        5.4 secs

     End of self-consistent calculation

          k = 0.0000 0.0000 0.0000 ( 12216 PWs)   bands (ev):

    -5.7967  -4.7849  -4.7592  -4.7527  -4.7246  -4.6853  -4.6589  -3.8803
    -3.8688  -3.8460  -3.8231  -3.8110  -3.7937  -3.7751  -3.7510  -3.7414
    -3.7292  -3.6997  -3.6769  -3.5594  -3.4949  -3.4924  -3.3621  -1.8088
    -1.7757  -1.7433  -1.7310  -1.6989  -1.6607  -1.6131  -1.6061  -1.6014
    -1.5794  -1.5778  -1.5605  -1.5388  -1.5149  -1.5040  -1.4878  -1.4716
    -1.4544  -0.9206  -0.8319  -0.8160  -0.7777   0.5435   0.5520   0.5677
     0.5723   0.5768   0.5792   0.5970   0.6057   0.6283   0.6363   0.6419
     0.6458   2.1948   2.2031   2.2122   2.2176   2.2213   2.2306   2.2415
     2.2531   2.2624   2.2657   2.2856   2.2878   2.3402   2.3522   2.3595
     2.3634   2.3652   2.3728   2.3900   2.3976   2.3997   2.4067   2.4131
     2.4327   2.5136   2.5425   2.5573   2.5627   2.5758   2.6036   3.1954
     3.2148   3.2259   3.2422   3.2819   3.2980   4.1062   4.1194   4.1216
     4.1659   4.1854   4.2122   4.2188   4.2211   4.2246   4.2339   4.2446
     4.3130   4.5607   4.6681   4.6835   4.6985   4.7086   4.7159   4.7309
     4.7438   4.7556   4.7780   4.7880   4.8110   4.8286   4.8307   4.8416
     4.8745   4.8922   4.9238   4.9451   5.1488   5.9647   6.0826   6.1206
     6.6784   6.6979   6.7396   6.7614   6.8348   6.8568   7.1372   7.1445
     7.1687   7.2018   7.2138   7.2184   7.4674   7.4687   7.4729   7.5030
     8.3456   8.3955   8.4178   8.4241   8.4282   8.4429   8.4486   8.4500
     8.4814   8.4990

     the Fermi energy is     6.3534 ev

!    total energy              =    -503.96344663 Ry
     estimated scf accuracy    <       0.00000051 Ry
     smearing contrib. (-TS)   =      -0.04635214 Ry
     internal energy E=F+TS    =    -503.91709449 Ry

     The total energy is F=E-TS. E is the sum of the following terms:
     one-electron contribution =     146.44667709 Ry
     hartree contribution      =      36.74526875 Ry
     xc contribution           =    -153.68214784 Ry
     ewald contribution        =    -533.42689250 Ry

     convergence has been achieved in   9 iterations

     Forces acting on atoms (cartesian axes, Ry/au):

     atom    1 type  1   force =    -0.02683069    0.01275765    0.01504099
     atom    2 type  1   force =    -0.02240076    0.00609212    0.00186215
     atom    3 type  1   force =     0.00495236    0.02476678    0.00254954
     atom    4 type  1   force =    -0.00061673   -0.00116245    0.01675521
     atom    5 type  1   force =    -0.00057304    0.00049357   -0.00394256
     atom    6 type  1   force =     0.00138490    0.01647619    0.00554159
     atom    7 type  1   force =     0.00516496    0.00267131    0.00542074
     atom    8 type  1   force =     0.00273586    0.00416532    0.00485114
     atom    9 type  1   force =     0.00645500    0.01801201   -0.00185865
     atom   10 type  1   force =     0.00681924    0.00009494    0.01071420
     atom   11 type  1   force =    -0.02562518    0.00563663    0.00686964
     atom   12 type  1   force =     0.00002351    0.00789150   -0.00036292
     atom   13 type  1   force =    -0.00644035   -0.00714782    0.00286758
     atom   14 type  1   force =     0.00140809   -0.00055873   -0.00684607
     atom   15 type  1   force =     0.00311317   -0.00547382    0.01535448
     atom   16 type  1   force =    -0.00110303   -0.00415191    0.00374529
     atom   17 type  1   force =     0.02600285   -0.00544888   -0.00051128
     atom   18 type  1   force =    -0.00006326    0.00758637    0.00329170
     atom   19 type  1   force =    -0.02842752   -0.00636769    0.00258184
     atom   20 type  1   force =     0.00351309   -0.00450138    0.00409079
     atom   21 type  1   force =    -0.00118641   -0.01755517    0.00458127
     atom   22 type  1   force =     0.00200532   -0.00468051   -0.00146557
     atom   23 type  1   force =     0.00343720    0.00093595    0.00817695
     atom   24 type  1   force =     0.02595224   -0.01046730   -0.00385544
     atom   25 type  1   force =    -0.02712026    0.01642349   -0.00236546
     atom   26 type  1   force =     0.00099905   -0.00493924   -0.00252224
     atom   27 type  1   force =     0.00006839    0.00422329   -0.00002197
     atom   28 type  1   force =    -0.00674626    0.00231065   -0.00231355
     atom   29 type  1   force =     0.00356039    0.01567326   -0.00164917
     atom   30 type  1   force =     0.00258876    0.00382438   -0.00268688
     atom   31 type  1   force =     0.02248213   -0.00042804    0.00394619
     atom   32 type  1   force =    -0.00100767   -0.00070926   -0.00304985
     atom   33 type  1   force =    -0.00771194   -0.00329138    0.00066932
     atom   34 type  1   force =    -0.02949353    0.00453002    0.00051334
     atom   35 type  1   force =    -0.00614253   -0.00461510   -0.00514809
     atom   36 type  1   force =     0.00091884   -0.00699646   -0.00170606
     atom   37 type  1   force =    -0.00493256   -0.00284141   -0.00020550
     atom   38 type  1   force =     0.00007885   -0.00329247    0.00469093
     atom   39 type  1   force =     0.00680747    0.00708897    0.00278578
     atom   40 type  1   force =    -0.00429913   -0.00445725   -0.00780390
     atom   41 type  1   force =     0.02755619   -0.00466285    0.00093552
     atom   42 type  1   force =     0.03019710    0.00220036    0.00164514
     atom   43 type  1   force =    -0.00720210   -0.01612591    0.00496394
     atom   44 type  1   force =     0.00530222   -0.00000651    0.00165856
     atom   45 type  1   force =    -0.00517512   -0.01263414    0.00264704
     atom   46 type  1   force =    -0.00454398   -0.01873361   -0.00602201
     atom   47 type  1   force =     0.00871839   -0.00251223    0.00137807
     atom   48 type  1   force =     0.02898361   -0.02081752   -0.00347389
     atom   49 type  1   force =    -0.03213217   -0.00140863    0.00124718
     atom   50 type  1   force =    -0.00289493    0.01579857   -0.00112481
     atom   51 type  1   force =    -0.00216973    0.00334344   -0.00850866
     atom   52 type  1   force =    -0.00141437    0.00159111   -0.00560610
     atom   53 type  1   force =     0.00024176    0.01803568    0.00336868
     atom   54 type  1   force =     0.02585158    0.00667225   -0.01465414
     atom   55 type  1   force =    -0.00432462    0.00367669   -0.01374847
     atom   56 type  1   force =     0.00437717   -0.00051608    0.00521163
     atom   57 type  1   force =    -0.00127767    0.00539804   -0.01100867
     atom   58 type  1   force =    -0.00610989    0.00208556   -0.01627755
     atom   59 type  1   force =     0.00780871   -0.00289675    0.00432502
     atom   60 type  1   force =     0.02645933   -0.00710981   -0.01009086
     atom   61 type  1   force =    -0.03031262    0.00134981   -0.00184694
     atom   62 type  1   force =    -0.00086544   -0.01332972   -0.00867370
     atom   63 type  1   force =    -0.00222949   -0.00567768    0.00353920
     atom   64 type  1   force =     0.00540529   -0.01628821   -0.00846964

     Total force =     0.144924     Total SCF correction =     0.001340


     Computing stress (Cartesian axis) and pressure

          total   stress  (Ry/bohr**3)                   (kbar)     P=       10.33
   0.00007068  -0.00001789  -0.00002679           10.40       -2.63       -3.94
  -0.00001789   0.00008706   0.00002645           -2.63       12.81        3.89
  -0.00002679   0.00002645   0.00005283           -3.94        3.89        7.77

 
     init_run     :      0.96s CPU      4.17s WALL (       1 calls)
     electrons    :      1.13s CPU      1.21s WALL (       1 calls)
     forces       :      0.04s CPU      0.04s WALL (       1 calls)
     stress       :      0.15s CPU      0.15s WALL (       1 calls)

     Called by init_run:
     wfcinit      :      0.40s CPU      3.47s WALL (       1 calls)
                                        3.47s GPU  (       1 calls)
     potinit      :      0.14s CPU      0.22s WALL (       1 calls)
     hinit0       :      0.39s CPU      0.42s WALL (       1 calls)

     Called by electrons:
     c_bands      :      0.82s CPU      0.86s WALL (      10 calls)
     sum_band     :      0.17s CPU      0.21s WALL (      10 calls)
     v_of_rho     :      0.08s CPU      0.16s WALL (      10 calls)
     mix_rho      :      0.05s CPU      0.06s WALL (      10 calls)

     Called by c_bands:
     init_us_2    :      0.02s CPU      0.03s WALL (      21 calls)
     init_us_2:gp :      0.02s CPU      0.03s WALL (      21 calls)
     regterg      :      0.74s CPU      0.78s WALL (      10 calls)

     Called by *egterg:
     rdiaghg      :      0.32s CPU      0.94s WALL (      73 calls)
                                        0.93s GPU  (      73 calls)
     h_psi        :      0.70s CPU      3.16s WALL (      75 calls)
                                        3.16s GPU  (      75 calls)
     g_psi        :      0.00s CPU      0.00s WALL (      64 calls)
                                        0.00s GPU  (      64 calls)

     Called by h_psi:
     h_psi:calbec :      0.36s CPU      2.78s WALL (      75 calls)
                                        2.78s GPU  (      75 calls)
     vloc_psi     :      0.30s CPU      0.35s WALL (      75 calls)
                                        0.34s GPU  (      75 calls)
     add_vuspsi   :      0.02s CPU      0.04s WALL (      75 calls)
                                        0.04s GPU  (      75 calls)

     General routines
     calbec       :      0.37s CPU      2.78s WALL (      80 calls)
     fft          :      0.41s CPU      0.52s WALL (      87 calls)
                                        0.10s GPU  (      56 calls)
     ffts         :      0.02s CPU      0.02s WALL (      10 calls)
     fftw         :      0.33s CPU      0.43s WALL (    1130 calls)
                                        0.39s GPU  (    1130 calls)
 
     Parallel routines
 
     PWSCF        :      2.30s CPU      5.65s WALL

 
   This run was terminated on:  11: 2:21  10May2023            

=------------------------------------------------------------------------------=
   JOB DONE.
=------------------------------------------------------------------------------=
