An instance of this daemon is already running
An instance of this daemon is already running

     Program PWSCF v.7.1 starts on 10May2023 at 11: 9:27 

     This program is part of the open-source Quantum ESPRESSO suite
     for quantum simulation of materials; please cite
         "P. Giannozzi et al., J. Phys.:Condens. Matter 21 395502 (2009);
         "P. Giannozzi et al., J. Phys.:Condens. Matter 29 465901 (2017);
         "P. Giannozzi et al., J. Chem. Phys. 152 154105 (2020);
          URL http://www.quantum-espresso.org", 
     in publications or presentations arising from this work. More details at
     http://www.quantum-espresso.org/quote

     Parallel version (MPI & OpenMP), running on       4 processor cores
     Number of MPI processes:                 4
     Threads/MPI process:                     1

     MPI processes distributed on     1 nodes
     150760 MiB available memory on the printing compute node when the environment starts
 
     Reading input from pw-si-98.in
Warning: card &CELL ignored
Warning: card / ignored

     Current dimensions of program PWSCF are:
     Max number of different atomic species (ntypx) = 10
     Max number of k-points (npk) =  40000
     Max angular momentum in pseudopotentials (lmaxx) =  4

     IMPORTANT: XC functional enforced from input :
     Exchange-correlation= PBE
                           (   1   4   3   4   0   0   0)
     Any further DFT definition will be discarded
     Please, verify this is what you really want


     gamma-point specific algorithms are used
 
     K-points division:     npool     =       2
     R & G space division:  proc/nbgrp/npool/nimage =       2
     Subspace diagonalization in iterative solution of the eigenvalue problem:
     a serial algorithm will be used

     Message from routine divide_et_impera:
     suboptimal parallelization: some nodes have no k-points
 
     Parallelization info
     --------------------
     sticks:   dense  smooth     PW     G-vecs:    dense   smooth      PW
     Min        2025    2025    540                97214    97214   13220
     Max        2026    2026    541                97215    97215   13221
     Sum        4051    4051   1081               194429   194429   26441
 
     Using Slab Decomposition
 


     bravais-lattice index     =            0
     lattice parameter (alat)  =      20.6773  a.u.
     unit-cell volume          =    8761.0351 (a.u.)^3
     number of atoms/cell      =           64
     number of atomic types    =            1
     number of electrons       =       256.00
     number of Kohn-Sham states=          154
     kinetic-energy cutoff     =      30.0000  Ry
     charge density cutoff     =     120.0000  Ry
     scf convergence threshold =      1.0E-06
     mixing beta               =       0.5000
     number of iterations used =            8  plain     mixing
     Exchange-correlation= PBE
                           (   1   4   3   4   0   0   0)

     GPU acceleration is ACTIVE.
     GPU-aware MPI enabled

     Message from routine print_cuda_info:
     High GPU oversubscription detected. Are you sure this is what you want?

     celldm(1)=  20.677288  celldm(2)=   0.000000  celldm(3)=   0.000000
     celldm(4)=   0.000000  celldm(5)=   0.000000  celldm(6)=   0.000000

     crystal axes: (cart. coord. in units of alat)
               a(1) = (   1.000000   0.000000   0.000000 )  
               a(2) = (   0.000000   0.993877   0.000000 )  
               a(3) = (   0.000000   0.000000   0.997108 )  

     reciprocal axes: (cart. coord. in units 2 pi/alat)
               b(1) = (  1.000000  0.000000  0.000000 )  
               b(2) = (  0.000000  1.006161  0.000000 )  
               b(3) = (  0.000000  0.000000  1.002901 )  


     PseudoPot. # 1 for Si read from file:
     /home/ppiaggi/pseudos/Si_ONCV_PBE_sr.upf
     MD5 check sum: 8553c464762ac42b85b1eed164b4d029
     Pseudo is Norm-conserving, Zval =  4.0
     Generated using ONCVPSP code by D. R. Hamann
     Using radial grid of 1510 points,  4 beta functions with: 
                l(1) =   0
                l(2) =   0
                l(3) =   1
                l(4) =   1

     atomic species   valence    mass     pseudopotential
        Si             4.00    28.08500     Si( 1.00)

     No symmetry found



   Cartesian axes

     site n.     atom                  positions (alat units)
         1           Si  tau(   1) = (   0.0001273  -0.0007394  -0.0005022  )
         2           Si  tau(   2) = (  -0.0002754   0.2462097   0.2490957  )
         3           Si  tau(   3) = (   0.2512920   0.0001465   0.2493455  )
         4           Si  tau(   4) = (   0.2515962   0.2467820   0.0007661  )
         5           Si  tau(   5) = (   0.1267357   0.1227685   0.1244119  )
         6           Si  tau(   6) = (   0.5038543   0.0002739   0.0007801  )
         7           Si  tau(   7) = (   0.5041447   0.2465886   0.2499762  )
         8           Si  tau(   8) = (   0.6289720   0.1229714   0.1245056  )
         9           Si  tau(   9) = (   0.7557261   0.0006870   0.2484894  )
        10           Si  tau(  10) = (   0.7551992   0.2461948   0.0005918  )
        11           Si  tau(  11) = (   0.0008920   0.4949228  -0.0004657  )
        12           Si  tau(  12) = (   0.2519651   0.4942082   0.2494928  )
        13           Si  tau(  13) = (   0.1265739   0.6178706   0.1245406  )
        14           Si  tau(  14) = (   0.3774332   0.3702541   0.1237287  )
        15           Si  tau(  15) = (   0.5043156   0.4942056   0.0003571  )
        16           Si  tau(  16) = (   0.6298211   0.6172667   0.1249959  )
        17           Si  tau(  17) = (   0.8814091   0.3706380   0.1247325  )
        18           Si  tau(  18) = (   0.7555930   0.4938497   0.2490440  )
        19           Si  tau(  19) = (  -0.0005750   0.7418957   0.2484999  )
        20           Si  tau(  20) = (   0.2515653   0.7405579   0.0002005  )
        21           Si  tau(  21) = (   0.3777785   0.8645506   0.1243284  )
        22           Si  tau(  22) = (   0.5033588   0.7413925   0.2496834  )
        23           Si  tau(  23) = (   0.7559282   0.7420800  -0.0005391  )
        24           Si  tau(  24) = (   0.8816686   0.8639297   0.1254996  )
        25           Si  tau(  25) = (   0.0000972   0.0005667   0.4985459  )
        26           Si  tau(  26) = (   0.2514025   0.2467297   0.4984545  )
        27           Si  tau(  27) = (   0.1264082   0.1230435   0.6230766  )
        28           Si  tau(  28) = (   0.3787800   0.1239533   0.3743184  )
        29           Si  tau(  29) = (   0.5033147   0.0007849   0.4975857  )
        30           Si  tau(  30) = (   0.6289772   0.1237556   0.6226230  )
        31           Si  tau(  31) = (   0.8815693   0.1237802   0.3744069  )
        32           Si  tau(  32) = (   0.7557523   0.2476682   0.4978835  )
        33           Si  tau(  33) = (   0.1258232   0.3711405   0.3747684  )
        34           Si  tau(  34) = (  -0.0007976   0.4942045   0.4988013  )
        35           Si  tau(  35) = (   0.1258505   0.6182695   0.6237073  )
        36           Si  tau(  36) = (   0.6289134   0.3705484   0.3741983  )
        37           Si  tau(  37) = (   0.3776300   0.6170682   0.3734634  )
        38           Si  tau(  38) = (   0.3772188   0.3710150   0.6234200  )
        39           Si  tau(  39) = (   0.5035343   0.4940973   0.4983179  )
        40           Si  tau(  40) = (   0.6301186   0.6177171   0.6222706  )
        41           Si  tau(  41) = (   0.8809080   0.6176384   0.3741929  )
        42           Si  tau(  42) = (   0.8810199   0.3709528   0.6229409  )
        43           Si  tau(  43) = (   0.1265021   0.8653362   0.3729819  )
        44           Si  tau(  44) = (   0.2517506   0.7420239   0.4978553  )
        45           Si  tau(  45) = (   0.6297731   0.8644912   0.3733398  )
        46           Si  tau(  46) = (   0.3783466   0.8644461   0.6222416  )
        47           Si  tau(  47) = (   0.7558332   0.7405671   0.4980878  )
        48           Si  tau(  48) = (   0.8809774   0.8642390   0.6228766  )
        49           Si  tau(  49) = (   0.0000902   0.2474733   0.7470387  )
        50           Si  tau(  50) = (   0.2520980   0.0005534   0.7482221  )
        51           Si  tau(  51) = (   0.3783276   0.1235271   0.8724531  )
        52           Si  tau(  52) = (   0.5038369   0.2463565   0.7478848  )
        53           Si  tau(  53) = (   0.7554666  -0.0006509   0.7485603  )
        54           Si  tau(  54) = (   0.8826067   0.1242065   0.8726162  )
        55           Si  tau(  55) = (   0.1259501   0.3710590   0.8721600  )
        56           Si  tau(  56) = (   0.2517311   0.4946548   0.7483642  )
        57           Si  tau(  57) = (   0.6294357   0.3700656   0.8723153  )
        58           Si  tau(  58) = (   0.3779656   0.6177107   0.8728366  )
        59           Si  tau(  59) = (   0.7551576   0.4949918   0.7480951  )
        60           Si  tau(  60) = (   0.8825932   0.6174136   0.8730043  )
        61           Si  tau(  61) = (  -0.0000404   0.7416004   0.7484788  )
        62           Si  tau(  62) = (   0.1268151   0.8645918   0.8732416  )
        63           Si  tau(  63) = (   0.5038850   0.7411959   0.7483015  )
        64           Si  tau(  64) = (   0.6299170   0.8640575   0.8731360  )

     number of k points=     1  Fermi-Dirac smearing, width (Ry)=  0.0100
                       cart. coord. in units 2pi/alat
        k(    1) = (   0.0000000   0.0000000   0.0000000), wk =   2.0000000

     Dense  grid:    97215 G-vectors     FFT dimensions: (  75,  72,  72)

     Estimated max dynamical RAM per process >     155.46 MB

     Estimated total dynamical RAM >     598.11 MB

     Initial potential from superposition of free atoms

     starting charge     255.9608, renormalised to     256.0000
     Starting wfcs are  256 randomized atomic wfcs

     total cpu time spent up to now is        4.3 secs

     Self-consistent Calculation

     iteration #  1     ecut=    30.00 Ry     beta= 0.50
     Davidson diagonalization with overlap
     ethr =  1.00E-02,  avg # of iterations =  3.0

     Threshold (ethr) on eigenvalues was too large:
     Diagonalizing with lowered threshold

     Davidson diagonalization with overlap
     ethr =  6.71E-04,  avg # of iterations =  2.0

     total cpu time spent up to now is        4.5 secs

     total energy              =    -503.95828455 Ry
     estimated scf accuracy    <       1.89778349 Ry

     iteration #  2     ecut=    30.00 Ry     beta= 0.50
     Davidson diagonalization with overlap
     ethr =  7.41E-04,  avg # of iterations =  2.0

     total cpu time spent up to now is        4.6 secs

     total energy              =    -503.93928205 Ry
     estimated scf accuracy    <       0.35217827 Ry

     iteration #  3     ecut=    30.00 Ry     beta= 0.50
     Davidson diagonalization with overlap
     ethr =  1.38E-04,  avg # of iterations =  4.0

     total cpu time spent up to now is        4.7 secs

     total energy              =    -503.96242730 Ry
     estimated scf accuracy    <       0.00861233 Ry

     iteration #  4     ecut=    30.00 Ry     beta= 0.50
     Davidson diagonalization with overlap
     c_bands:  4 eigenvalues not converged
     ethr =  3.36E-06,  avg # of iterations = 20.0

     total cpu time spent up to now is        4.9 secs

     total energy              =    -503.96436829 Ry
     estimated scf accuracy    <       0.00995264 Ry

     iteration #  5     ecut=    30.00 Ry     beta= 0.50
     Davidson diagonalization with overlap
     ethr =  3.36E-06,  avg # of iterations =  6.0

     total cpu time spent up to now is        5.0 secs

     total energy              =    -503.96618032 Ry
     estimated scf accuracy    <       0.00065172 Ry

     iteration #  6     ecut=    30.00 Ry     beta= 0.50
     Davidson diagonalization with overlap
     ethr =  2.55E-07,  avg # of iterations =  3.0

     total cpu time spent up to now is        5.1 secs

     total energy              =    -503.96622471 Ry
     estimated scf accuracy    <       0.00015246 Ry

     iteration #  7     ecut=    30.00 Ry     beta= 0.50
     Davidson diagonalization with overlap
     ethr =  5.96E-08,  avg # of iterations =  5.0

     total cpu time spent up to now is        5.2 secs

     total energy              =    -503.96623918 Ry
     estimated scf accuracy    <       0.00001503 Ry

     iteration #  8     ecut=    30.00 Ry     beta= 0.50
     Davidson diagonalization with overlap
     ethr =  5.87E-09,  avg # of iterations =  4.0

     total cpu time spent up to now is        5.3 secs

     total energy              =    -503.96624346 Ry
     estimated scf accuracy    <       0.00000120 Ry

     iteration #  9     ecut=    30.00 Ry     beta= 0.50
     Davidson diagonalization with overlap
     ethr =  4.67E-10,  avg # of iterations =  5.0

     total cpu time spent up to now is        5.4 secs

     total energy              =    -503.96624382 Ry
     estimated scf accuracy    <       0.00000114 Ry

     iteration # 10     ecut=    30.00 Ry     beta= 0.50
     Davidson diagonalization with overlap
     ethr =  4.46E-10,  avg # of iterations =  3.0

     total cpu time spent up to now is        5.5 secs

     End of self-consistent calculation

          k = 0.0000 0.0000 0.0000 ( 12125 PWs)   bands (ev):

    -5.7626  -4.7387  -4.7224  -4.6997  -4.6881  -4.6452  -4.6396  -3.8298
    -3.8155  -3.7978  -3.7730  -3.7555  -3.7318  -3.7256  -3.7143  -3.7095
    -3.6817  -3.6711  -3.6503  -3.4983  -3.4476  -3.4437  -3.3639  -1.7378
    -1.7255  -1.6835  -1.6552  -1.6269  -1.6005  -1.5589  -1.5347  -1.5318
    -1.5125  -1.5082  -1.4957  -1.4729  -1.4646  -1.4537  -1.4513  -1.4359
    -1.4258  -0.8539  -0.7974  -0.7902  -0.7225   0.6131   0.6197   0.6365
     0.6467   0.6522   0.6563   0.6673   0.6714   0.6877   0.6956   0.7031
     0.7085   2.2493   2.2543   2.2628   2.2698   2.2996   2.3061   2.3118
     2.3141   2.3200   2.3264   2.3316   2.3369   2.3778   2.4018   2.4047
     2.4194   2.4256   2.4309   2.4366   2.4421   2.4539   2.4559   2.4613
     2.4792   2.5861   2.6138   2.6207   2.6240   2.6393   2.6540   3.2651
     3.2794   3.2962   3.3123   3.3247   3.3517   4.1890   4.1919   4.1998
     4.2460   4.2529   4.2580   4.2669   4.2726   4.2786   4.3228   4.3289
     4.3395   4.6202   4.7403   4.7584   4.7754   4.7866   4.8135   4.8227
     4.8259   4.8544   4.8568   4.8707   4.8758   4.8819   4.8959   4.9228
     4.9602   4.9788   5.0108   5.0202   5.0959   6.0652   6.1306   6.2082
     6.7607   6.7696   6.8154   6.8449   6.8851   6.9123   7.2038   7.2423
     7.2458   7.2571   7.2637   7.2979   7.5736   7.5864   7.5917   7.6057
     8.4697   8.4754   8.4836   8.4971   8.5230   8.5355   8.5466   8.5571
     8.5812   8.5991

     the Fermi energy is     6.4283 ev

!    total energy              =    -503.96624391 Ry
     estimated scf accuracy    <       0.00000009 Ry
     smearing contrib. (-TS)   =      -0.04685404 Ry
     internal energy E=F+TS    =    -503.91938987 Ry

     The total energy is F=E-TS. E is the sum of the following terms:
     one-electron contribution =     148.56137720 Ry
     hartree contribution      =      36.41134372 Ry
     xc contribution           =    -153.94088103 Ry
     ewald contribution        =    -534.95122976 Ry

     convergence has been achieved in  10 iterations

     Forces acting on atoms (cartesian axes, Ry/au):

     atom    1 type  1   force =     0.02317471   -0.01643344    0.00617244
     atom    2 type  1   force =     0.02796814    0.00473841    0.00055335
     atom    3 type  1   force =     0.00871015   -0.01520441    0.00017580
     atom    4 type  1   force =     0.00036289    0.00057859   -0.00751163
     atom    5 type  1   force =    -0.00415346   -0.00106904    0.00029005
     atom    6 type  1   force =    -0.00313561   -0.02070528   -0.00490566
     atom    7 type  1   force =    -0.00433843    0.00396606   -0.00592994
     atom    8 type  1   force =     0.00298778    0.00093066    0.00251185
     atom    9 type  1   force =    -0.00247925   -0.01989999    0.00476586
     atom   10 type  1   force =    -0.00125466    0.00388145   -0.00275020
     atom   11 type  1   force =     0.02133816   -0.00586095    0.00639574
     atom   12 type  1   force =    -0.00102126   -0.00225896   -0.00208878
     atom   13 type  1   force =    -0.00084520   -0.00069570    0.00307713
     atom   14 type  1   force =     0.00485248   -0.00009718    0.00704530
     atom   15 type  1   force =    -0.00345991   -0.00092846   -0.00208028
     atom   16 type  1   force =     0.00128529    0.00546243   -0.00184323
     atom   17 type  1   force =    -0.02043743   -0.00111956   -0.00328901
     atom   18 type  1   force =    -0.00430448    0.00060611    0.00315092
     atom   19 type  1   force =     0.02905742   -0.00597455    0.00833781
     atom   20 type  1   force =     0.00458347    0.00473928   -0.00024049
     atom   21 type  1   force =    -0.00070780    0.01693941    0.00234595
     atom   22 type  1   force =     0.00003255   -0.00057085   -0.00320604
     atom   23 type  1   force =    -0.00243912   -0.00647330    0.00583818
     atom   24 type  1   force =    -0.02589010    0.02644818   -0.01034264
     atom   25 type  1   force =     0.02213779   -0.02274145    0.00242091
     atom   26 type  1   force =     0.00329462    0.00270607    0.00127641
     atom   27 type  1   force =     0.00061143    0.00005592    0.00144080
     atom   28 type  1   force =    -0.00782676   -0.00320007   -0.00408888
     atom   29 type  1   force =     0.00353792   -0.02227928    0.00362527
     atom   30 type  1   force =     0.00640556   -0.00477654    0.00147951
     atom   31 type  1   force =    -0.02499128   -0.00314393   -0.00324288
     atom   32 type  1   force =    -0.00610140   -0.00182629    0.00396812
     atom   33 type  1   force =     0.00026423   -0.00442696   -0.00510934
     atom   34 type  1   force =     0.02749485    0.00397861    0.00127908
     atom   35 type  1   force =     0.00238943   -0.00003753   -0.00328762
     atom   36 type  1   force =     0.00426439    0.00052269   -0.00262729
     atom   37 type  1   force =     0.00130943    0.00409136    0.00283980
     atom   38 type  1   force =     0.00260243   -0.00385822    0.00044146
     atom   39 type  1   force =    -0.00264365    0.00095041    0.00231775
     atom   40 type  1   force =    -0.00385033    0.00060581    0.00414793
     atom   41 type  1   force =    -0.01888721   -0.00006391   -0.00559030
     atom   42 type  1   force =    -0.02495907   -0.00084307    0.00249565
     atom   43 type  1   force =    -0.00318713    0.01529662    0.00243261
     atom   44 type  1   force =    -0.00006090   -0.00323261    0.00122443
     atom   45 type  1   force =     0.00113704    0.01954289    0.00137932
     atom   46 type  1   force =    -0.00023143    0.02001089    0.00415204
     atom   47 type  1   force =    -0.00560660    0.00663067    0.00018466
     atom   48 type  1   force =    -0.01948465    0.01960741   -0.00030664
     atom   49 type  1   force =     0.02484162    0.00023885    0.00055284
     atom   50 type  1   force =     0.00223200   -0.02150589   -0.00189602
     atom   51 type  1   force =    -0.00094968   -0.00150329    0.00325703
     atom   52 type  1   force =    -0.00347719    0.00518827   -0.00237090
     atom   53 type  1   force =    -0.00313635   -0.01108137   -0.00324506
     atom   54 type  1   force =    -0.02787937   -0.00577595   -0.00145029
     atom   55 type  1   force =     0.00371587   -0.00450508    0.00147309
     atom   56 type  1   force =     0.00115735    0.00118592   -0.00204168
     atom   57 type  1   force =     0.00220152    0.00012705    0.00119234
     atom   58 type  1   force =     0.00208949   -0.00095588    0.00013842
     atom   59 type  1   force =    -0.00058880   -0.00263271    0.00040731
     atom   60 type  1   force =    -0.02950178    0.00391722   -0.00305700
     atom   61 type  1   force =     0.02479842    0.00326210   -0.00179740
     atom   62 type  1   force =     0.00039621    0.01684352   -0.00444851
     atom   63 type  1   force =    -0.00054133    0.00107162   -0.00428718
     atom   64 type  1   force =    -0.00286299    0.02155722   -0.00175224

     Total force =     0.133416     Total SCF correction =     0.000544


     Computing stress (Cartesian axis) and pressure

          total   stress  (Ry/bohr**3)                   (kbar)     P=       17.40
   0.00010089  -0.00000082   0.00002505           14.84       -0.12        3.69
  -0.00000082   0.00013362  -0.00003631           -0.12       19.66       -5.34
   0.00002505  -0.00003631   0.00012033            3.69       -5.34       17.70

 
     init_run     :      1.10s CPU      4.23s WALL (       1 calls)
     electrons    :      1.14s CPU      1.21s WALL (       1 calls)
     forces       :      0.03s CPU      0.04s WALL (       1 calls)
     stress       :      0.15s CPU      0.15s WALL (       1 calls)

     Called by init_run:
     wfcinit      :      0.44s CPU      3.41s WALL (       1 calls)
                                        3.41s GPU  (       1 calls)
     potinit      :      0.16s CPU      0.25s WALL (       1 calls)
     hinit0       :      0.48s CPU      0.50s WALL (       1 calls)

     Called by electrons:
     c_bands      :      0.79s CPU      0.83s WALL (      11 calls)
     sum_band     :      0.19s CPU      0.21s WALL (      11 calls)
     v_of_rho     :      0.09s CPU      0.19s WALL (      11 calls)
     mix_rho      :      0.07s CPU      0.07s WALL (      11 calls)

     Called by c_bands:
     init_us_2    :      0.03s CPU      0.03s WALL (      23 calls)
     init_us_2:gp :      0.03s CPU      0.03s WALL (      23 calls)
     regterg      :      0.71s CPU      0.75s WALL (      11 calls)

     Called by *egterg:
     rdiaghg      :      0.31s CPU      0.89s WALL (      67 calls)
                                        0.88s GPU  (      67 calls)
     h_psi        :      0.72s CPU      3.12s WALL (      69 calls)
                                        3.11s GPU  (      69 calls)
     g_psi        :      0.00s CPU      0.00s WALL (      57 calls)
                                        0.00s GPU  (      57 calls)

     Called by h_psi:
     h_psi:calbec :      0.40s CPU      2.74s WALL (      69 calls)
                                        2.74s GPU  (      69 calls)
     vloc_psi     :      0.29s CPU      0.34s WALL (      69 calls)
                                        0.34s GPU  (      69 calls)
     add_vuspsi   :      0.02s CPU      0.04s WALL (      69 calls)
                                        0.04s GPU  (      69 calls)

     General routines
     calbec       :      0.40s CPU      2.74s WALL (      74 calls)
     fft          :      0.51s CPU      0.63s WALL (      95 calls)
                                        0.13s GPU  (      61 calls)
     ffts         :      0.02s CPU      0.02s WALL (      11 calls)
     fftw         :      0.32s CPU      0.43s WALL (    1211 calls)
                                        0.39s GPU  (    1211 calls)
 
     Parallel routines
 
     PWSCF        :      2.45s CPU      5.70s WALL

 
   This run was terminated on:  11: 9:32  10May2023            

=------------------------------------------------------------------------------=
   JOB DONE.
=------------------------------------------------------------------------------=
