An instance of this daemon is already running

     Program PWSCF v.7.1 starts on 10May2023 at 11: 4:43 

     This program is part of the open-source Quantum ESPRESSO suite
     for quantum simulation of materials; please cite
         "P. Giannozzi et al., J. Phys.:Condens. Matter 21 395502 (2009);
         "P. Giannozzi et al., J. Phys.:Condens. Matter 29 465901 (2017);
         "P. Giannozzi et al., J. Chem. Phys. 152 154105 (2020);
          URL http://www.quantum-espresso.org", 
     in publications or presentations arising from this work. More details at
     http://www.quantum-espresso.org/quote

     Parallel version (MPI & OpenMP), running on       4 processor cores
     Number of MPI processes:                 4
     Threads/MPI process:                     1

     MPI processes distributed on     1 nodes
     149922 MiB available memory on the printing compute node when the environment starts
 
     Reading input from pw-si-63.in
Warning: card &CELL ignored
Warning: card / ignored

     Current dimensions of program PWSCF are:
     Max number of different atomic species (ntypx) = 10
     Max number of k-points (npk) =  40000
     Max angular momentum in pseudopotentials (lmaxx) =  4

     IMPORTANT: XC functional enforced from input :
     Exchange-correlation= PBE
                           (   1   4   3   4   0   0   0)
     Any further DFT definition will be discarded
     Please, verify this is what you really want


     gamma-point specific algorithms are used
 
     K-points division:     npool     =       2
     R & G space division:  proc/nbgrp/npool/nimage =       2
     Subspace diagonalization in iterative solution of the eigenvalue problem:
     a serial algorithm will be used

     Message from routine divide_et_impera:
     suboptimal parallelization: some nodes have no k-points
 
     Parallelization info
     --------------------
     sticks:   dense  smooth     PW     G-vecs:    dense   smooth      PW
     Min        2035    2035    541                99155    99155   13501
     Max        2036    2036    544                99156    99156   13504
     Sum        4071    4071   1085               198311   198311   27005
 
     Using Slab Decomposition
 


     bravais-lattice index     =            0
     lattice parameter (alat)  =      20.5806  a.u.
     unit-cell volume          =    8938.1825 (a.u.)^3
     number of atoms/cell      =           64
     number of atomic types    =            1
     number of electrons       =       256.00
     number of Kohn-Sham states=          154
     kinetic-energy cutoff     =      30.0000  Ry
     charge density cutoff     =     120.0000  Ry
     scf convergence threshold =      1.0E-06
     mixing beta               =       0.5000
     number of iterations used =            8  plain     mixing
     Exchange-correlation= PBE
                           (   1   4   3   4   0   0   0)

     GPU acceleration is ACTIVE.
     GPU-aware MPI enabled

     Message from routine print_cuda_info:
     High GPU oversubscription detected. Are you sure this is what you want?

     celldm(1)=  20.580567  celldm(2)=   0.000000  celldm(3)=   0.000000
     celldm(4)=   0.000000  celldm(5)=   0.000000  celldm(6)=   0.000000

     crystal axes: (cart. coord. in units of alat)
               a(1) = (   1.000000   0.000000   0.000000 )  
               a(2) = (   0.000000   1.008599   0.000000 )  
               a(3) = (   0.000000   0.000000   1.016620 )  

     reciprocal axes: (cart. coord. in units 2 pi/alat)
               b(1) = (  1.000000  0.000000  0.000000 )  
               b(2) = (  0.000000  0.991474  0.000000 )  
               b(3) = (  0.000000  0.000000  0.983652 )  


     PseudoPot. # 1 for Si read from file:
     /home/ppiaggi/pseudos/Si_ONCV_PBE_sr.upf
     MD5 check sum: 8553c464762ac42b85b1eed164b4d029
     Pseudo is Norm-conserving, Zval =  4.0
     Generated using ONCVPSP code by D. R. Hamann
     Using radial grid of 1510 points,  4 beta functions with: 
                l(1) =   0
                l(2) =   0
                l(3) =   1
                l(4) =   1

     atomic species   valence    mass     pseudopotential
        Si             4.00    28.08500     Si( 1.00)

     No symmetry found



   Cartesian axes

     site n.     atom                  positions (alat units)
         1           Si  tau(   1) = (  -0.0004497   0.0002960  -0.0004049  )
         2           Si  tau(   2) = (   0.0007317   0.2533919   0.2520554  )
         3           Si  tau(   3) = (   0.2507422  -0.0000509   0.2523192  )
         4           Si  tau(   4) = (   0.2507698   0.2538475  -0.0003446  )
         5           Si  tau(   5) = (   0.1247676   0.1269772   0.1253116  )
         6           Si  tau(   6) = (   0.5007354   0.0003865  -0.0005322  )
         7           Si  tau(   7) = (   0.5001686   0.2534045   0.2514473  )
         8           Si  tau(   8) = (   0.6259408   0.1261052   0.1265381  )
         9           Si  tau(   9) = (   0.7507041  -0.0007942   0.2521519  )
        10           Si  tau(  10) = (   0.7517699   0.2544571  -0.0000424  )
        11           Si  tau(  11) = (   0.0001777   0.5077211  -0.0002083  )
        12           Si  tau(  12) = (   0.2507651   0.5068675   0.2516924  )
        13           Si  tau(  13) = (   0.1255029   0.6342829   0.1257880  )
        14           Si  tau(  14) = (   0.3751388   0.3801490   0.1257259  )
        15           Si  tau(  15) = (   0.5006717   0.5072685  -0.0007101  )
        16           Si  tau(  16) = (   0.6263011   0.6348310   0.1268058  )
        17           Si  tau(  17) = (   0.8754872   0.3804942   0.1267154  )
        18           Si  tau(  18) = (   0.7520505   0.5066493   0.2519159  )
        19           Si  tau(  19) = (   0.0002272   0.7612087   0.2513297  )
        20           Si  tau(  20) = (   0.2510435   0.7614640  -0.0001160  )
        21           Si  tau(  21) = (   0.3757007   0.8876640   0.1267511  )
        22           Si  tau(  22) = (   0.5007050   0.7615913   0.2512864  )
        23           Si  tau(  23) = (   0.7520423   0.7605498  -0.0001771  )
        24           Si  tau(  24) = (   0.8765823   0.8875735   0.1265682  )
        25           Si  tau(  25) = (  -0.0000174   0.0002369   0.5045413  )
        26           Si  tau(  26) = (   0.2507171   0.2540121   0.5032372  )
        27           Si  tau(  27) = (   0.1258499   0.1266060   0.6295748  )
        28           Si  tau(  28) = (   0.3756973   0.1272144   0.3786388  )
        29           Si  tau(  29) = (   0.5002035  -0.0004218   0.5038269  )
        30           Si  tau(  30) = (   0.6258381   0.1260701   0.6298077  )
        31           Si  tau(  31) = (   0.8766641   0.1275235   0.3772967  )
        32           Si  tau(  32) = (   0.7516135   0.2536777   0.5048815  )
        33           Si  tau(  33) = (   0.1243750   0.3803409   0.3777319  )
        34           Si  tau(  34) = (  -0.0005124   0.5077457   0.5036622  )
        35           Si  tau(  35) = (   0.1247915   0.6349050   0.6296066  )
        36           Si  tau(  36) = (   0.6256701   0.3806200   0.3776114  )
        37           Si  tau(  37) = (   0.3752843   0.6341619   0.3781688  )
        38           Si  tau(  38) = (   0.3762752   0.3814724   0.6296402  )
        39           Si  tau(  39) = (   0.4999413   0.5072007   0.5036789  )
        40           Si  tau(  40) = (   0.6266866   0.6337283   0.6305169  )
        41           Si  tau(  41) = (   0.8757136   0.6335021   0.3777713  )
        42           Si  tau(  42) = (   0.8755164   0.3799061   0.6308183  )
        43           Si  tau(  43) = (   0.1247483   0.8875424   0.3771821  )
        44           Si  tau(  44) = (   0.2506665   0.7613464   0.5048824  )
        45           Si  tau(  45) = (   0.6263945   0.8884849   0.3784595  )
        46           Si  tau(  46) = (   0.3763624   0.8878686   0.6307977  )
        47           Si  tau(  47) = (   0.7511926   0.7616071   0.5040689  )
        48           Si  tau(  48) = (   0.8767109   0.8872872   0.6300989  )
        49           Si  tau(  49) = (  -0.0006238   0.2541904   0.7557177  )
        50           Si  tau(  50) = (   0.2508073  -0.0005932   0.7553640  )
        51           Si  tau(  51) = (   0.3750617   0.1261770   0.8824073  )
        52           Si  tau(  52) = (   0.5006354   0.2536561   0.7552659  )
        53           Si  tau(  53) = (   0.7508571  -0.0009147   0.7553203  )
        54           Si  tau(  54) = (   0.8763178   0.1269020   0.8818658  )
        55           Si  tau(  55) = (   0.1244349   0.3815080   0.8821705  )
        56           Si  tau(  56) = (   0.2509582   0.5077734   0.7563862  )
        57           Si  tau(  57) = (   0.6256736   0.3800142   0.8817764  )
        58           Si  tau(  58) = (   0.3756280   0.6350279   0.8818928  )
        59           Si  tau(  59) = (   0.7512412   0.5066472   0.7564415  )
        60           Si  tau(  60) = (   0.8766992   0.6337166   0.8825391  )
        61           Si  tau(  61) = (  -0.0005479   0.7611062   0.7567804  )
        62           Si  tau(  62) = (   0.1251390   0.8880118   0.8828883  )
        63           Si  tau(  63) = (   0.5000257   0.7615726   0.7557548  )
        64           Si  tau(  64) = (   0.6257827   0.8885008   0.8816183  )

     number of k points=     1  Fermi-Dirac smearing, width (Ry)=  0.0100
                       cart. coord. in units 2pi/alat
        k(    1) = (   0.0000000   0.0000000   0.0000000), wk =   2.0000000

     Dense  grid:    99156 G-vectors     FFT dimensions: (  72,  75,  75)

     Estimated max dynamical RAM per process >     159.01 MB

     Estimated total dynamical RAM >     611.84 MB

     Initial potential from superposition of free atoms

     starting charge     255.9608, renormalised to     256.0000
     Starting wfcs are  256 randomized atomic wfcs

     total cpu time spent up to now is        4.1 secs

     Self-consistent Calculation

     iteration #  1     ecut=    30.00 Ry     beta= 0.50
     Davidson diagonalization with overlap
     ethr =  1.00E-02,  avg # of iterations =  3.0

     Threshold (ethr) on eigenvalues was too large:
     Diagonalizing with lowered threshold

     Davidson diagonalization with overlap
     ethr =  6.47E-04,  avg # of iterations =  2.0

     total cpu time spent up to now is        4.3 secs

     total energy              =    -503.96494707 Ry
     estimated scf accuracy    <       1.83608120 Ry

     iteration #  2     ecut=    30.00 Ry     beta= 0.50
     Davidson diagonalization with overlap
     ethr =  7.17E-04,  avg # of iterations =  2.0

     total cpu time spent up to now is        4.4 secs

     total energy              =    -503.94633327 Ry
     estimated scf accuracy    <       0.34566313 Ry

     iteration #  3     ecut=    30.00 Ry     beta= 0.50
     Davidson diagonalization with overlap
     ethr =  1.35E-04,  avg # of iterations =  4.0

     total cpu time spent up to now is        4.5 secs

     total energy              =    -503.96776875 Ry
     estimated scf accuracy    <       0.00908622 Ry

     iteration #  4     ecut=    30.00 Ry     beta= 0.50
     Davidson diagonalization with overlap
     c_bands:  4 eigenvalues not converged
     ethr =  3.55E-06,  avg # of iterations = 20.0

     total cpu time spent up to now is        4.7 secs

     total energy              =    -503.97027677 Ry
     estimated scf accuracy    <       0.00916947 Ry

     iteration #  5     ecut=    30.00 Ry     beta= 0.50
     Davidson diagonalization with overlap
     ethr =  3.55E-06,  avg # of iterations =  9.0

     total cpu time spent up to now is        4.9 secs

     total energy              =    -503.97192580 Ry
     estimated scf accuracy    <       0.00057657 Ry

     iteration #  6     ecut=    30.00 Ry     beta= 0.50
     Davidson diagonalization with overlap
     ethr =  2.25E-07,  avg # of iterations =  3.0

     total cpu time spent up to now is        5.0 secs

     total energy              =    -503.97197438 Ry
     estimated scf accuracy    <       0.00011558 Ry

     iteration #  7     ecut=    30.00 Ry     beta= 0.50
     Davidson diagonalization with overlap
     ethr =  4.51E-08,  avg # of iterations =  5.0

     total cpu time spent up to now is        5.1 secs

     total energy              =    -503.97198565 Ry
     estimated scf accuracy    <       0.00001236 Ry

     iteration #  8     ecut=    30.00 Ry     beta= 0.50
     Davidson diagonalization with overlap
     ethr =  4.83E-09,  avg # of iterations =  5.0

     total cpu time spent up to now is        5.2 secs

     End of self-consistent calculation

          k = 0.0000 0.0000 0.0000 ( 12404 PWs)   bands (ev):

    -5.8354  -4.8498  -4.8226  -4.7868  -4.7509  -4.7363  -4.7258  -3.9572
    -3.9445  -3.9122  -3.8712  -3.8630  -3.8559  -3.8345  -3.8181  -3.8018
    -3.7792  -3.7643  -3.7530  -3.6373  -3.5705  -3.5520  -3.4508  -1.8978
    -1.8596  -1.8334  -1.7986  -1.7668  -1.7509  -1.6953  -1.6882  -1.6813
    -1.6736  -1.6636  -1.6622  -1.6403  -1.6202  -1.6100  -1.5882  -1.5609
    -1.5347  -0.9725  -0.9124  -0.8921  -0.8411   0.4264   0.4466   0.4669
     0.4685   0.4919   0.4965   0.5041   0.5119   0.5156   0.5185   0.5310
     0.5370   2.1213   2.1240   2.1431   2.1535   2.1673   2.1735   2.1745
     2.1788   2.1849   2.1944   2.2110   2.2130   2.2368   2.2561   2.2587
     2.2674   2.2936   2.3002   2.3111   2.3132   2.3292   2.3375   2.3409
     2.3495   2.3576   2.3762   2.4471   2.4645   2.4784   2.4960   3.0871
     3.0893   3.1440   3.1731   3.1989   3.2177   4.0107   4.0191   4.0308
     4.0650   4.0696   4.0735   4.0781   4.0820   4.1485   4.1510   4.1706
     4.2498   4.4518   4.5194   4.5600   4.5820   4.6207   4.6304   4.6349
     4.6477   4.6532   4.6602   4.6720   4.6886   4.7025   4.7164   4.7223
     4.7486   4.7691   4.8170   4.8243   5.0551   5.8576   5.9134   6.0213
     6.5577   6.5667   6.6608   6.7000   6.7310   6.7591   6.9859   7.0054
     7.0533   7.0876   7.1022   7.1658   7.2941   7.2997   7.3072   7.3338
     8.2129   8.2309   8.2416   8.2523   8.2662   8.3306   8.3495   8.3588
     8.3763   8.4074

     the Fermi energy is     6.2388 ev

!    total energy              =    -503.97198866 Ry
     estimated scf accuracy    <       0.00000085 Ry
     smearing contrib. (-TS)   =      -0.04417210 Ry
     internal energy E=F+TS    =    -503.92781656 Ry

     The total energy is F=E-TS. E is the sum of the following terms:
     one-electron contribution =     143.66598687 Ry
     hartree contribution      =      37.02545644 Ry
     xc contribution           =    -153.27800729 Ry
     ewald contribution        =    -531.34125258 Ry

     convergence has been achieved in   8 iterations

     Forces acting on atoms (cartesian axes, Ry/au):

     atom    1 type  1   force =     0.00564097    0.01707104   -0.02272326
     atom    2 type  1   force =     0.00056053    0.00169186   -0.00354799
     atom    3 type  1   force =    -0.00290932    0.02111899   -0.00109290
     atom    4 type  1   force =    -0.00514383   -0.00063107   -0.02431898
     atom    5 type  1   force =     0.00511489    0.00061988   -0.00165033
     atom    6 type  1   force =     0.00093777    0.01438521   -0.02044034
     atom    7 type  1   force =     0.00288416    0.00015150    0.00228647
     atom    8 type  1   force =     0.00120987    0.00618085   -0.00783928
     atom    9 type  1   force =     0.00410462    0.02298402    0.00023018
     atom   10 type  1   force =    -0.00554058   -0.00590251   -0.02203899
     atom   11 type  1   force =     0.00176093   -0.00258842   -0.01863223
     atom   12 type  1   force =    -0.00338755    0.00081600    0.00189617
     atom   13 type  1   force =     0.00207263   -0.00008974   -0.00378667
     atom   14 type  1   force =     0.00332706    0.00260493   -0.00472200
     atom   15 type  1   force =     0.00131072    0.00146984   -0.01916426
     atom   16 type  1   force =    -0.00000926   -0.00522705   -0.00832671
     atom   17 type  1   force =     0.00513827    0.00040792   -0.00740283
     atom   18 type  1   force =    -0.00846624    0.00284770    0.00172588
     atom   19 type  1   force =     0.00295978   -0.00754159    0.00353683
     atom   20 type  1   force =    -0.00208838   -0.00323706   -0.02127066
     atom   21 type  1   force =     0.00091536   -0.01409605   -0.00909920
     atom   22 type  1   force =     0.00197211   -0.00442559    0.00808894
     atom   23 type  1   force =    -0.00433232    0.00082095   -0.02264926
     atom   24 type  1   force =    -0.00581740   -0.01679519   -0.00739654
     atom   25 type  1   force =     0.00513968    0.01750464   -0.00451188
     atom   26 type  1   force =    -0.00149610    0.00213318    0.00561834
     atom   27 type  1   force =    -0.00096844    0.00578408    0.00203263
     atom   28 type  1   force =    -0.00056133    0.00024852   -0.00519386
     atom   29 type  1   force =     0.00242227    0.02099948    0.00237574
     atom   30 type  1   force =    -0.00035207    0.00371747   -0.00071300
     atom   31 type  1   force =    -0.00654055   -0.00203487    0.00309274
     atom   32 type  1   force =    -0.00506979   -0.00112740   -0.00493417
     atom   33 type  1   force =     0.00448257    0.00333517   -0.00021162
     atom   34 type  1   force =     0.00381564   -0.00430051    0.00501791
     atom   35 type  1   force =     0.00149582   -0.00306178    0.00407191
     atom   36 type  1   force =     0.00079098   -0.00194441    0.00095780
     atom   37 type  1   force =     0.00055287    0.00237364   -0.00313845
     atom   38 type  1   force =    -0.00513491   -0.00371131    0.00157322
     atom   39 type  1   force =     0.00739744    0.00314404    0.00096613
     atom   40 type  1   force =    -0.00487781    0.00194335   -0.00252279
     atom   41 type  1   force =    -0.00158318    0.00619150   -0.00195975
     atom   42 type  1   force =    -0.00023727    0.00626734   -0.00467963
     atom   43 type  1   force =     0.00257478   -0.01647422    0.00508456
     atom   44 type  1   force =    -0.00147415   -0.00090333   -0.00358238
     atom   45 type  1   force =    -0.00501562   -0.02307831   -0.00251678
     atom   46 type  1   force =    -0.00329651   -0.01887214   -0.00535125
     atom   47 type  1   force =    -0.00019557   -0.00697580    0.00116175
     atom   48 type  1   force =    -0.00515787   -0.01658372    0.00023854
     atom   49 type  1   force =     0.01026737   -0.00401534    0.00462076
     atom   50 type  1   force =    -0.00369726    0.01999902    0.00826991
     atom   51 type  1   force =     0.00221787    0.00624405    0.01857257
     atom   52 type  1   force =    -0.00093285   -0.00310232    0.00590567
     atom   53 type  1   force =     0.00228873    0.02267379    0.00514738
     atom   54 type  1   force =    -0.00649071    0.00131017    0.02164683
     atom   55 type  1   force =     0.00409837   -0.00285026    0.02150671
     atom   56 type  1   force =    -0.00402380    0.00033143    0.00009657
     atom   57 type  1   force =    -0.00005033    0.00137495    0.02418767
     atom   58 type  1   force =     0.00032726   -0.00180463    0.02422969
     atom   59 type  1   force =    -0.00077489    0.00146061    0.00485890
     atom   60 type  1   force =    -0.00614443   -0.00059021    0.02132272
     atom   61 type  1   force =     0.00810711   -0.00309660    0.00245945
     atom   62 type  1   force =    -0.00036874   -0.01701074    0.02031409
     atom   63 type  1   force =     0.00787690   -0.00606158    0.00519550
     atom   64 type  1   force =    -0.00162627   -0.02207336    0.02712783

     Total force =     0.127206     Total SCF correction =     0.001642


     Computing stress (Cartesian axis) and pressure

          total   stress  (Ry/bohr**3)                   (kbar)     P=       -0.82
   0.00003847   0.00001958  -0.00002180            5.66        2.88       -3.21
   0.00001958  -0.00000520  -0.00000337            2.88       -0.76       -0.50
  -0.00002180  -0.00000337  -0.00004992           -3.21       -0.50       -7.34

 
     init_run     :      1.01s CPU      4.07s WALL (       1 calls)
     electrons    :      0.99s CPU      1.05s WALL (       1 calls)
     forces       :      0.04s CPU      0.04s WALL (       1 calls)
     stress       :      0.15s CPU      0.15s WALL (       1 calls)

     Called by init_run:
     wfcinit      :      0.54s CPU      3.45s WALL (       1 calls)
                                        3.45s GPU  (       1 calls)
     potinit      :      0.15s CPU      0.23s WALL (       1 calls)
     hinit0       :      0.30s CPU      0.33s WALL (       1 calls)

     Called by electrons:
     c_bands      :      0.70s CPU      0.73s WALL (       9 calls)
     sum_band     :      0.16s CPU      0.18s WALL (       9 calls)
     v_of_rho     :      0.08s CPU      0.16s WALL (       9 calls)
     mix_rho      :      0.05s CPU      0.06s WALL (       9 calls)

     Called by c_bands:
     init_us_2    :      0.02s CPU      0.03s WALL (      19 calls)
     init_us_2:gp :      0.02s CPU      0.02s WALL (      19 calls)
     regterg      :      0.63s CPU      0.66s WALL (       9 calls)

     Called by *egterg:
     rdiaghg      :      0.30s CPU      0.88s WALL (      61 calls)
                                        0.86s GPU  (      61 calls)
     h_psi        :      0.76s CPU      3.11s WALL (      63 calls)
                                        3.11s GPU  (      63 calls)
     g_psi        :      0.00s CPU      0.00s WALL (      53 calls)
                                        0.00s GPU  (      53 calls)

     Called by h_psi:
     h_psi:calbec :      0.49s CPU      2.78s WALL (      63 calls)
                                        2.78s GPU  (      63 calls)
     vloc_psi     :      0.25s CPU      0.30s WALL (      63 calls)
                                        0.29s GPU  (      63 calls)
     add_vuspsi   :      0.02s CPU      0.03s WALL (      63 calls)
                                        0.03s GPU  (      63 calls)

     General routines
     calbec       :      0.49s CPU      2.78s WALL (      68 calls)
     fft          :      0.32s CPU      0.42s WALL (      79 calls)
                                        0.10s GPU  (      51 calls)
     ffts         :      0.02s CPU      0.02s WALL (       9 calls)
     fftw         :      0.28s CPU      0.37s WALL (    1007 calls)
                                        0.33s GPU  (    1007 calls)
 
     Parallel routines
 
     PWSCF        :      2.22s CPU      5.38s WALL

 
   This run was terminated on:  11: 4:48  10May2023            

=------------------------------------------------------------------------------=
   JOB DONE.
=------------------------------------------------------------------------------=
