10.995360454155719 0.0 0.0 0.0 11.048391077626112 0.0 0.0 0.0 11.009159631525684
11.019999474153868 0.0 0.0 0.0 11.060839592205083 0.0 0.0 0.0 10.993143735435355
10.948846835895859 0.0 0.0 0.0 10.914971103785597 0.0 0.0 0.0 10.997733437018134
10.988241962348948 0.0 0.0 0.0 10.923015758060444 0.0 0.0 0.0 10.96294702935162
11.034396798461543 0.0 0.0 0.0 11.043787070137034 0.0 0.0 0.0 10.9830647845551
10.876613617778393 0.0 0.0 0.0 10.903544113096011 0.0 0.0 0.0 10.98031125201029
10.89848927439452 0.0 0.0 0.0 11.025184212209355 0.0 0.0 0.0 10.944132147475685
11.036471173118288 0.0 0.0 0.0 10.903658279020982 0.0 0.0 0.0 11.060210622611667
10.951711272124676 0.0 0.0 0.0 10.99941692642605 0.0 0.0 0.0 11.049882411968001
10.964555990503042 0.0 0.0 0.0 10.955696629262714 0.0 0.0 0.0 11.03887375100667
10.972573025209599 0.0 0.0 0.0 11.060079295085647 0.0 0.0 0.0 10.915548563197584
10.95394122488068 0.0 0.0 0.0 11.0026862633314 0.0 0.0 0.0 10.893628824496487
10.997473458748674 0.0 0.0 0.0 10.970397679093235 0.0 0.0 0.0 10.997055554757242
10.949434222597132 0.0 0.0 0.0 10.905297053245842 0.0 0.0 0.0 10.970610428383637
11.017735654056532 0.0 0.0 0.0 11.056507065823157 0.0 0.0 0.0 10.998487669868894
10.968537519818694 0.0 0.0 0.0 11.08731581262081 0.0 0.0 0.0 10.951996965238807
10.993906804364373 0.0 0.0 0.0 11.081770107544854 0.0 0.0 0.0 11.090609208615563
10.968891010193875 0.0 0.0 0.0 10.945307894521958 0.0 0.0 0.0 11.019622131116023
11.019687788778148 0.0 0.0 0.0 10.947729227517426 0.0 0.0 0.0 11.035699395135241
11.029682358712321 0.0 0.0 0.0 11.047660740957022 0.0 0.0 0.0 11.037557551916443
10.887967114783617 0.0 0.0 0.0 11.012035500056577 0.0 0.0 0.0 10.911866202600567
11.017336125264226 0.0 0.0 0.0 11.009084140506403 0.0 0.0 0.0 11.053946733208479
11.075687437674953 0.0 0.0 0.0 10.979628000527997 0.0 0.0 0.0 10.918312994873029
10.941692889216128 0.0 0.0 0.0 10.933245902305654 0.0 0.0 0.0 11.000099645858764
10.983598961522855 0.0 0.0 0.0 11.083428892484134 0.0 0.0 0.0 11.035298761834744
11.057141893230996 0.0 0.0 0.0 10.972101414930156 0.0 0.0 0.0 10.919248276680513
10.917673006551754 0.0 0.0 0.0 11.046741736835209 0.0 0.0 0.0 10.932793983665828
11.030221061110426 0.0 0.0 0.0 10.87688995813993 0.0 0.0 0.0 11.072301354458562
10.979931763468963 0.0 0.0 0.0 11.001880647064139 0.0 0.0 0.0 11.039915130692794
11.01984812947228 0.0 0.0 0.0 11.062968795202906 0.0 0.0 0.0 11.067575091721025
10.932642900598864 0.0 0.0 0.0 10.991635441690496 0.0 0.0 0.0 10.88929497149799
11.037305685575863 0.0 0.0 0.0 10.986213997557332 0.0 0.0 0.0 10.99018742760414
10.970108117773087 0.0 0.0 0.0 11.026878427282561 0.0 0.0 0.0 11.007625887535871
10.876631609803477 0.0 0.0 0.0 10.951332315699608 0.0 0.0 0.0 11.056476713471577
10.929200073681319 0.0 0.0 0.0 10.915626007189807 0.0 0.0 0.0 11.074033833057744
11.006969543752579 0.0 0.0 0.0 11.015797133326668 0.0 0.0 0.0 11.078316720335184
10.893712391734713 0.0 0.0 0.0 10.88151143385597 0.0 0.0 0.0 11.004632171307355
11.030076595732545 0.0 0.0 0.0 10.892917593264611 0.0 0.0 0.0 11.046676861009123
10.910796348729198 0.0 0.0 0.0 11.050192682880562 0.0 0.0 0.0 10.881915470794112
10.996451617559345 0.0 0.0 0.0 10.900584552357461 0.0 0.0 0.0 10.885651371060817
11.029870745798496 0.0 0.0 0.0 10.908453928628745 0.0 0.0 0.0 10.916252047246026
11.087266364170937 0.0 0.0 0.0 11.013979533503766 0.0 0.0 0.0 11.053261718232024
10.931566024979865 0.0 0.0 0.0 11.053179697007767 0.0 0.0 0.0 10.887927213408146
10.935279790628092 0.0 0.0 0.0 10.898493509412418 0.0 0.0 0.0 10.903512802836318
11.089797418758492 0.0 0.0 0.0 10.917184721935515 0.0 0.0 0.0 10.943877864322468
10.931963966240549 0.0 0.0 0.0 10.900753209116932 0.0 0.0 0.0 10.979725716809055
11.051491868177404 0.0 0.0 0.0 11.010137185606684 0.0 0.0 0.0 10.873153943900626
10.986364970790916 0.0 0.0 0.0 11.003415809225583 0.0 0.0 0.0 10.897672046381722
11.000270689472032 0.0 0.0 0.0 11.084587764306836 0.0 0.0 0.0 10.975300075006931
11.06442337161794 0.0 0.0 0.0 11.022024501257901 0.0 0.0 0.0 10.949430819516715
10.914733956336557 0.0 0.0 0.0 10.911099349929096 0.0 0.0 0.0 10.982634516278926
11.085645494381751 0.0 0.0 0.0 10.951043586788968 0.0 0.0 0.0 10.993080354503665
10.878148760859826 0.0 0.0 0.0 10.97828212020354 0.0 0.0 0.0 11.01877058989146
11.014186991697313 0.0 0.0 0.0 11.07197843084275 0.0 0.0 0.0 11.031897804379962
10.954603225568329 0.0 0.0 0.0 11.036872295792346 0.0 0.0 0.0 11.04042158723743
10.898355392560806 0.0 0.0 0.0 10.970796760855158 0.0 0.0 0.0 10.99328006803001
11.02325814740291 0.0 0.0 0.0 10.970269345488344 0.0 0.0 0.0 10.891442026476266
11.085522725269414 0.0 0.0 0.0 10.892734399554252 0.0 0.0 0.0 11.042289186640863
10.95041796302746 0.0 0.0 0.0 11.04967255144434 0.0 0.0 0.0 11.017423570543226
10.972605305019309 0.0 0.0 0.0 11.009517149265394 0.0 0.0 0.0 10.967623742210831
10.913051172813994 0.0 0.0 0.0 11.068300238798447 0.0 0.0 0.0 11.054331533297242
10.931018326569221 0.0 0.0 0.0 11.090818883485337 0.0 0.0 0.0 11.081319828559547
10.964792532715178 0.0 0.0 0.0 10.911964162292556 0.0 0.0 0.0 11.073837394453031
10.890766991393017 0.0 0.0 0.0 10.984416696752005 0.0 0.0 0.0 11.07177153878997
10.89085642234123 0.0 0.0 0.0 11.00538466847857 0.0 0.0 0.0 10.964402375761301
10.929147155960482 0.0 0.0 0.0 10.952590176610018 0.0 0.0 0.0 10.945453443517176
11.057166235382578 0.0 0.0 0.0 10.894692234719866 0.0 0.0 0.0 10.98841277573097
10.908008114018383 0.0 0.0 0.0 11.019226164748915 0.0 0.0 0.0 10.95792315914813
10.878913951103105 0.0 0.0 0.0 11.029249662993399 0.0 0.0 0.0 11.000997123462385
10.988289588297699 0.0 0.0 0.0 11.051812890407648 0.0 0.0 0.0 10.931062576121844
10.918862067738925 0.0 0.0 0.0 10.872598849157914 0.0 0.0 0.0 10.883375766018773
11.031506432549516 0.0 0.0 0.0 11.088572415325096 0.0 0.0 0.0 10.966574985687531
11.03236317044984 0.0 0.0 0.0 10.896345164921362 0.0 0.0 0.0 10.920031648648319
11.038136493792978 0.0 0.0 0.0 10.945449261654598 0.0 0.0 0.0 11.003818927433775
10.907467824088656 0.0 0.0 0.0 11.079107737768515 0.0 0.0 0.0 10.920622230284508
10.972852959952817 0.0 0.0 0.0 10.95858825110488 0.0 0.0 0.0 11.007538148159227
11.083551540168296 0.0 0.0 0.0 11.03508316928314 0.0 0.0 0.0 10.989263767216084
10.911909737575574 0.0 0.0 0.0 10.905155265448014 0.0 0.0 0.0 10.959802109413793
11.056293622166006 0.0 0.0 0.0 10.951457846040627 0.0 0.0 0.0 11.04824464040907
10.977662122422336 0.0 0.0 0.0 10.99381026340442 0.0 0.0 0.0 11.075956109066505
11.077922682203038 0.0 0.0 0.0 10.89384084099287 0.0 0.0 0.0 11.05987674615373
10.883358510476066 0.0 0.0 0.0 11.079901081816754 0.0 0.0 0.0 11.036258814189743
10.883876045785836 0.0 0.0 0.0 11.01475465523641 0.0 0.0 0.0 11.011369769786171
11.034496283776713 0.0 0.0 0.0 11.060085280658791 0.0 0.0 0.0 11.087682555864518
10.913303590342379 0.0 0.0 0.0 11.09055746725672 0.0 0.0 0.0 11.017514726326558
10.960322572836215 0.0 0.0 0.0 10.934905584789808 0.0 0.0 0.0 10.87388946902683
11.090629814507231 0.0 0.0 0.0 10.912713931022907 0.0 0.0 0.0 11.022943700749295
10.905609353732917 0.0 0.0 0.0 11.077296361788735 0.0 0.0 0.0 10.93445469047354
10.918889584953758 0.0 0.0 0.0 10.928247073328064 0.0 0.0 0.0 11.070738582411709
11.015167027887184 0.0 0.0 0.0 10.963384727689087 0.0 0.0 0.0 11.034696919027628
10.994987913401038 0.0 0.0 0.0 10.97252515309396 0.0 0.0 0.0 11.048841364200877
10.898026773514419 0.0 0.0 0.0 10.960461568899884 0.0 0.0 0.0 10.961366105122083
11.091287581777216 0.0 0.0 0.0 11.065866350639784 0.0 0.0 0.0 10.987107117521584
10.897307621688267 0.0 0.0 0.0 10.880667432949949 0.0 0.0 0.0 11.018245941673763
10.991026492819303 0.0 0.0 0.0 11.004919150306225 0.0 0.0 0.0 11.086505539962424
11.03635210824641 0.0 0.0 0.0 11.013551004790774 0.0 0.0 0.0 10.92949814713437
10.872653784728282 0.0 0.0 0.0 11.001951383536271 0.0 0.0 0.0 11.082680837887878
10.898459640470852 0.0 0.0 0.0 11.044346421218194 0.0 0.0 0.0 10.983533016424367
10.941949540162181 0.0 0.0 0.0 10.874951983127769 0.0 0.0 0.0 10.910305422092032
11.036276435905616 0.0 0.0 0.0 11.045282037477314 0.0 0.0 0.0 10.969341419321848
