-6857.242153634372
-6857.077521088448
-6857.055510888495
-6857.114761772065
-6857.13963597017
-6857.006553527213
-6856.752939756049
-6856.946552833961
-6856.846248951893
-6857.124243442716
-6857.135615352147
-6856.959524364593
-6857.030481313387
-6857.195574684097
-6857.01677602779
-6857.038465813698
-6856.814087953359
-6856.719831529243
-6857.174460282899
-6857.056668868935
-6856.913815498316
-6856.836143596323
-6857.070976614571
-6856.91946798303
-6857.076912233734
-6856.906279849782
-6856.998566169707
-6856.934869218127
-6856.700205726801
-6857.042233229795
-6856.810484485851
-6856.946513241396
-6857.172954813087
-6857.132624821061
-6856.774171982538
-6856.80386912632
-6856.859428785669
-6856.7359303281655
-6856.8034499349515
-6856.573780548905
-6856.82272035672
-6856.857990119804
-6856.780946256551
-6856.6585248256215
-6856.794577527185
-6856.771400230978
-6856.981840420501
-6856.784428225231
-6857.048356335392
-6856.963263480849
-6856.95660295042
-6856.972339701881
-6856.912705137797
-6856.869959455168
-6856.940788646516
-6857.027427515833
-6857.022827431391
-6856.915110624131
-6856.664755008014
-6857.091931829173
-6857.184190801656
-6856.721574554436
-6856.625306936939
-6856.887620459638
-6856.809224462721
-6856.971003350818
-6857.083445142773
-6856.891893055075
-6857.034991600263
-6856.911931109984
-6856.847623807063
-6856.489703767436
-6856.851363059377
-6856.847942316311
-6857.105231937265
-6856.812932558
-6857.152127355934
-6856.837475593564
-6856.928429508078
-6856.956077090427
-6856.970187961701
-6856.604724110125
-6856.667282129234
-6856.791663460086
-6856.680888773565
-6856.697412750361
-6856.837216405133
-6856.750613454842
-6856.792722118976
-6856.898529639487
-6857.140291764521
-6857.104665260195
-6856.938575136495
-6856.648971725088
-6856.71550219807
-6856.975750104621
-6857.0432127035565
-6856.667232876629
-6856.809459160907
-6856.735033577011
