An instance of this daemon is already running
An instance of this daemon is already running

     Program PWSCF v.7.1 starts on 10May2023 at 10:56:18 

     This program is part of the open-source Quantum ESPRESSO suite
     for quantum simulation of materials; please cite
         "P. Giannozzi et al., J. Phys.:Condens. Matter 21 395502 (2009);
         "P. Giannozzi et al., J. Phys.:Condens. Matter 29 465901 (2017);
         "P. Giannozzi et al., J. Chem. Phys. 152 154105 (2020);
          URL http://www.quantum-espresso.org", 
     in publications or presentations arising from this work. More details at
     http://www.quantum-espresso.org/quote

     Parallel version (MPI & OpenMP), running on       4 processor cores
     Number of MPI processes:                 4
     Threads/MPI process:                     1

     MPI processes distributed on     1 nodes
     153168 MiB available memory on the printing compute node when the environment starts
 
     Reading input from pw-si-2.in
Warning: card &CELL ignored
Warning: card / ignored

     Current dimensions of program PWSCF are:
     Max number of different atomic species (ntypx) = 10
     Max number of k-points (npk) =  40000
     Max angular momentum in pseudopotentials (lmaxx) =  4

     IMPORTANT: XC functional enforced from input :
     Exchange-correlation= PBE
                           (   1   4   3   4   0   0   0)
     Any further DFT definition will be discarded
     Please, verify this is what you really want


     gamma-point specific algorithms are used
 
     K-points division:     npool     =       2
     R & G space division:  proc/nbgrp/npool/nimage =       2
     Subspace diagonalization in iterative solution of the eigenvalue problem:
     a serial algorithm will be used

     Message from routine divide_et_impera:
     suboptimal parallelization: some nodes have no k-points
 
     Parallelization info
     --------------------
     sticks:   dense  smooth     PW     G-vecs:    dense   smooth      PW
     Min        2031    2031    542                98439    98439   13398
     Max        2032    2032    543                98440    98440   13403
     Sum        4063    4063   1085               196879   196879   26801
 
     Using Slab Decomposition
 


     bravais-lattice index     =            0
     lattice parameter (alat)  =      20.6903  a.u.
     unit-cell volume          =    8869.3251 (a.u.)^3
     number of atoms/cell      =           64
     number of atomic types    =            1
     number of electrons       =       256.00
     number of Kohn-Sham states=          154
     kinetic-energy cutoff     =      30.0000  Ry
     charge density cutoff     =     120.0000  Ry
     scf convergence threshold =      1.0E-06
     mixing beta               =       0.5000
     number of iterations used =            8  plain     mixing
     Exchange-correlation= PBE
                           (   1   4   3   4   0   0   0)

     GPU acceleration is ACTIVE.
     GPU-aware MPI enabled

     Message from routine print_cuda_info:
     High GPU oversubscription detected. Are you sure this is what you want?

     celldm(1)=  20.690322  celldm(2)=   0.000000  celldm(3)=   0.000000
     celldm(4)=   0.000000  celldm(5)=   0.000000  celldm(6)=   0.000000

     crystal axes: (cart. coord. in units of alat)
               a(1) = (   1.000000   0.000000   0.000000 )  
               a(2) = (   0.000000   0.996906   0.000000 )  
               a(3) = (   0.000000   0.000000   1.004465 )  

     reciprocal axes: (cart. coord. in units 2 pi/alat)
               b(1) = (  1.000000  0.000000  0.000000 )  
               b(2) = (  0.000000  1.003104  0.000000 )  
               b(3) = (  0.000000  0.000000  0.995555 )  


     PseudoPot. # 1 for Si read from file:
     /home/ppiaggi/pseudos/Si_ONCV_PBE_sr.upf
     MD5 check sum: 8553c464762ac42b85b1eed164b4d029
     Pseudo is Norm-conserving, Zval =  4.0
     Generated using ONCVPSP code by D. R. Hamann
     Using radial grid of 1510 points,  4 beta functions with: 
                l(1) =   0
                l(2) =   0
                l(3) =   1
                l(4) =   1

     atomic species   valence    mass     pseudopotential
        Si             4.00    28.08500     Si( 1.00)

     No symmetry found



   Cartesian axes

     site n.     atom                  positions (alat units)
         1           Si  tau(   1) = (   0.0004974   0.0006443   0.0003542  )
         2           Si  tau(   2) = (  -0.0002699   0.2469013   0.2503493  )
         3           Si  tau(   3) = (   0.2487999   0.0005859   0.2502746  )
         4           Si  tau(   4) = (   0.2485621   0.2477181   0.0001559  )
         5           Si  tau(   5) = (   0.1239748   0.1232332   0.1251112  )
         6           Si  tau(   6) = (   0.4983617  -0.0001839  -0.0007027  )
         7           Si  tau(   7) = (   0.4990594   0.2476200   0.2507670  )
         8           Si  tau(   8) = (   0.6224526   0.1239266   0.1254687  )
         9           Si  tau(   9) = (   0.7471685  -0.0006699   0.2500258  )
        10           Si  tau(  10) = (   0.7482364   0.2480736  -0.0005505  )
        11           Si  tau(  11) = (   0.0006835   0.4954347   0.0004948  )
        12           Si  tau(  12) = (   0.2484793   0.4951708   0.2516613  )
        13           Si  tau(  13) = (   0.1247628   0.6184136   0.1253546  )
        14           Si  tau(  14) = (   0.3731290   0.3709759   0.1246775  )
        15           Si  tau(  15) = (   0.4991233   0.4941850   0.0004572  )
        16           Si  tau(  16) = (   0.6225949   0.6179487   0.1246243  )
        17           Si  tau(  17) = (   0.8718506   0.3714262   0.1250223  )
        18           Si  tau(  18) = (   0.7482680   0.4949126   0.2508754  )
        19           Si  tau(  19) = (   0.0000591   0.7425115   0.2506418  )
        20           Si  tau(  20) = (   0.2486296   0.7429006   0.0004369  )
        21           Si  tau(  21) = (   0.3737399   0.8664546   0.1248146  )
        22           Si  tau(  22) = (   0.4980785   0.7427508   0.2513639  )
        23           Si  tau(  23) = (   0.7466675   0.7427209  -0.0006878  )
        24           Si  tau(  24) = (   0.8712548   0.8669347   0.1259706  )
        25           Si  tau(  25) = (  -0.0005310  -0.0008339   0.5018552  )
        26           Si  tau(  26) = (   0.2487219   0.2482963   0.5018493  )
        27           Si  tau(  27) = (   0.1242692   0.1231217   0.6269527  )
        28           Si  tau(  28) = (   0.3737029   0.1234620   0.3762527  )
        29           Si  tau(  29) = (   0.4987261   0.0007800   0.5026158  )
        30           Si  tau(  30) = (   0.6231016   0.1244000   0.6265584  )
        31           Si  tau(  31) = (   0.8711449   0.1232893   0.3766886  )
        32           Si  tau(  32) = (   0.7481575   0.2478865   0.5022891  )
        33           Si  tau(  33) = (   0.1238857   0.3715837   0.3766134  )
        34           Si  tau(  34) = (  -0.0008201   0.4940105   0.5016705  )
        35           Si  tau(  35) = (   0.1238216   0.6193095   0.6265236  )
        36           Si  tau(  36) = (   0.6225639   0.3714505   0.3766676  )
        37           Si  tau(  37) = (   0.3737350   0.6194919   0.3766769  )
        38           Si  tau(  38) = (   0.3745045   0.3718635   0.6272704  )
        39           Si  tau(  39) = (   0.4981558   0.4948488   0.5013022  )
        40           Si  tau(  40) = (   0.6233676   0.6179179   0.6268179  )
        41           Si  tau(  41) = (   0.8716302   0.6182023   0.3769188  )
        42           Si  tau(  42) = (   0.8715867   0.3711692   0.6274572  )
        43           Si  tau(  43) = (   0.1246479   0.8657427   0.3759274  )
        44           Si  tau(  44) = (   0.2484654   0.7425873   0.5022967  )
        45           Si  tau(  45) = (   0.6220518   0.8658876   0.3763722  )
        46           Si  tau(  46) = (   0.3731100   0.8663092   0.6268805  )
        47           Si  tau(  47) = (   0.7481786   0.7428781   0.5014181  )
        48           Si  tau(  48) = (   0.8726152   0.8666238   0.6277569  )
        49           Si  tau(  49) = (   0.0003982   0.2483154   0.7522116  )
        50           Si  tau(  50) = (   0.2496426   0.0003759   0.7516996  )
        51           Si  tau(  51) = (   0.3729179   0.1240537   0.8771964  )
        52           Si  tau(  52) = (   0.4988911   0.2477957   0.7518003  )
        53           Si  tau(  53) = (   0.7465444   0.0008460   0.7532323  )
        54           Si  tau(  54) = (   0.8716618   0.1231947   0.8782348  )
        55           Si  tau(  55) = (   0.1243368   0.3706427   0.8773827  )
        56           Si  tau(  56) = (   0.2495612   0.4943995   0.7523078  )
        57           Si  tau(  57) = (   0.6219490   0.3708320   0.8773166  )
        58           Si  tau(  58) = (   0.3741116   0.6183363   0.8785593  )
        59           Si  tau(  59) = (   0.7482372   0.4953524   0.7532775  )
        60           Si  tau(  60) = (   0.8728358   0.6188756   0.8787576  )
        61           Si  tau(  61) = (  -0.0001435   0.7428777   0.7534411  )
        62           Si  tau(  62) = (   0.1250770   0.8667360   0.8789075  )
        63           Si  tau(  63) = (   0.4981663   0.7431558   0.7517846  )
        64           Si  tau(  64) = (   0.6227739   0.8669002   0.8772615  )

     number of k points=     1  Fermi-Dirac smearing, width (Ry)=  0.0100
                       cart. coord. in units 2pi/alat
        k(    1) = (   0.0000000   0.0000000   0.0000000), wk =   2.0000000

     Dense  grid:    98440 G-vectors     FFT dimensions: (  75,  72,  75)

     Estimated max dynamical RAM per process >     157.92 MB

     Estimated total dynamical RAM >     607.66 MB

     Initial potential from superposition of free atoms

     starting charge     255.9608, renormalised to     256.0000
     Starting wfcs are  256 randomized atomic wfcs

     total cpu time spent up to now is        4.4 secs

     Self-consistent Calculation

     iteration #  1     ecut=    30.00 Ry     beta= 0.50
     Davidson diagonalization with overlap
     ethr =  1.00E-02,  avg # of iterations =  3.0

     Threshold (ethr) on eigenvalues was too large:
     Diagonalizing with lowered threshold

     Davidson diagonalization with overlap
     ethr =  6.56E-04,  avg # of iterations =  2.0

     total cpu time spent up to now is        4.6 secs

     total energy              =    -503.97733144 Ry
     estimated scf accuracy    <       1.86100460 Ry

     iteration #  2     ecut=    30.00 Ry     beta= 0.50
     Davidson diagonalization with overlap
     ethr =  7.27E-04,  avg # of iterations =  2.0

     total cpu time spent up to now is        4.7 secs

     total energy              =    -503.95825849 Ry
     estimated scf accuracy    <       0.34880289 Ry

     iteration #  3     ecut=    30.00 Ry     beta= 0.50
     Davidson diagonalization with overlap
     ethr =  1.36E-04,  avg # of iterations =  4.0

     total cpu time spent up to now is        4.8 secs

     total energy              =    -503.98091305 Ry
     estimated scf accuracy    <       0.00714770 Ry

     iteration #  4     ecut=    30.00 Ry     beta= 0.50
     Davidson diagonalization with overlap
     c_bands:  1 eigenvalues not converged
     ethr =  2.79E-06,  avg # of iterations = 20.0

     total cpu time spent up to now is        5.0 secs

     total energy              =    -503.98263398 Ry
     estimated scf accuracy    <       0.00914213 Ry

     iteration #  5     ecut=    30.00 Ry     beta= 0.50
     Davidson diagonalization with overlap
     c_bands:  2 eigenvalues not converged
     ethr =  2.79E-06,  avg # of iterations = 20.0

     total cpu time spent up to now is        5.2 secs

     total energy              =    -503.98426901 Ry
     estimated scf accuracy    <       0.00046074 Ry

     iteration #  6     ecut=    30.00 Ry     beta= 0.50
     Davidson diagonalization with overlap
     ethr =  1.80E-07,  avg # of iterations =  3.0

     total cpu time spent up to now is        5.3 secs

     total energy              =    -503.98431732 Ry
     estimated scf accuracy    <       0.00008304 Ry

     iteration #  7     ecut=    30.00 Ry     beta= 0.50
     Davidson diagonalization with overlap
     ethr =  3.24E-08,  avg # of iterations =  5.0

     total cpu time spent up to now is        5.4 secs

     total energy              =    -503.98432506 Ry
     estimated scf accuracy    <       0.00001118 Ry

     iteration #  8     ecut=    30.00 Ry     beta= 0.50
     Davidson diagonalization with overlap
     ethr =  4.37E-09,  avg # of iterations =  4.0

     total cpu time spent up to now is        5.5 secs

     total energy              =    -503.98432823 Ry
     estimated scf accuracy    <       0.00000103 Ry

     iteration #  9     ecut=    30.00 Ry     beta= 0.50
     Davidson diagonalization with overlap
     ethr =  4.02E-10,  avg # of iterations =  5.0

     total cpu time spent up to now is        5.7 secs

     total energy              =    -503.98432837 Ry
     estimated scf accuracy    <       0.00000145 Ry

     iteration # 10     ecut=    30.00 Ry     beta= 0.50
     Davidson diagonalization with overlap
     ethr =  4.02E-10,  avg # of iterations =  3.0

     total cpu time spent up to now is        5.7 secs

     End of self-consistent calculation

          k = 0.0000 0.0000 0.0000 ( 12320 PWs)   bands (ev):

    -5.8010  -4.7753  -4.7624  -4.7538  -4.7388  -4.7181  -4.6916  -3.8706
    -3.8469  -3.8411  -3.8258  -3.8187  -3.8066  -3.7894  -3.7844  -3.7741
    -3.7694  -3.7536  -3.7366  -3.5688  -3.5393  -3.5157  -3.4376  -1.7914
    -1.7892  -1.7651  -1.7512  -1.7287  -1.6871  -1.6394  -1.6318  -1.6183
    -1.6117  -1.6052  -1.5991  -1.5661  -1.5541  -1.5447  -1.5444  -1.5372
    -1.5261  -0.9217  -0.8600  -0.8364  -0.8199   0.5221   0.5259   0.5286
     0.5368   0.5458   0.5547   0.5572   0.5577   0.5834   0.5874   0.6117
     0.6143   2.2100   2.2141   2.2178   2.2214   2.2233   2.2276   2.2316
     2.2357   2.2367   2.2390   2.2546   2.2581   2.3088   2.3187   2.3266
     2.3288   2.3403   2.3416   2.3496   2.3522   2.3584   2.3609   2.3705
     2.3967   2.4743   2.4827   2.4947   2.5008   2.5045   2.5209   3.1656
     3.1921   3.1976   3.2171   3.2510   3.2537   4.0839   4.1017   4.1211
     4.1317   4.1450   4.1574   4.1698   4.1787   4.1899   4.1956   4.2070
     4.2223   4.6320   4.6406   4.6531   4.6656   4.6716   4.6765   4.6984
     4.7139   4.7209   4.7316   4.7490   4.7580   4.7624   4.7709   4.7837
     4.8215   4.8402   4.8838   4.9243   4.9950   5.9281   6.0336   6.0631
     6.6732   6.6960   6.7053   6.7217   6.7917   6.7952   7.0902   7.1189
     7.1343   7.1433   7.1630   7.1716   7.4112   7.4181   7.4215   7.4409
     8.3465   8.3483   8.3594   8.3780   8.3866   8.3927   8.4281   8.4392
     8.4461   8.4483

     the Fermi energy is     6.3159 ev

!    total energy              =    -503.98432838 Ry
     estimated scf accuracy    <       0.00000016 Ry
     smearing contrib. (-TS)   =      -0.04415534 Ry
     internal energy E=F+TS    =    -503.94017304 Ry

     The total energy is F=E-TS. E is the sum of the following terms:
     one-electron contribution =     145.70462017 Ry
     hartree contribution      =      36.72085538 Ry
     xc contribution           =    -153.53872578 Ry
     ewald contribution        =    -532.82692281 Ry

     convergence has been achieved in  10 iterations

     Forces acting on atoms (cartesian axes, Ry/au):

     atom    1 type  1   force =    -0.01497017   -0.02436236   -0.00561792
     atom    2 type  1   force =    -0.01143558    0.00179050    0.00335446
     atom    3 type  1   force =     0.00220379   -0.02384975    0.00201919
     atom    4 type  1   force =    -0.00036839   -0.00309878   -0.00606194
     atom    5 type  1   force =     0.00184555    0.00249092    0.00143413
     atom    6 type  1   force =    -0.00173437   -0.01634876   -0.00283870
     atom    7 type  1   force =    -0.00573126    0.00005569    0.00049926
     atom    8 type  1   force =     0.00419246   -0.00264812   -0.00480387
     atom    9 type  1   force =    -0.00259164   -0.01607124    0.00583817
     atom   10 type  1   force =    -0.00537042   -0.00279647   -0.00191820
     atom   11 type  1   force =    -0.01101916   -0.00349621   -0.00609602
     atom   12 type  1   force =     0.00455903    0.00035031   -0.00261053
     atom   13 type  1   force =    -0.00143438    0.00310319    0.00242245
     atom   14 type  1   force =     0.00124593    0.00073893    0.00688507
     atom   15 type  1   force =    -0.00550105    0.00140445   -0.00690900
     atom   16 type  1   force =     0.00255801    0.00430952    0.00642668
     atom   17 type  1   force =     0.01368366   -0.00113362    0.00091126
     atom   18 type  1   force =    -0.00446593    0.00118526   -0.00027722
     atom   19 type  1   force =    -0.01304230    0.00005711    0.00062302
     atom   20 type  1   force =     0.00446346   -0.00130946   -0.00483863
     atom   21 type  1   force =    -0.00037000    0.02041566    0.00282196
     atom   22 type  1   force =     0.00031013   -0.00001192   -0.00615017
     atom   23 type  1   force =     0.00393695    0.00330521   -0.00054521
     atom   24 type  1   force =     0.01304940    0.01442401   -0.00476345
     atom   25 type  1   force =    -0.00715458   -0.01722688   -0.00261756
     atom   26 type  1   force =     0.00284024   -0.00327715    0.00033828
     atom   27 type  1   force =    -0.00146983    0.00132202   -0.00171407
     atom   28 type  1   force =    -0.00063857    0.00166029    0.00049601
     atom   29 type  1   force =    -0.00315435   -0.02430843   -0.00471309
     atom   30 type  1   force =     0.00166857   -0.00269643    0.00341158
     atom   31 type  1   force =     0.01272054   -0.00313462   -0.00307716
     atom   32 type  1   force =    -0.00295731   -0.00008344   -0.00389031
     atom   33 type  1   force =    -0.00155870   -0.00494827   -0.00308686
     atom   34 type  1   force =    -0.00905111    0.00581486    0.00234808
     atom   35 type  1   force =    -0.00115445   -0.00579091    0.00542095
     atom   36 type  1   force =     0.00458928   -0.00176946   -0.00248267
     atom   37 type  1   force =    -0.00298654   -0.00259005   -0.00010628
     atom   38 type  1   force =    -0.00375198   -0.00414452   -0.00259190
     atom   39 type  1   force =     0.00135715    0.00382193    0.00123971
     atom   40 type  1   force =    -0.00000327    0.00499221    0.00049991
     atom   41 type  1   force =     0.01409405    0.00281508   -0.00385104
     atom   42 type  1   force =     0.01244322    0.00047513    0.00197941
     atom   43 type  1   force =    -0.00186253    0.02300140    0.00001244
     atom   44 type  1   force =     0.00208910    0.00322209   -0.00372867
     atom   45 type  1   force =     0.00428877    0.02323510    0.00134217
     atom   46 type  1   force =     0.00217956    0.02141463   -0.00006215
     atom   47 type  1   force =    -0.00219715    0.00186935    0.00366782
     atom   48 type  1   force =     0.00420125    0.01900909    0.00185232
     atom   49 type  1   force =    -0.01464851   -0.00825871    0.00083593
     atom   50 type  1   force =    -0.00367391   -0.02259135    0.00373447
     atom   51 type  1   force =     0.00433430   -0.00122037    0.00546456
     atom   52 type  1   force =    -0.00439671   -0.00267676    0.00154414
     atom   53 type  1   force =     0.00493810   -0.02238862   -0.00474006
     atom   54 type  1   force =     0.01505059    0.00293153    0.00129281
     atom   55 type  1   force =     0.00036333    0.00432029    0.00652936
     atom   56 type  1   force =    -0.00266939    0.00661372    0.00093768
     atom   57 type  1   force =     0.00780119    0.00103818    0.00535179
     atom   58 type  1   force =    -0.00115422    0.00249075    0.00169703
     atom   59 type  1   force =    -0.00215839   -0.00033074    0.00030892
     atom   60 type  1   force =     0.00757545    0.00087810    0.00305275
     atom   61 type  1   force =    -0.00698175    0.00282795   -0.00064524
     atom   62 type  1   force =    -0.00235118    0.02083254   -0.00166600
     atom   63 type  1   force =     0.00106208   -0.00281273    0.00219702
     atom   64 type  1   force =    -0.00163603    0.01715907    0.00361310

     Total force =     0.103947     Total SCF correction =     0.000783


     Computing stress (Cartesian axis) and pressure

          total   stress  (Ry/bohr**3)                   (kbar)     P=        5.90
   0.00004344   0.00000571   0.00002814            6.39        0.84        4.14
   0.00000571   0.00005632   0.00001896            0.84        8.29        2.79
   0.00002814   0.00001896   0.00002055            4.14        2.79        3.02

 
     init_run     :      0.99s CPU      4.31s WALL (       1 calls)
     electrons    :      1.27s CPU      1.38s WALL (       1 calls)
     forces       :      0.04s CPU      0.04s WALL (       1 calls)
     stress       :      0.15s CPU      0.16s WALL (       1 calls)

     Called by init_run:
     wfcinit      :      0.43s CPU      3.59s WALL (       1 calls)
                                        3.59s GPU  (       1 calls)
     potinit      :      0.15s CPU      0.24s WALL (       1 calls)
     hinit0       :      0.39s CPU      0.41s WALL (       1 calls)

     Called by electrons:
     c_bands      :      0.91s CPU      0.98s WALL (      11 calls)
     sum_band     :      0.19s CPU      0.22s WALL (      11 calls)
     v_of_rho     :      0.09s CPU      0.18s WALL (      11 calls)
     mix_rho      :      0.06s CPU      0.07s WALL (      11 calls)

     Called by c_bands:
     init_us_2    :      0.03s CPU      0.03s WALL (      23 calls)
     init_us_2:gp :      0.03s CPU      0.03s WALL (      23 calls)
     regterg      :      0.83s CPU      0.89s WALL (      11 calls)

     Called by *egterg:
     rdiaghg      :      0.38s CPU      0.99s WALL (      81 calls)
                                        0.97s GPU  (      81 calls)
     h_psi        :      0.74s CPU      3.34s WALL (      83 calls)
                                        3.33s GPU  (      83 calls)
     g_psi        :      0.00s CPU      0.00s WALL (      71 calls)
                                        0.00s GPU  (      71 calls)

     Called by h_psi:
     h_psi:calbec :      0.38s CPU      2.91s WALL (      83 calls)
                                        2.91s GPU  (      83 calls)
     vloc_psi     :      0.32s CPU      0.38s WALL (      83 calls)
                                        0.37s GPU  (      83 calls)
     add_vuspsi   :      0.03s CPU      0.04s WALL (      83 calls)
                                        0.04s GPU  (      83 calls)

     General routines
     calbec       :      0.38s CPU      2.91s WALL (      88 calls)
     fft          :      0.42s CPU      0.54s WALL (      95 calls)
                                        0.12s GPU  (      61 calls)
     ffts         :      0.02s CPU      0.02s WALL (      11 calls)
     fftw         :      0.36s CPU      0.47s WALL (    1241 calls)
                                        0.43s GPU  (    1241 calls)
 
     Parallel routines
 
     PWSCF        :      2.48s CPU      5.96s WALL

 
   This run was terminated on:  10:56:24  10May2023            

=------------------------------------------------------------------------------=
   JOB DONE.
=------------------------------------------------------------------------------=
