An instance of this daemon is already running
An instance of this daemon is already running

     Program PWSCF v.7.1 starts on 10May2023 at 11: 6:55 

     This program is part of the open-source Quantum ESPRESSO suite
     for quantum simulation of materials; please cite
         "P. Giannozzi et al., J. Phys.:Condens. Matter 21 395502 (2009);
         "P. Giannozzi et al., J. Phys.:Condens. Matter 29 465901 (2017);
         "P. Giannozzi et al., J. Chem. Phys. 152 154105 (2020);
          URL http://www.quantum-espresso.org", 
     in publications or presentations arising from this work. More details at
     http://www.quantum-espresso.org/quote

     Parallel version (MPI & OpenMP), running on       4 processor cores
     Number of MPI processes:                 4
     Threads/MPI process:                     1

     MPI processes distributed on     1 nodes
     152790 MiB available memory on the printing compute node when the environment starts
 
     Reading input from pw-si-79.in
Warning: card &CELL ignored
Warning: card / ignored

     Current dimensions of program PWSCF are:
     Max number of different atomic species (ntypx) = 10
     Max number of k-points (npk) =  40000
     Max angular momentum in pseudopotentials (lmaxx) =  4

     IMPORTANT: XC functional enforced from input :
     Exchange-correlation= PBE
                           (   1   4   3   4   0   0   0)
     Any further DFT definition will be discarded
     Please, verify this is what you really want


     gamma-point specific algorithms are used
 
     K-points division:     npool     =       2
     R & G space division:  proc/nbgrp/npool/nimage =       2
     Subspace diagonalization in iterative solution of the eigenvalue problem:
     a serial algorithm will be used

     Message from routine divide_et_impera:
     suboptimal parallelization: some nodes have no k-points
 
     Parallelization info
     --------------------
     sticks:   dense  smooth     PW     G-vecs:    dense   smooth      PW
     Min        2057    2057    544               100113   100113   13601
     Max        2060    2060    545               100116   100116   13604
     Sum        4117    4117   1089               200229   200229   27205
 
     Using Slab Decomposition
 


     bravais-lattice index     =            0
     lattice parameter (alat)  =      20.7448  a.u.
     unit-cell volume          =    9020.6085 (a.u.)^3
     number of atoms/cell      =           64
     number of atomic types    =            1
     number of electrons       =       256.00
     number of Kohn-Sham states=          154
     kinetic-energy cutoff     =      30.0000  Ry
     charge density cutoff     =     120.0000  Ry
     scf convergence threshold =      1.0E-06
     mixing beta               =       0.5000
     number of iterations used =            8  plain     mixing
     Exchange-correlation= PBE
                           (   1   4   3   4   0   0   0)

     GPU acceleration is ACTIVE.
     GPU-aware MPI enabled

     Message from routine print_cuda_info:
     High GPU oversubscription detected. Are you sure this is what you want?

     celldm(1)=  20.744775  celldm(2)=   0.000000  celldm(3)=   0.000000
     celldm(4)=   0.000000  celldm(5)=   0.000000  celldm(6)=   0.000000

     crystal axes: (cart. coord. in units of alat)
               a(1) = (   1.000000   0.000000   0.000000 )  
               a(2) = (   0.000000   1.001471   0.000000 )  
               a(3) = (   0.000000   0.000000   1.008954 )  

     reciprocal axes: (cart. coord. in units 2 pi/alat)
               b(1) = (  1.000000  0.000000  0.000000 )  
               b(2) = (  0.000000  0.998531  0.000000 )  
               b(3) = (  0.000000  0.000000  0.991126 )  


     PseudoPot. # 1 for Si read from file:
     /home/ppiaggi/pseudos/Si_ONCV_PBE_sr.upf
     MD5 check sum: 8553c464762ac42b85b1eed164b4d029
     Pseudo is Norm-conserving, Zval =  4.0
     Generated using ONCVPSP code by D. R. Hamann
     Using radial grid of 1510 points,  4 beta functions with: 
                l(1) =   0
                l(2) =   0
                l(3) =   1
                l(4) =   1

     atomic species   valence    mass     pseudopotential
        Si             4.00    28.08500     Si( 1.00)

     No symmetry found



   Cartesian axes

     site n.     atom                  positions (alat units)
         1           Si  tau(   1) = (   0.0000834   0.0008301   0.0003156  )
         2           Si  tau(   2) = (   0.0007696   0.2517698   0.2508097  )
         3           Si  tau(   3) = (   0.2487520   0.0003059   0.2516044  )
         4           Si  tau(   4) = (   0.2476116   0.2506647  -0.0008588  )
         5           Si  tau(   5) = (   0.1235076   0.1250248   0.1257051  )
         6           Si  tau(   6) = (   0.4964113   0.0006156   0.0003271  )
         7           Si  tau(   7) = (   0.4970664   0.2508966   0.2512850  )
         8           Si  tau(   8) = (   0.6205434   0.1253812   0.1255046  )
         9           Si  tau(   9) = (   0.7452082   0.0008401   0.2516056  )
        10           Si  tau(  10) = (   0.7445590   0.2512326   0.0008310  )
        11           Si  tau(  11) = (   0.0001279   0.5012381   0.0007016  )
        12           Si  tau(  12) = (   0.2489108   0.5028423   0.2504252  )
        13           Si  tau(  13) = (   0.1243361   0.6280461   0.1245569  )
        14           Si  tau(  14) = (   0.3719642   0.3762106   0.1257366  )
        15           Si  tau(  15) = (   0.4962499   0.5019741  -0.0007674  )
        16           Si  tau(  16) = (   0.6202636   0.6274683   0.1251258  )
        17           Si  tau(  17) = (   0.8686648   0.3765950   0.1255437  )
        18           Si  tau(  18) = (   0.7450818   0.5028160   0.2499931  )
        19           Si  tau(  19) = (  -0.0004780   0.7539454   0.2502633  )
        20           Si  tau(  20) = (   0.2479734   0.7537187   0.0005101  )
        21           Si  tau(  21) = (   0.3723162   0.8790432   0.1245196  )
        22           Si  tau(  22) = (   0.4963594   0.7526465   0.2502733  )
        23           Si  tau(  23) = (   0.7456316   0.7532627  -0.0006033  )
        24           Si  tau(  24) = (   0.8683411   0.8785159   0.1249803  )
        25           Si  tau(  25) = (   0.0005633  -0.0004662   0.5020872  )
        26           Si  tau(  26) = (   0.2491144   0.2505770   0.5011749  )
        27           Si  tau(  27) = (   0.1242846   0.1253552   0.6269999  )
        28           Si  tau(  28) = (   0.3726032   0.1261472   0.3758277  )
        29           Si  tau(  29) = (   0.4958536   0.0004869   0.5010470  )
        30           Si  tau(  30) = (   0.6199722   0.1259394   0.6259850  )
        31           Si  tau(  31) = (   0.8694900   0.1262433   0.3766320  )
        32           Si  tau(  32) = (   0.7445229   0.2519710   0.5014306  )
        33           Si  tau(  33) = (   0.1242598   0.3763639   0.3752431  )
        34           Si  tau(  34) = (  -0.0002833   0.5016959   0.5019689  )
        35           Si  tau(  35) = (   0.1245795   0.6276112   0.6275147  )
        36           Si  tau(  36) = (   0.6203217   0.3765659   0.3769950  )
        37           Si  tau(  37) = (   0.3732501   0.6281152   0.3754681  )
        38           Si  tau(  38) = (   0.3720640   0.3772135   0.6270079  )
        39           Si  tau(  39) = (   0.4967784   0.5023031   0.5005999  )
        40           Si  tau(  40) = (   0.6209494   0.6280436   0.6274347  )
        41           Si  tau(  41) = (   0.8689713   0.6276833   0.3756496  )
        42           Si  tau(  42) = (   0.8686429   0.3773253   0.6265672  )
        43           Si  tau(  43) = (   0.1238200   0.8793898   0.3764056  )
        44           Si  tau(  44) = (   0.2491444   0.7539615   0.5015527  )
        45           Si  tau(  45) = (   0.6202116   0.8782455   0.3769529  )
        46           Si  tau(  46) = (   0.3728771   0.8789728   0.6271444  )
        47           Si  tau(  47) = (   0.7453107   0.7538996   0.5019848  )
        48           Si  tau(  48) = (   0.8692475   0.8786414   0.6265725  )
        49           Si  tau(  49) = (  -0.0007605   0.2508205   0.7516272  )
        50           Si  tau(  50) = (   0.2482279   0.0001075   0.7514585  )
        51           Si  tau(  51) = (   0.3720448   0.1259123   0.8771717  )
        52           Si  tau(  52) = (   0.4958296   0.2505832   0.7527236  )
        53           Si  tau(  53) = (   0.7456172  -0.0006905   0.7524089  )
        54           Si  tau(  54) = (   0.8684289   0.1260703   0.8777903  )
        55           Si  tau(  55) = (   0.1239670   0.3761079   0.8767052  )
        56           Si  tau(  56) = (   0.2480607   0.5022359   0.7513473  )
        57           Si  tau(  57) = (   0.6214071   0.3764639   0.8782634  )
        58           Si  tau(  58) = (   0.3730892   0.6268384   0.8773192  )
        59           Si  tau(  59) = (   0.7442523   0.5027007   0.7529053  )
        60           Si  tau(  60) = (   0.8685726   0.6283739   0.8783549  )
        61           Si  tau(  61) = (  -0.0000726   0.7525164   0.7514237  )
        62           Si  tau(  62) = (   0.1236261   0.8782522   0.8777688  )
        63           Si  tau(  63) = (   0.4970261   0.7539673   0.7525135  )
        64           Si  tau(  64) = (   0.6205311   0.8787083   0.8783085  )

     number of k points=     1  Fermi-Dirac smearing, width (Ry)=  0.0100
                       cart. coord. in units 2pi/alat
        k(    1) = (   0.0000000   0.0000000   0.0000000), wk =   2.0000000

     Dense  grid:   100115 G-vectors     FFT dimensions: (  75,  75,  75)

     Estimated max dynamical RAM per process >     160.91 MB

     Estimated total dynamical RAM >     619.21 MB

     Initial potential from superposition of free atoms

     starting charge     255.9608, renormalised to     256.0000
     Starting wfcs are  256 randomized atomic wfcs

     total cpu time spent up to now is        4.0 secs

     Self-consistent Calculation

     iteration #  1     ecut=    30.00 Ry     beta= 0.50
     Davidson diagonalization with overlap
     ethr =  1.00E-02,  avg # of iterations =  3.0

     Threshold (ethr) on eigenvalues was too large:
     Diagonalizing with lowered threshold

     Davidson diagonalization with overlap
     ethr =  6.36E-04,  avg # of iterations =  2.0

     total cpu time spent up to now is        4.2 secs

     total energy              =    -503.97077423 Ry
     estimated scf accuracy    <       1.81028013 Ry

     iteration #  2     ecut=    30.00 Ry     beta= 0.50
     Davidson diagonalization with overlap
     ethr =  7.07E-04,  avg # of iterations =  2.0

     total cpu time spent up to now is        4.3 secs

     total energy              =    -503.95202651 Ry
     estimated scf accuracy    <       0.34358024 Ry

     iteration #  3     ecut=    30.00 Ry     beta= 0.50
     Davidson diagonalization with overlap
     ethr =  1.34E-04,  avg # of iterations =  4.0

     total cpu time spent up to now is        4.4 secs

     total energy              =    -503.97330443 Ry
     estimated scf accuracy    <       0.00749144 Ry

     iteration #  4     ecut=    30.00 Ry     beta= 0.50
     Davidson diagonalization with overlap
     c_bands:  3 eigenvalues not converged
     ethr =  2.93E-06,  avg # of iterations = 20.0

     total cpu time spent up to now is        4.6 secs

     total energy              =    -503.97530608 Ry
     estimated scf accuracy    <       0.00892228 Ry

     iteration #  5     ecut=    30.00 Ry     beta= 0.50
     Davidson diagonalization with overlap
     ethr =  2.93E-06,  avg # of iterations = 16.0

     total cpu time spent up to now is        4.8 secs

     total energy              =    -503.97696128 Ry
     estimated scf accuracy    <       0.00059147 Ry

     iteration #  6     ecut=    30.00 Ry     beta= 0.50
     Davidson diagonalization with overlap
     ethr =  2.31E-07,  avg # of iterations =  3.0

     total cpu time spent up to now is        4.9 secs

     total energy              =    -503.97700441 Ry
     estimated scf accuracy    <       0.00012736 Ry

     iteration #  7     ecut=    30.00 Ry     beta= 0.50
     Davidson diagonalization with overlap
     ethr =  4.98E-08,  avg # of iterations =  5.0

     total cpu time spent up to now is        5.0 secs

     total energy              =    -503.97701725 Ry
     estimated scf accuracy    <       0.00001176 Ry

     iteration #  8     ecut=    30.00 Ry     beta= 0.50
     Davidson diagonalization with overlap
     ethr =  4.59E-09,  avg # of iterations =  4.0

     total cpu time spent up to now is        5.2 secs

     End of self-consistent calculation

          k = 0.0000 0.0000 0.0000 ( 12529 PWs)   bands (ev):

    -5.8633  -4.8637  -4.8494  -4.8292  -4.8020  -4.7866  -4.7669  -3.9673
    -3.9577  -3.9422  -3.9208  -3.9118  -3.8968  -3.8894  -3.8808  -3.8650
    -3.8592  -3.8172  -3.8131  -3.6755  -3.6397  -3.6089  -3.5123  -1.9302
    -1.9064  -1.8924  -1.8725  -1.8493  -1.8160  -1.7657  -1.7603  -1.7486
    -1.7421  -1.7402  -1.7071  -1.6916  -1.6819  -1.6771  -1.6649  -1.6461
    -1.6222  -1.0200  -0.9625  -0.9375  -0.9034   0.3678   0.3783   0.3854
     0.3963   0.4094   0.4152   0.4207   0.4289   0.4337   0.4372   0.4592
     0.4777   2.0969   2.1009   2.1015   2.1073   2.1097   2.1158   2.1190
     2.1248   2.1329   2.1351   2.1429   2.1515   2.1860   2.2031   2.2056
     2.2107   2.2209   2.2263   2.2330   2.2412   2.2438   2.2546   2.2609
     2.2989   2.3133   2.3232   2.3424   2.3546   2.3833   2.3868   3.0347
     3.0582   3.0714   3.0848   3.1161   3.1378   3.9432   3.9574   3.9748
     3.9952   4.0038   4.0075   4.0101   4.0268   4.0308   4.0623   4.0858
     4.1245   4.4688   4.4744   4.4839   4.5118   4.5201   4.5332   4.5414
     4.5508   4.5635   4.5756   4.5858   4.5970   4.6048   4.6143   4.6318
     4.6674   4.6747   4.7095   4.8101   4.8977   5.7662   5.8333   5.9159
     6.5081   6.5374   6.5716   6.6022   6.6407   6.6665   6.9313   6.9526
     6.9695   6.9842   7.0063   7.0473   7.1746   7.1839   7.1937   7.2105
     8.1581   8.1602   8.1652   8.1796   8.2056   8.2088   8.2123   8.2433
     8.2475   8.2636

     the Fermi energy is     6.1588 ev

!    total energy              =    -503.97702013 Ry
     estimated scf accuracy    <       0.00000099 Ry
     smearing contrib. (-TS)   =      -0.04185310 Ry
     internal energy E=F+TS    =    -503.93516702 Ry

     The total energy is F=E-TS. E is the sum of the following terms:
     one-electron contribution =     141.54140851 Ry
     hartree contribution      =      37.26596152 Ry
     xc contribution           =    -152.98566773 Ry
     ewald contribution        =    -529.75686932 Ry

     convergence has been achieved in   8 iterations

     Forces acting on atoms (cartesian axes, Ry/au):

     atom    1 type  1   force =    -0.02193422    0.00136695   -0.01810962
     atom    2 type  1   force =    -0.02424501   -0.00334853   -0.00157051
     atom    3 type  1   force =    -0.00167328    0.00733448   -0.00451459
     atom    4 type  1   force =     0.00058136    0.00058313   -0.01234854
     atom    5 type  1   force =     0.00264151    0.00394389   -0.00199838
     atom    6 type  1   force =     0.00120921    0.00744527   -0.02056904
     atom    7 type  1   force =    -0.00073242    0.00234207   -0.00287819
     atom    8 type  1   force =     0.00122499    0.00180556    0.00041230
     atom    9 type  1   force =     0.00015278    0.00313938   -0.00086381
     atom   10 type  1   force =     0.00313709   -0.00125966   -0.01875303
     atom   11 type  1   force =    -0.01878051    0.00117847   -0.02062486
     atom   12 type  1   force =    -0.00313818   -0.00120441    0.00066114
     atom   13 type  1   force =    -0.00434079   -0.00077088    0.00314125
     atom   14 type  1   force =     0.00111597    0.00001828   -0.00588724
     atom   15 type  1   force =     0.00194248   -0.00325478   -0.01198810
     atom   16 type  1   force =     0.00213120    0.00152841   -0.00602707
     atom   17 type  1   force =     0.02161362   -0.00008355   -0.00072772
     atom   18 type  1   force =    -0.00172704   -0.00437848    0.00478170
     atom   19 type  1   force =    -0.01644061   -0.00363128    0.00062992
     atom   20 type  1   force =     0.00298657   -0.00440235   -0.02359631
     atom   21 type  1   force =    -0.00097895   -0.00819546    0.00421794
     atom   22 type  1   force =     0.00316528    0.00448936   -0.00116617
     atom   23 type  1   force =    -0.00466541   -0.00157770   -0.01223904
     atom   24 type  1   force =     0.02145986   -0.00212308   -0.00064350
     atom   25 type  1   force =    -0.02283230    0.01205053    0.00044332
     atom   26 type  1   force =    -0.00468946    0.00394373    0.00223182
     atom   27 type  1   force =    -0.00263646    0.00297195   -0.00224033
     atom   28 type  1   force =    -0.00012870   -0.00120472   -0.00036404
     atom   29 type  1   force =     0.00264602    0.00657163    0.00174894
     atom   30 type  1   force =     0.00389410   -0.00188197    0.00514897
     atom   31 type  1   force =     0.02047901    0.00107148   -0.00020346
     atom   32 type  1   force =     0.00393323   -0.00296008    0.00233480
     atom   33 type  1   force =     0.00106671    0.00416690    0.00495501
     atom   34 type  1   force =    -0.01581362    0.00214995   -0.00311436
     atom   35 type  1   force =    -0.00323274    0.00108761   -0.00791169
     atom   36 type  1   force =     0.00423758    0.00345155   -0.00852437
     atom   37 type  1   force =    -0.00489881   -0.00067603    0.00195813
     atom   38 type  1   force =     0.00238611   -0.00241728   -0.00307442
     atom   39 type  1   force =    -0.00016544    0.00186464    0.00773565
     atom   40 type  1   force =    -0.00161913    0.00024727   -0.00359947
     atom   41 type  1   force =     0.02025639    0.00208137    0.00188367
     atom   42 type  1   force =     0.01760685   -0.00055852    0.00326177
     atom   43 type  1   force =     0.00015305   -0.01227735   -0.00252026
     atom   44 type  1   force =    -0.00292470   -0.00451947    0.00035901
     atom   45 type  1   force =     0.00140442   -0.00522669   -0.00541716
     atom   46 type  1   force =    -0.00117878   -0.00724897   -0.00111660
     atom   47 type  1   force =     0.00082933   -0.00602589   -0.00133604
     atom   48 type  1   force =     0.02157968   -0.00781304    0.00122997
     atom   49 type  1   force =    -0.01854035    0.00122168    0.00259267
     atom   50 type  1   force =    -0.00097932    0.00558263    0.00808128
     atom   51 type  1   force =    -0.00187513   -0.00281838    0.01893164
     atom   52 type  1   force =     0.00553165    0.00546175   -0.00021264
     atom   53 type  1   force =    -0.00398808    0.01279173    0.00044510
     atom   54 type  1   force =     0.01987516    0.00102486    0.01628725
     atom   55 type  1   force =    -0.00366563    0.00206862    0.01775064
     atom   56 type  1   force =     0.00121328   -0.00120839    0.00806976
     atom   57 type  1   force =    -0.00493480   -0.00134413    0.01403205
     atom   58 type  1   force =    -0.00552940    0.00587382    0.01648429
     atom   59 type  1   force =     0.00591189   -0.00160244    0.00183194
     atom   60 type  1   force =     0.02286721   -0.00398620    0.01232446
     atom   61 type  1   force =    -0.02016612    0.00145896    0.00718741
     atom   62 type  1   force =    -0.00176510   -0.00432145    0.01446713
     atom   63 type  1   force =    -0.00084120   -0.00449010    0.00260862
     atom   64 type  1   force =     0.00182807   -0.00550664    0.01591100

     Total force =     0.116861     Total SCF correction =     0.001801


     Computing stress (Cartesian axis) and pressure

          total   stress  (Ry/bohr**3)                   (kbar)     P=       -8.65
  -0.00004142   0.00001649  -0.00000682           -6.09        2.43       -1.00
   0.00001649  -0.00004635   0.00002423            2.43       -6.82        3.56
  -0.00000682   0.00002423  -0.00008856           -1.00        3.56      -13.03

 
     init_run     :      0.77s CPU      3.93s WALL (       1 calls)
     electrons    :      1.09s CPU      1.18s WALL (       1 calls)
     forces       :      0.04s CPU      0.04s WALL (       1 calls)
     stress       :      0.16s CPU      0.16s WALL (       1 calls)

     Called by init_run:
     wfcinit      :      0.42s CPU      3.45s WALL (       1 calls)
                                        3.45s GPU  (       1 calls)
     potinit      :      0.15s CPU      0.22s WALL (       1 calls)
     hinit0       :      0.18s CPU      0.20s WALL (       1 calls)

     Called by electrons:
     c_bands      :      0.80s CPU      0.86s WALL (       9 calls)
     sum_band     :      0.16s CPU      0.18s WALL (       9 calls)
     v_of_rho     :      0.08s CPU      0.15s WALL (       9 calls)
     mix_rho      :      0.05s CPU      0.06s WALL (       9 calls)

     Called by c_bands:
     init_us_2    :      0.02s CPU      0.03s WALL (      19 calls)
     init_us_2:gp :      0.02s CPU      0.02s WALL (      19 calls)
     regterg      :      0.73s CPU      0.78s WALL (       9 calls)

     Called by *egterg:
     rdiaghg      :      0.31s CPU      0.94s WALL (      67 calls)
                                        0.93s GPU  (      67 calls)
     h_psi        :      0.72s CPU      3.16s WALL (      69 calls)
                                        3.15s GPU  (      69 calls)
     g_psi        :      0.00s CPU      0.00s WALL (      59 calls)
                                        0.00s GPU  (      59 calls)

     Called by h_psi:
     h_psi:calbec :      0.38s CPU      2.75s WALL (      69 calls)
                                        2.75s GPU  (      69 calls)
     vloc_psi     :      0.30s CPU      0.37s WALL (      69 calls)
                                        0.36s GPU  (      69 calls)
     add_vuspsi   :      0.02s CPU      0.04s WALL (      69 calls)
                                        0.04s GPU  (      69 calls)

     General routines
     calbec       :      0.38s CPU      2.76s WALL (      74 calls)
     fft          :      0.19s CPU      0.28s WALL (      79 calls)
                                        0.09s GPU  (      51 calls)
     ffts         :      0.02s CPU      0.02s WALL (       9 calls)
     fftw         :      0.33s CPU      0.45s WALL (    1021 calls)
                                        0.41s GPU  (    1021 calls)
 
     Parallel routines
 
     PWSCF        :      2.08s CPU      5.39s WALL

 
   This run was terminated on:  11: 7: 0  10May2023            

=------------------------------------------------------------------------------=
   JOB DONE.
=------------------------------------------------------------------------------=
