An instance of this daemon is already running

     Program PWSCF v.7.1 starts on 10May2023 at 11: 3: 6 

     This program is part of the open-source Quantum ESPRESSO suite
     for quantum simulation of materials; please cite
         "P. Giannozzi et al., J. Phys.:Condens. Matter 21 395502 (2009);
         "P. Giannozzi et al., J. Phys.:Condens. Matter 29 465901 (2017);
         "P. Giannozzi et al., J. Chem. Phys. 152 154105 (2020);
          URL http://www.quantum-espresso.org", 
     in publications or presentations arising from this work. More details at
     http://www.quantum-espresso.org/quote

     Parallel version (MPI & OpenMP), running on       4 processor cores
     Number of MPI processes:                 4
     Threads/MPI process:                     1

     MPI processes distributed on     1 nodes
     149896 MiB available memory on the printing compute node when the environment starts
 
     Reading input from pw-si-51.in
Warning: card &CELL ignored
Warning: card / ignored

     Current dimensions of program PWSCF are:
     Max number of different atomic species (ntypx) = 10
     Max number of k-points (npk) =  40000
     Max angular momentum in pseudopotentials (lmaxx) =  4

     IMPORTANT: XC functional enforced from input :
     Exchange-correlation= PBE
                           (   1   4   3   4   0   0   0)
     Any further DFT definition will be discarded
     Please, verify this is what you really want


     gamma-point specific algorithms are used
 
     K-points division:     npool     =       2
     R & G space division:  proc/nbgrp/npool/nimage =       2
     Subspace diagonalization in iterative solution of the eigenvalue problem:
     a serial algorithm will be used

     Message from routine divide_et_impera:
     suboptimal parallelization: some nodes have no k-points
 
     Parallelization info
     --------------------
     sticks:   dense  smooth     PW     G-vecs:    dense   smooth      PW
     Min        2073    2073    548                99957    99957   13584
     Max        2076    2076    549                99960    99960   13585
     Sum        4149    4149   1097               199917   199917   27169
 
     Using Slab Decomposition
 


     bravais-lattice index     =            0
     lattice parameter (alat)  =      20.9488  a.u.
     unit-cell volume          =    9006.0107 (a.u.)^3
     number of atoms/cell      =           64
     number of atomic types    =            1
     number of electrons       =       256.00
     number of Kohn-Sham states=          154
     kinetic-energy cutoff     =      30.0000  Ry
     charge density cutoff     =     120.0000  Ry
     scf convergence threshold =      1.0E-06
     mixing beta               =       0.5000
     number of iterations used =            8  plain     mixing
     Exchange-correlation= PBE
                           (   1   4   3   4   0   0   0)

     GPU acceleration is ACTIVE.
     GPU-aware MPI enabled

     Message from routine print_cuda_info:
     High GPU oversubscription detected. Are you sure this is what you want?

     celldm(1)=  20.948834  celldm(2)=   0.000000  celldm(3)=   0.000000
     celldm(4)=   0.000000  celldm(5)=   0.000000  celldm(6)=   0.000000

     crystal axes: (cart. coord. in units of alat)
               a(1) = (   1.000000   0.000000   0.000000 )  
               a(2) = (   0.000000   0.987858   0.000000 )  
               a(3) = (   0.000000   0.000000   0.991650 )  

     reciprocal axes: (cart. coord. in units 2 pi/alat)
               b(1) = (  1.000000  0.000000  0.000000 )  
               b(2) = (  0.000000  1.012292  0.000000 )  
               b(3) = (  0.000000  0.000000  1.008420 )  


     PseudoPot. # 1 for Si read from file:
     /home/ppiaggi/pseudos/Si_ONCV_PBE_sr.upf
     MD5 check sum: 8553c464762ac42b85b1eed164b4d029
     Pseudo is Norm-conserving, Zval =  4.0
     Generated using ONCVPSP code by D. R. Hamann
     Using radial grid of 1510 points,  4 beta functions with: 
                l(1) =   0
                l(2) =   0
                l(3) =   1
                l(4) =   1

     atomic species   valence    mass     pseudopotential
        Si             4.00    28.08500     Si( 1.00)

     No symmetry found



   Cartesian axes

     site n.     atom                  positions (alat units)
         1           Si  tau(   1) = (   0.0005298   0.0004780   0.0005997  )
         2           Si  tau(   2) = (  -0.0004977   0.2493601   0.2475474  )
         3           Si  tau(   3) = (   0.2510846   0.0001846   0.2485766  )
         4           Si  tau(   4) = (   0.2523983   0.2477527   0.0005814  )
         5           Si  tau(   5) = (   0.1262571   0.1238207   0.1230855  )
         6           Si  tau(   6) = (   0.5023100  -0.0003484   0.0008524  )
         7           Si  tau(   7) = (   0.5024756   0.2488707   0.2481221  )
         8           Si  tau(   8) = (   0.6290245   0.1245339   0.1241870  )
         9           Si  tau(   9) = (   0.7542934   0.0007128   0.2476259  )
        10           Si  tau(  10) = (   0.7552046   0.2489183   0.0004763  )
        11           Si  tau(  11) = (  -0.0003433   0.4968691   0.0007782  )
        12           Si  tau(  12) = (   0.2520181   0.4979882   0.2474964  )
        13           Si  tau(  13) = (   0.1258190   0.6206949   0.1245379  )
        14           Si  tau(  14) = (   0.3767162   0.3721284   0.1247447  )
        15           Si  tau(  15) = (   0.5026348   0.4962409   0.0008775  )
        16           Si  tau(  16) = (   0.6286237   0.6210986   0.1243161  )
        17           Si  tau(  17) = (   0.8799004   0.3732256   0.1242734  )
        18           Si  tau(  18) = (   0.7541164   0.4978411   0.2477760  )
        19           Si  tau(  19) = (   0.0005368   0.7463717   0.2484145  )
        20           Si  tau(  20) = (   0.2510910   0.7450734   0.0001058  )
        21           Si  tau(  21) = (   0.3775966   0.8695070   0.1232818  )
        22           Si  tau(  22) = (   0.5022925   0.7452771   0.2476184  )
        23           Si  tau(  23) = (   0.7546893   0.7454419  -0.0005722  )
        24           Si  tau(  24) = (   0.8812077   0.8694629   0.1237720  )
        25           Si  tau(  25) = (  -0.0007976  -0.0003595   0.4961570  )
        26           Si  tau(  26) = (   0.2522836   0.2487033   0.4960925  )
        27           Si  tau(  27) = (   0.1257154   0.1245287   0.6198419  )
        28           Si  tau(  28) = (   0.3769245   0.1248065   0.3712980  )
        29           Si  tau(  29) = (   0.5024191  -0.0000025   0.4955280  )
        30           Si  tau(  30) = (   0.6286951   0.1239159   0.6199511  )
        31           Si  tau(  31) = (   0.8805546   0.1234002   0.3721115  )
        32           Si  tau(  32) = (   0.7554236   0.2489015   0.4959095  )
        33           Si  tau(  33) = (   0.1252961   0.3720659   0.3720598  )
        34           Si  tau(  34) = (  -0.0005828   0.4977609   0.4957451  )
        35           Si  tau(  35) = (   0.1265729   0.6220435   0.6197670  )
        36           Si  tau(  36) = (   0.6282695   0.3732273   0.3712584  )
        37           Si  tau(  37) = (   0.3775930   0.6211512   0.3726742  )
        38           Si  tau(  38) = (   0.3767416   0.3737456   0.6199295  )
        39           Si  tau(  39) = (   0.5027255   0.4967778   0.4961709  )
        40           Si  tau(  40) = (   0.6282697   0.6207368   0.6205149  )
        41           Si  tau(  41) = (   0.8812628   0.6205222   0.3710973  )
        42           Si  tau(  42) = (   0.8806265   0.3732201   0.6201485  )
        43           Si  tau(  43) = (   0.1264871   0.8692107   0.3716049  )
        44           Si  tau(  44) = (   0.2511629   0.7462557   0.4953070  )
        45           Si  tau(  45) = (   0.6284678   0.8699319   0.3709563  )
        46           Si  tau(  46) = (   0.3775295   0.8707513   0.6198937  )
        47           Si  tau(  47) = (   0.7549897   0.7452498   0.4954090  )
        48           Si  tau(  48) = (   0.8808996   0.8697633   0.6193007  )
        49           Si  tau(  49) = (   0.0001791   0.2481288   0.7438943  )
        50           Si  tau(  50) = (   0.2515200   0.0004225   0.7441589  )
        51           Si  tau(  51) = (   0.3769079   0.1244630   0.8681603  )
        52           Si  tau(  52) = (   0.5036172   0.2489084   0.7436970  )
        53           Si  tau(  53) = (   0.7550659   0.0001049   0.7428956  )
        54           Si  tau(  54) = (   0.8798731   0.1237897   0.8681265  )
        55           Si  tau(  55) = (   0.1261371   0.3728251   0.8671923  )
        56           Si  tau(  56) = (   0.2520937   0.4964428   0.7434434  )
        57           Si  tau(  57) = (   0.6288251   0.3735449   0.8683418  )
        58           Si  tau(  58) = (   0.3770236   0.6218391   0.8683333  )
        59           Si  tau(  59) = (   0.7549458   0.4969652   0.7445802  )
        60           Si  tau(  60) = (   0.8812072   0.6214352   0.8682683  )
        61           Si  tau(  61) = (  -0.0006122   0.7452517   0.7444910  )
        62           Si  tau(  62) = (   0.1261544   0.8697593   0.8679810  )
        63           Si  tau(  63) = (   0.5022423   0.7453394   0.7442961  )
        64           Si  tau(  64) = (   0.6284299   0.8691477   0.8676572  )

     number of k points=     1  Fermi-Dirac smearing, width (Ry)=  0.0100
                       cart. coord. in units 2pi/alat
        k(    1) = (   0.0000000   0.0000000   0.0000000), wk =   2.0000000

     Dense  grid:    99959 G-vectors     FFT dimensions: (  75,  75,  75)

     Estimated max dynamical RAM per process >     160.69 MB

     Estimated total dynamical RAM >     618.34 MB

     Initial potential from superposition of free atoms

     starting charge     255.9608, renormalised to     256.0000
     Starting wfcs are  256 randomized atomic wfcs

     total cpu time spent up to now is        4.1 secs

     Self-consistent Calculation

     iteration #  1     ecut=    30.00 Ry     beta= 0.50
     Davidson diagonalization with overlap
     ethr =  1.00E-02,  avg # of iterations =  3.0

     Threshold (ethr) on eigenvalues was too large:
     Diagonalizing with lowered threshold

     Davidson diagonalization with overlap
     ethr =  6.39E-04,  avg # of iterations =  4.0

     total cpu time spent up to now is        4.4 secs

     total energy              =    -503.97213276 Ry
     estimated scf accuracy    <       1.81431673 Ry

     iteration #  2     ecut=    30.00 Ry     beta= 0.50
     Davidson diagonalization with overlap
     ethr =  7.09E-04,  avg # of iterations =  1.0

     total cpu time spent up to now is        4.5 secs

     total energy              =    -503.95316486 Ry
     estimated scf accuracy    <       0.34400728 Ry

     iteration #  3     ecut=    30.00 Ry     beta= 0.50
     Davidson diagonalization with overlap
     ethr =  1.34E-04,  avg # of iterations =  4.0

     total cpu time spent up to now is        4.6 secs

     total energy              =    -503.97452576 Ry
     estimated scf accuracy    <       0.00742923 Ry

     iteration #  4     ecut=    30.00 Ry     beta= 0.50
     Davidson diagonalization with overlap
     c_bands:  1 eigenvalues not converged
     ethr =  2.90E-06,  avg # of iterations = 40.0

     total cpu time spent up to now is        5.0 secs

     total energy              =    -503.97630684 Ry
     estimated scf accuracy    <       0.01010991 Ry

     iteration #  5     ecut=    30.00 Ry     beta= 0.50
     Davidson diagonalization with overlap
     ethr =  2.90E-06,  avg # of iterations =  5.0

     total cpu time spent up to now is        5.1 secs

     total energy              =    -503.97816404 Ry
     estimated scf accuracy    <       0.00063753 Ry

     iteration #  6     ecut=    30.00 Ry     beta= 0.50
     Davidson diagonalization with overlap
     ethr =  2.49E-07,  avg # of iterations =  2.0

     total cpu time spent up to now is        5.2 secs

     total energy              =    -503.97820267 Ry
     estimated scf accuracy    <       0.00011922 Ry

     iteration #  7     ecut=    30.00 Ry     beta= 0.50
     Davidson diagonalization with overlap
     ethr =  4.66E-08,  avg # of iterations =  5.0

     total cpu time spent up to now is        5.3 secs

     total energy              =    -503.97821279 Ry
     estimated scf accuracy    <       0.00001521 Ry

     iteration #  8     ecut=    30.00 Ry     beta= 0.50
     Davidson diagonalization with overlap
     ethr =  5.94E-09,  avg # of iterations =  3.0

     total cpu time spent up to now is        5.4 secs

     End of self-consistent calculation

          k = 0.0000 0.0000 0.0000 ( 12521 PWs)   bands (ev):

    -5.8569  -4.8655  -4.8392  -4.8124  -4.8073  -4.7712  -4.7567  -3.9843
    -3.9656  -3.9487  -3.9115  -3.8955  -3.8830  -3.8772  -3.8614  -3.8498
    -3.8211  -3.8118  -3.7971  -3.6617  -3.6045  -3.5867  -3.5529  -1.9613
    -1.8978  -1.8826  -1.8552  -1.8091  -1.7911  -1.7461  -1.7344  -1.7277
    -1.7174  -1.7090  -1.6850  -1.6834  -1.6755  -1.6724  -1.6620  -1.6516
    -1.6381  -0.9881  -0.9739  -0.9444  -0.8780   0.3709   0.3860   0.4137
     0.4207   0.4269   0.4318   0.4330   0.4397   0.4478   0.4547   0.4638
     0.4804   2.0709   2.0832   2.0897   2.0983   2.1086   2.1261   2.1394
     2.1507   2.1574   2.1644   2.1681   2.1739   2.2046   2.2093   2.2239
     2.2458   2.2544   2.2609   2.2683   2.2694   2.2782   2.2836   2.2839
     2.2871   2.3077   2.3095   2.3513   2.3596   2.3658   2.3855   3.0335
     3.0635   3.0895   3.0967   3.1274   3.1641   3.9262   3.9817   3.9835
     4.0081   4.0104   4.0346   4.0386   4.0493   4.0523   4.0531   4.1241
     4.1273   4.3556   4.4364   4.5128   4.5274   4.5461   4.5546   4.5614
     4.5813   4.5974   4.6248   4.6264   4.6411   4.6531   4.6685   4.6768
     4.6869   4.7242   4.7532   4.7775   4.7992   5.7880   5.8506   5.9232
     6.5053   6.5437   6.5845   6.6231   6.6567   6.6997   6.9390   6.9706
     6.9814   6.9821   7.0336   7.0728   7.1936   7.2116   7.2139   7.2258
     8.1155   8.2024   8.2063   8.2074   8.2145   8.2204   8.2249   8.2343
     8.2378   8.3168

     the Fermi energy is     6.1707 ev

!    total energy              =    -503.97821541 Ry
     estimated scf accuracy    <       0.00000099 Ry
     smearing contrib. (-TS)   =      -0.04204563 Ry
     internal energy E=F+TS    =    -503.93616978 Ry

     The total energy is F=E-TS. E is the sum of the following terms:
     one-electron contribution =     142.00689794 Ry
     hartree contribution      =      37.17988281 Ry
     xc contribution           =    -153.03644741 Ry
     ewald contribution        =    -530.08650313 Ry

     convergence has been achieved in   8 iterations

     Forces acting on atoms (cartesian axes, Ry/au):

     atom    1 type  1   force =     0.01792438    0.01586882   -0.00586878
     atom    2 type  1   force =     0.02054854   -0.00777787    0.00086155
     atom    3 type  1   force =     0.00400248    0.01644098   -0.00657479
     atom    4 type  1   force =    -0.00499074    0.00471000   -0.00347424
     atom    5 type  1   force =    -0.00036236    0.00667005    0.00719294
     atom    6 type  1   force =     0.00535547    0.02107770   -0.00567604
     atom    7 type  1   force =     0.00222157   -0.00183366   -0.00121407
     atom    8 type  1   force =    -0.00272912    0.00341008   -0.00128434
     atom    9 type  1   force =     0.00081835    0.01341868   -0.00057576
     atom   10 type  1   force =    -0.00623978   -0.00094690   -0.00198694
     atom   11 type  1   force =     0.02235223   -0.00146323   -0.00286843
     atom   12 type  1   force =    -0.00296536   -0.00715603    0.00675681
     atom   13 type  1   force =     0.00050296    0.00431231   -0.00154361
     atom   14 type  1   force =     0.00214782    0.00335930   -0.00184626
     atom   15 type  1   force =    -0.00159261    0.00285566   -0.00100177
     atom   16 type  1   force =    -0.00046852    0.00231126   -0.00328795
     atom   17 type  1   force =    -0.01904771    0.00100392    0.00050485
     atom   18 type  1   force =    -0.00122181   -0.00357688    0.00051240
     atom   19 type  1   force =     0.01805870   -0.00775869   -0.00278970
     atom   20 type  1   force =    -0.00016499   -0.00067923    0.00114963
     atom   21 type  1   force =    -0.00639417   -0.01831635    0.00658562
     atom   22 type  1   force =     0.00167483   -0.00177478    0.00130071
     atom   23 type  1   force =    -0.00238731   -0.00261535    0.00369276
     atom   24 type  1   force =    -0.02451524   -0.01618923    0.00283373
     atom   25 type  1   force =     0.02903015    0.01973375   -0.00525956
     atom   26 type  1   force =    -0.00444365   -0.00001046   -0.00070664
     atom   27 type  1   force =     0.00280335    0.00021699   -0.00106283
     atom   28 type  1   force =     0.00203309    0.00007771    0.00361997
     atom   29 type  1   force =     0.00273583    0.02020941   -0.00186283
     atom   30 type  1   force =     0.00140893    0.00514357   -0.00359883
     atom   31 type  1   force =    -0.01888969    0.00806775   -0.00274412
     atom   32 type  1   force =    -0.00689874   -0.00115589   -0.00092538
     atom   33 type  1   force =     0.00554147    0.00693183   -0.00077706
     atom   34 type  1   force =     0.02460851   -0.00431069    0.00257193
     atom   35 type  1   force =    -0.00202347   -0.00250316    0.00073037
     atom   36 type  1   force =     0.00331521   -0.00104524    0.00406367
     atom   37 type  1   force =    -0.00083492    0.00188629   -0.00233946
     atom   38 type  1   force =     0.00600651   -0.00584465   -0.00027432
     atom   39 type  1   force =     0.00107182    0.00030543   -0.00019608
     atom   40 type  1   force =     0.00331788    0.00265375   -0.00165005
     atom   41 type  1   force =    -0.02272557    0.00606962    0.00129282
     atom   42 type  1   force =    -0.01821505   -0.00025601    0.00051963
     atom   43 type  1   force =    -0.00357436   -0.01213049    0.00409595
     atom   44 type  1   force =     0.00542184   -0.00359751    0.00411079
     atom   45 type  1   force =     0.00067846   -0.01944403    0.00287809
     atom   46 type  1   force =    -0.00239059   -0.02210442    0.00051852
     atom   47 type  1   force =    -0.00512641   -0.00319309   -0.00017808
     atom   48 type  1   force =    -0.02345191   -0.02360012    0.00533662
     atom   49 type  1   force =     0.01616185    0.00127587    0.00082046
     atom   50 type  1   force =    -0.00071641    0.01801949   -0.00127003
     atom   51 type  1   force =     0.00617109    0.00138655   -0.00209892
     atom   52 type  1   force =    -0.00404767    0.00004077    0.00157369
     atom   53 type  1   force =    -0.00615448    0.01472825    0.00444828
     atom   54 type  1   force =    -0.01521015    0.00406999   -0.00132135
     atom   55 type  1   force =     0.00180312   -0.00158986    0.00508105
     atom   56 type  1   force =    -0.00292817    0.00642740    0.00293278
     atom   57 type  1   force =     0.00124295   -0.00317533   -0.00040681
     atom   58 type  1   force =     0.00108584   -0.00614447   -0.00060662
     atom   59 type  1   force =    -0.00269216    0.00116163   -0.00094247
     atom   60 type  1   force =    -0.02259739   -0.00264992    0.00010984
     atom   61 type  1   force =     0.02409074    0.00109598   -0.00382282
     atom   62 type  1   force =    -0.00068239   -0.01802053   -0.00036580
     atom   63 type  1   force =     0.00086618   -0.00109601   -0.00265332
     atom   64 type  1   force =     0.00168078   -0.01298068   -0.00103941

     Total force =     0.119765     Total SCF correction =     0.001758


     Computing stress (Cartesian axis) and pressure

          total   stress  (Ry/bohr**3)                   (kbar)     P=       -7.36
  -0.00008842   0.00000307  -0.00001951          -13.01        0.45       -2.87
   0.00000307  -0.00002297  -0.00002564            0.45       -3.38       -3.77
  -0.00001951  -0.00002564  -0.00003877           -2.87       -3.77       -5.70

 
     init_run     :      0.88s CPU      4.08s WALL (       1 calls)
     electrons    :      1.16s CPU      1.25s WALL (       1 calls)
     forces       :      0.04s CPU      0.04s WALL (       1 calls)
     stress       :      0.15s CPU      0.16s WALL (       1 calls)

     Called by init_run:
     wfcinit      :      0.54s CPU      3.60s WALL (       1 calls)
                                        3.60s GPU  (       1 calls)
     potinit      :      0.15s CPU      0.22s WALL (       1 calls)
     hinit0       :      0.18s CPU      0.20s WALL (       1 calls)

     Called by electrons:
     c_bands      :      0.86s CPU      0.92s WALL (       9 calls)
     sum_band     :      0.17s CPU      0.19s WALL (       9 calls)
     v_of_rho     :      0.07s CPU      0.15s WALL (       9 calls)
     mix_rho      :      0.05s CPU      0.06s WALL (       9 calls)

     Called by c_bands:
     init_us_2    :      0.02s CPU      0.03s WALL (      19 calls)
     init_us_2:gp :      0.02s CPU      0.02s WALL (      19 calls)
     regterg      :      0.79s CPU      0.84s WALL (      10 calls)

     Called by *egterg:
     rdiaghg      :      0.33s CPU      0.98s WALL (      76 calls)
                                        0.97s GPU  (      76 calls)
     h_psi        :      0.87s CPU      3.30s WALL (      78 calls)
                                        3.30s GPU  (      78 calls)
     g_psi        :      0.00s CPU      0.00s WALL (      67 calls)
                                        0.00s GPU  (      67 calls)

     Called by h_psi:
     h_psi:calbec :      0.49s CPU      2.86s WALL (      78 calls)
                                        2.86s GPU  (      78 calls)
     vloc_psi     :      0.34s CPU      0.39s WALL (      78 calls)
                                        0.39s GPU  (      78 calls)
     add_vuspsi   :      0.03s CPU      0.04s WALL (      78 calls)
                                        0.04s GPU  (      78 calls)

     General routines
     calbec       :      0.50s CPU      2.87s WALL (      83 calls)
     fft          :      0.20s CPU      0.28s WALL (      79 calls)
                                        0.09s GPU  (      51 calls)
     ffts         :      0.02s CPU      0.02s WALL (       9 calls)
     fftw         :      0.36s CPU      0.48s WALL (    1051 calls)
                                        0.43s GPU  (    1051 calls)
 
     Parallel routines
 
     PWSCF        :      2.26s CPU      5.60s WALL

 
   This run was terminated on:  11: 3:12  10May2023            

=------------------------------------------------------------------------------=
   JOB DONE.
=------------------------------------------------------------------------------=
