An instance of this daemon is already running
An instance of this daemon is already running

     Program PWSCF v.7.1 starts on 10May2023 at 11: 6:47 

     This program is part of the open-source Quantum ESPRESSO suite
     for quantum simulation of materials; please cite
         "P. Giannozzi et al., J. Phys.:Condens. Matter 21 395502 (2009);
         "P. Giannozzi et al., J. Phys.:Condens. Matter 29 465901 (2017);
         "P. Giannozzi et al., J. Chem. Phys. 152 154105 (2020);
          URL http://www.quantum-espresso.org", 
     in publications or presentations arising from this work. More details at
     http://www.quantum-espresso.org/quote

     Parallel version (MPI & OpenMP), running on       4 processor cores
     Number of MPI processes:                 4
     Threads/MPI process:                     1

     MPI processes distributed on     1 nodes
     152798 MiB available memory on the printing compute node when the environment starts
 
     Reading input from pw-si-78.in
Warning: card &CELL ignored
Warning: card / ignored

     Current dimensions of program PWSCF are:
     Max number of different atomic species (ntypx) = 10
     Max number of k-points (npk) =  40000
     Max angular momentum in pseudopotentials (lmaxx) =  4

     IMPORTANT: XC functional enforced from input :
     Exchange-correlation= PBE
                           (   1   4   3   4   0   0   0)
     Any further DFT definition will be discarded
     Please, verify this is what you really want


     gamma-point specific algorithms are used
 
     K-points division:     npool     =       2
     R & G space division:  proc/nbgrp/npool/nimage =       2
     Subspace diagonalization in iterative solution of the eigenvalue problem:
     a serial algorithm will be used

     Message from routine divide_et_impera:
     suboptimal parallelization: some nodes have no k-points
 
     Parallelization info
     --------------------
     sticks:   dense  smooth     PW     G-vecs:    dense   smooth      PW
     Min        2064    2064    548               100177   100177   13617
     Max        2065    2065    549               100180   100180   13620
     Sum        4129    4129   1097               200357   200357   27237
 
     Using Slab Decomposition
 


     bravais-lattice index     =            0
     lattice parameter (alat)  =      20.8934  a.u.
     unit-cell volume          =    9027.5804 (a.u.)^3
     number of atoms/cell      =           64
     number of atomic types    =            1
     number of electrons       =       256.00
     number of Kohn-Sham states=          154
     kinetic-energy cutoff     =      30.0000  Ry
     charge density cutoff     =     120.0000  Ry
     scf convergence threshold =      1.0E-06
     mixing beta               =       0.5000
     number of iterations used =            8  plain     mixing
     Exchange-correlation= PBE
                           (   1   4   3   4   0   0   0)

     GPU acceleration is ACTIVE.
     GPU-aware MPI enabled

     Message from routine print_cuda_info:
     High GPU oversubscription detected. Are you sure this is what you want?

     celldm(1)=  20.893367  celldm(2)=   0.000000  celldm(3)=   0.000000
     celldm(4)=   0.000000  celldm(5)=   0.000000  celldm(6)=   0.000000

     crystal axes: (cart. coord. in units of alat)
               a(1) = (   1.000000   0.000000   0.000000 )  
               a(2) = (   0.000000   0.990518   0.000000 )  
               a(3) = (   0.000000   0.000000   0.999272 )  

     reciprocal axes: (cart. coord. in units 2 pi/alat)
               b(1) = (  1.000000  0.000000  0.000000 )  
               b(2) = (  0.000000  1.009573  0.000000 )  
               b(3) = (  0.000000  0.000000  1.000728 )  


     PseudoPot. # 1 for Si read from file:
     /home/ppiaggi/pseudos/Si_ONCV_PBE_sr.upf
     MD5 check sum: 8553c464762ac42b85b1eed164b4d029
     Pseudo is Norm-conserving, Zval =  4.0
     Generated using ONCVPSP code by D. R. Hamann
     Using radial grid of 1510 points,  4 beta functions with: 
                l(1) =   0
                l(2) =   0
                l(3) =   1
                l(4) =   1

     atomic species   valence    mass     pseudopotential
        Si             4.00    28.08500     Si( 1.00)

     No symmetry found



   Cartesian axes

     site n.     atom                  positions (alat units)
         1           Si  tau(   1) = (   0.0008144   0.0008238   0.0006492  )
         2           Si  tau(   2) = (  -0.0002298   0.2490048   0.2502569  )
         3           Si  tau(   3) = (   0.2510254   0.0002513   0.2509632  )
         4           Si  tau(   4) = (   0.2519689   0.2499483  -0.0001453  )
         5           Si  tau(   5) = (   0.1250569   0.1237789   0.1249302  )
         6           Si  tau(   6) = (   0.5036411   0.0006707   0.0006135  )
         7           Si  tau(   7) = (   0.5041214   0.2488410   0.2494885  )
         8           Si  tau(   8) = (   0.6282149   0.1249225   0.1258562  )
         9           Si  tau(   9) = (   0.7545263  -0.0006652   0.2494284  )
        10           Si  tau(  10) = (   0.7544768   0.2485026  -0.0000930  )
        11           Si  tau(  11) = (   0.0001505   0.4994113   0.0003804  )
        12           Si  tau(  12) = (   0.2512825   0.4993988   0.2494811  )
        13           Si  tau(  13) = (   0.1255974   0.6239475   0.1251863  )
        14           Si  tau(  14) = (   0.3769626   0.3737618   0.1253162  )
        15           Si  tau(  15) = (   0.5035309   0.4979195   0.0005506  )
        16           Si  tau(  16) = (   0.6282700   0.6233191   0.1259882  )
        17           Si  tau(  17) = (   0.8814839   0.3741793   0.1255427  )
        18           Si  tau(  18) = (   0.7554405   0.4980211   0.2511267  )
        19           Si  tau(  19) = (   0.0001682   0.7485765   0.2499540  )
        20           Si  tau(  20) = (   0.2513422   0.7475950   0.0008745  )
        21           Si  tau(  21) = (   0.3765454   0.8734453   0.1244728  )
        22           Si  tau(  22) = (   0.5033180   0.7481098   0.2511849  )
        23           Si  tau(  23) = (   0.7553042   0.7488578  -0.0007515  )
        24           Si  tau(  24) = (   0.8805721   0.8722982   0.1260054  )
        25           Si  tau(  25) = (   0.0007996   0.0007412   0.5006288  )
        26           Si  tau(  26) = (   0.2523177   0.2493221   0.5010482  )
        27           Si  tau(  27) = (   0.1262673   0.1251013   0.6253045  )
        28           Si  tau(  28) = (   0.3774522   0.1240358   0.3761989  )
        29           Si  tau(  29) = (   0.5036323   0.0004341   0.5013264  )
        30           Si  tau(  30) = (   0.6287923   0.1254663   0.6250199  )
        31           Si  tau(  31) = (   0.8807224   0.1255934   0.3760653  )
        32           Si  tau(  32) = (   0.7543212   0.2489249   0.5007013  )
        33           Si  tau(  33) = (   0.1265028   0.3741415   0.3758724  )
        34           Si  tau(  34) = (   0.0007640   0.4978827   0.5006658  )
        35           Si  tau(  35) = (   0.1252984   0.6231622   0.6263291  )
        36           Si  tau(  36) = (   0.6290712   0.3737367   0.3752485  )
        37           Si  tau(  37) = (   0.3769218   0.6231925   0.3758117  )
        38           Si  tau(  38) = (   0.3783155   0.3747843   0.6251183  )
        39           Si  tau(  39) = (   0.5031516   0.4978545   0.5008228  )
        40           Si  tau(  40) = (   0.6292417   0.6228156   0.6264052  )
        41           Si  tau(  41) = (   0.8814396   0.6234718   0.3750090  )
        42           Si  tau(  42) = (   0.8809028   0.3733643   0.6252460  )
        43           Si  tau(  43) = (   0.1249742   0.8733216   0.3763710  )
        44           Si  tau(  44) = (   0.2515685   0.7483625   0.5013974  )
        45           Si  tau(  45) = (   0.6298918   0.8736471   0.3756219  )
        46           Si  tau(  46) = (   0.3766548   0.8726341   0.6262808  )
        47           Si  tau(  47) = (   0.7549421   0.7478295   0.5012924  )
        48           Si  tau(  48) = (   0.8806110   0.8732554   0.6249906  )
        49           Si  tau(  49) = (  -0.0007410   0.2486369   0.7516985  )
        50           Si  tau(  50) = (   0.2522123   0.0006644   0.7518638  )
        51           Si  tau(  51) = (   0.3768194   0.1254800   0.8757918  )
        52           Si  tau(  52) = (   0.5025523   0.2490295   0.7514370  )
        53           Si  tau(  53) = (   0.7540692   0.0002621   0.7514236  )
        54           Si  tau(  54) = (   0.8797437   0.1241322   0.8768582  )
        55           Si  tau(  55) = (   0.1261946   0.3736375   0.8763899  )
        56           Si  tau(  56) = (   0.2514310   0.4995679   0.7516736  )
        57           Si  tau(  57) = (   0.6290306   0.3740517   0.8752616  )
        58           Si  tau(  58) = (   0.3775268   0.6239995   0.8760552  )
        59           Si  tau(  59) = (   0.7539374   0.4993026   0.7517911  )
        60           Si  tau(  60) = (   0.8804247   0.6232655   0.8766669  )
        61           Si  tau(  61) = (   0.0003919   0.7477483   0.7516954  )
        62           Si  tau(  62) = (   0.1249366   0.8728863   0.8755960  )
        63           Si  tau(  63) = (   0.5024857   0.7481038   0.7510731  )
        64           Si  tau(  64) = (   0.6285600   0.8727864   0.8766853  )

     number of k points=     1  Fermi-Dirac smearing, width (Ry)=  0.0100
                       cart. coord. in units 2pi/alat
        k(    1) = (   0.0000000   0.0000000   0.0000000), wk =   2.0000000

     Dense  grid:   100179 G-vectors     FFT dimensions: (  75,  75,  75)

     Estimated max dynamical RAM per process >     161.02 MB

     Estimated total dynamical RAM >     619.64 MB

     Initial potential from superposition of free atoms

     starting charge     255.9608, renormalised to     256.0000
     Starting wfcs are  256 randomized atomic wfcs

     total cpu time spent up to now is        4.0 secs

     Self-consistent Calculation

     iteration #  1     ecut=    30.00 Ry     beta= 0.50
     Davidson diagonalization with overlap
     ethr =  1.00E-02,  avg # of iterations =  3.0

     Threshold (ethr) on eigenvalues was too large:
     Diagonalizing with lowered threshold

     Davidson diagonalization with overlap
     ethr =  6.37E-04,  avg # of iterations =  4.0

     total cpu time spent up to now is        4.2 secs

     total energy              =    -503.96885434 Ry
     estimated scf accuracy    <       1.80819916 Ry

     iteration #  2     ecut=    30.00 Ry     beta= 0.50
     Davidson diagonalization with overlap
     ethr =  7.06E-04,  avg # of iterations =  1.0

     total cpu time spent up to now is        4.3 secs

     total energy              =    -503.95009459 Ry
     estimated scf accuracy    <       0.34331259 Ry

     iteration #  3     ecut=    30.00 Ry     beta= 0.50
     Davidson diagonalization with overlap
     ethr =  1.34E-04,  avg # of iterations =  4.0

     total cpu time spent up to now is        4.4 secs

     total energy              =    -503.97125272 Ry
     estimated scf accuracy    <       0.00758178 Ry

     iteration #  4     ecut=    30.00 Ry     beta= 0.50
     Davidson diagonalization with overlap
     c_bands:  2 eigenvalues not converged
     ethr =  2.96E-06,  avg # of iterations = 20.0

     total cpu time spent up to now is        4.7 secs

     total energy              =    -503.97323055 Ry
     estimated scf accuracy    <       0.00921747 Ry

     iteration #  5     ecut=    30.00 Ry     beta= 0.50
     Davidson diagonalization with overlap
     ethr =  2.96E-06,  avg # of iterations =  6.0

     total cpu time spent up to now is        4.8 secs

     total energy              =    -503.97493341 Ry
     estimated scf accuracy    <       0.00053347 Ry

     iteration #  6     ecut=    30.00 Ry     beta= 0.50
     Davidson diagonalization with overlap
     ethr =  2.08E-07,  avg # of iterations =  2.0

     total cpu time spent up to now is        4.9 secs

     total energy              =    -503.97497547 Ry
     estimated scf accuracy    <       0.00012476 Ry

     iteration #  7     ecut=    30.00 Ry     beta= 0.50
     Davidson diagonalization with overlap
     ethr =  4.87E-08,  avg # of iterations =  5.0

     total cpu time spent up to now is        5.0 secs

     total energy              =    -503.97498263 Ry
     estimated scf accuracy    <       0.00001979 Ry

     iteration #  8     ecut=    30.00 Ry     beta= 0.50
     Davidson diagonalization with overlap
     ethr =  7.73E-09,  avg # of iterations =  4.0

     total cpu time spent up to now is        5.1 secs

     total energy              =    -503.97498787 Ry
     estimated scf accuracy    <       0.00000118 Ry

     iteration #  9     ecut=    30.00 Ry     beta= 0.50
     Davidson diagonalization with overlap
     ethr =  4.61E-10,  avg # of iterations =  5.0

     total cpu time spent up to now is        5.2 secs

     total energy              =    -503.97498782 Ry
     estimated scf accuracy    <       0.00000230 Ry

     iteration # 10     ecut=    30.00 Ry     beta= 0.50
     Davidson diagonalization with overlap
     ethr =  4.61E-10,  avg # of iterations =  4.0

     total cpu time spent up to now is        5.3 secs

     End of self-consistent calculation

          k = 0.0000 0.0000 0.0000 ( 12555 PWs)   bands (ev):

    -5.8674  -4.8664  -4.8459  -4.8439  -4.8121  -4.7890  -4.7652  -4.0031
    -3.9679  -3.9582  -3.9164  -3.9068  -3.8948  -3.8856  -3.8799  -3.8712
    -3.8525  -3.8270  -3.8069  -3.6625  -3.6087  -3.6015  -3.5732  -1.9610
    -1.9441  -1.9044  -1.8645  -1.8370  -1.8088  -1.7659  -1.7458  -1.7372
    -1.7324  -1.7264  -1.7060  -1.7005  -1.6929  -1.6845  -1.6749  -1.6691
    -1.6576  -0.9994  -0.9856  -0.9621  -0.8915   0.3697   0.3729   0.3876
     0.3912   0.3987   0.4055   0.4100   0.4130   0.4226   0.4285   0.4592
     0.4708   2.0475   2.0530   2.0667   2.0844   2.0891   2.1100   2.1231
     2.1308   2.1343   2.1452   2.1511   2.1554   2.2009   2.2097   2.2201
     2.2285   2.2333   2.2388   2.2549   2.2564   2.2584   2.2631   2.2785
     2.2897   2.2982   2.3092   2.3120   2.3281   2.3436   2.3652   3.0051
     3.0472   3.0771   3.0970   3.1120   3.1229   3.9000   3.9598   3.9664
     4.0015   4.0065   4.0122   4.0243   4.0290   4.0437   4.0513   4.0776
     4.0798   4.3078   4.4011   4.5064   4.5158   4.5252   4.5492   4.5559
     4.5649   4.5782   4.5866   4.6073   4.6227   4.6313   4.6500   4.6689
     4.6834   4.7052   4.7145   4.7424   4.7641   5.7638   5.8400   5.8889
     6.4837   6.5396   6.5593   6.5978   6.6376   6.6657   6.9140   6.9444
     6.9795   6.9957   7.0000   7.0202   7.1643   7.1770   7.1834   7.1932
     8.0749   8.1631   8.1740   8.1865   8.1923   8.2083   8.2357   8.2388
     8.2521   8.2707

     the Fermi energy is     6.1486 ev

!    total energy              =    -503.97498807 Ry
     estimated scf accuracy    <       0.00000007 Ry
     smearing contrib. (-TS)   =      -0.04171653 Ry
     internal energy E=F+TS    =    -503.93327154 Ry

     The total energy is F=E-TS. E is the sum of the following terms:
     one-electron contribution =     141.35569823 Ry
     hartree contribution      =      37.28873086 Ry
     xc contribution           =    -152.95963060 Ry
     ewald contribution        =    -529.61807003 Ry

     convergence has been achieved in  10 iterations

     Forces acting on atoms (cartesian axes, Ry/au):

     atom    1 type  1   force =     0.01176188    0.01318834    0.00293905
     atom    2 type  1   force =     0.02277237    0.00223749    0.00187291
     atom    3 type  1   force =     0.00072877    0.01838762   -0.00117410
     atom    4 type  1   force =    -0.00409621   -0.00451318    0.00904418
     atom    5 type  1   force =     0.00901029    0.01027924    0.00343511
     atom    6 type  1   force =    -0.00662856    0.02068334    0.00285383
     atom    7 type  1   force =    -0.00904491    0.00234908    0.00744833
     atom    8 type  1   force =     0.00613330   -0.00036283   -0.00374446
     atom    9 type  1   force =     0.00088285    0.02714740    0.00591309
     atom   10 type  1   force =    -0.00195368    0.00628956    0.00828094
     atom   11 type  1   force =     0.02038363   -0.00523469    0.00497764
     atom   12 type  1   force =     0.00048206   -0.00331019    0.00447134
     atom   13 type  1   force =     0.00195735   -0.00057203    0.00105308
     atom   14 type  1   force =     0.00382684    0.00171639    0.00073379
     atom   15 type  1   force =    -0.00298962    0.00250488    0.00282701
     atom   16 type  1   force =     0.00657469    0.00033393   -0.00179783
     atom   17 type  1   force =    -0.02357681   -0.00109133   -0.00237229
     atom   18 type  1   force =    -0.00396038    0.00298546   -0.00338118
     atom   19 type  1   force =     0.01970558   -0.00401713    0.00453515
     atom   20 type  1   force =    -0.00086568    0.00237256   -0.00110553
     atom   21 type  1   force =     0.00432802   -0.02257669    0.00711891
     atom   22 type  1   force =    -0.00393006    0.00143320   -0.00177371
     atom   23 type  1   force =    -0.00656058   -0.00732967    0.01279719
     atom   24 type  1   force =    -0.01726802   -0.01694749   -0.00631481
     atom   25 type  1   force =     0.01487098    0.02237981   -0.00037604
     atom   26 type  1   force =     0.00025955    0.00232397   -0.00205353
     atom   27 type  1   force =     0.00221063    0.00206508    0.00612325
     atom   28 type  1   force =     0.00300437    0.00571070   -0.00347742
     atom   29 type  1   force =    -0.00297289    0.01575398   -0.00154703
     atom   30 type  1   force =    -0.00056827   -0.00017160    0.00765552
     atom   31 type  1   force =    -0.02153632   -0.00402572   -0.00385550
     atom   32 type  1   force =    -0.00044512    0.00383599   -0.00145892
     atom   33 type  1   force =     0.00227485   -0.00188880   -0.00404021
     atom   34 type  1   force =     0.01633493    0.00289477   -0.00094857
     atom   35 type  1   force =     0.00444930    0.00083846   -0.00061026
     atom   36 type  1   force =     0.00008699   -0.00005537    0.00096782
     atom   37 type  1   force =     0.00243619    0.00112149    0.00049318
     atom   38 type  1   force =    -0.00519480   -0.00203290    0.00770334
     atom   39 type  1   force =     0.00233225    0.00444948   -0.00355548
     atom   40 type  1   force =    -0.00396977    0.00323989   -0.00196534
     atom   41 type  1   force =    -0.02006158   -0.00148159    0.00466228
     atom   42 type  1   force =    -0.02289383    0.00390725    0.00534323
     atom   43 type  1   force =     0.00719704   -0.02364743   -0.00344226
     atom   44 type  1   force =    -0.00346808   -0.00444527   -0.00219245
     atom   45 type  1   force =    -0.00394635   -0.02508992    0.00266773
     atom   46 type  1   force =     0.00523201   -0.01694483   -0.00055926
     atom   47 type  1   force =    -0.00130804   -0.00252974   -0.00415509
     atom   48 type  1   force =    -0.01868942   -0.02254664    0.00915070
     atom   49 type  1   force =     0.02142691    0.00122711   -0.00287360
     atom   50 type  1   force =    -0.00543303    0.01800478   -0.00490949
     atom   51 type  1   force =     0.00528141   -0.00063048   -0.00025338
     atom   52 type  1   force =     0.00176976    0.00368436   -0.00624679
     atom   53 type  1   force =    -0.00113521    0.01852564   -0.00531980
     atom   54 type  1   force =    -0.01651835    0.00231199   -0.00695059
     atom   55 type  1   force =    -0.00143055    0.00413537   -0.00676305
     atom   56 type  1   force =     0.00226895   -0.00488285   -0.00442955
     atom   57 type  1   force =    -0.00119789   -0.00225596    0.00014170
     atom   58 type  1   force =     0.00100251   -0.00382766   -0.00044468
     atom   59 type  1   force =     0.00546681   -0.00545011   -0.00566887
     atom   60 type  1   force =    -0.01876513    0.00192422   -0.00795274
     atom   61 type  1   force =     0.01242219   -0.00009836   -0.00643227
     atom   62 type  1   force =     0.00885980   -0.02061646   -0.00057610
     atom   63 type  1   force =     0.00261920   -0.00199043   -0.00129316
     atom   64 type  1   force =     0.00005487   -0.01967544   -0.00919497

     Total force =     0.123988     Total SCF correction =     0.000435


     Computing stress (Cartesian axis) and pressure

          total   stress  (Ry/bohr**3)                   (kbar)     P=       -9.31
  -0.00008167  -0.00000169  -0.00002656          -12.01       -0.25       -3.91
  -0.00000169  -0.00003332  -0.00001787           -0.25       -4.90       -2.63
  -0.00002656  -0.00001787  -0.00007490           -3.91       -2.63      -11.02

 
     init_run     :      0.92s CPU      3.94s WALL (       1 calls)
     electrons    :      1.26s CPU      1.35s WALL (       1 calls)
     forces       :      0.04s CPU      0.04s WALL (       1 calls)
     stress       :      0.15s CPU      0.15s WALL (       1 calls)

     Called by init_run:
     wfcinit      :      0.57s CPU      3.46s WALL (       1 calls)
                                        3.46s GPU  (       1 calls)
     potinit      :      0.15s CPU      0.22s WALL (       1 calls)
     hinit0       :      0.18s CPU      0.20s WALL (       1 calls)

     Called by electrons:
     c_bands      :      0.88s CPU      0.93s WALL (      11 calls)
     sum_band     :      0.21s CPU      0.23s WALL (      11 calls)
     v_of_rho     :      0.09s CPU      0.16s WALL (      11 calls)
     mix_rho      :      0.07s CPU      0.08s WALL (      11 calls)

     Called by c_bands:
     init_us_2    :      0.03s CPU      0.03s WALL (      23 calls)
     init_us_2:gp :      0.03s CPU      0.03s WALL (      23 calls)
     regterg      :      0.79s CPU      0.84s WALL (      11 calls)

     Called by *egterg:
     rdiaghg      :      0.31s CPU      0.92s WALL (      68 calls)
                                        0.90s GPU  (      68 calls)
     h_psi        :      0.93s CPU      3.25s WALL (      70 calls)
                                        3.24s GPU  (      70 calls)
     g_psi        :      0.00s CPU      0.00s WALL (      58 calls)
                                        0.00s GPU  (      58 calls)

     Called by h_psi:
     h_psi:calbec :      0.52s CPU      2.77s WALL (      70 calls)
                                        2.77s GPU  (      70 calls)
     vloc_psi     :      0.37s CPU      0.43s WALL (      70 calls)
                                        0.43s GPU  (      70 calls)
     add_vuspsi   :      0.02s CPU      0.04s WALL (      70 calls)
                                        0.04s GPU  (      70 calls)

     General routines
     calbec       :      0.53s CPU      2.78s WALL (      75 calls)
     fft          :      0.20s CPU      0.29s WALL (      95 calls)
                                        0.09s GPU  (      61 calls)
     ffts         :      0.02s CPU      0.02s WALL (      11 calls)
     fftw         :      0.40s CPU      0.54s WALL (    1215 calls)
                                        0.49s GPU  (    1215 calls)
 
     Parallel routines
 
     PWSCF        :      2.41s CPU      5.56s WALL

 
   This run was terminated on:  11: 6:53  10May2023            

=------------------------------------------------------------------------------=
   JOB DONE.
=------------------------------------------------------------------------------=
