An instance of this daemon is already running
An instance of this daemon is already running

     Program PWSCF v.7.1 starts on 10May2023 at 10:56:11 

     This program is part of the open-source Quantum ESPRESSO suite
     for quantum simulation of materials; please cite
         "P. Giannozzi et al., J. Phys.:Condens. Matter 21 395502 (2009);
         "P. Giannozzi et al., J. Phys.:Condens. Matter 29 465901 (2017);
         "P. Giannozzi et al., J. Chem. Phys. 152 154105 (2020);
          URL http://www.quantum-espresso.org", 
     in publications or presentations arising from this work. More details at
     http://www.quantum-espresso.org/quote

     Parallel version (MPI & OpenMP), running on       4 processor cores
     Number of MPI processes:                 4
     Threads/MPI process:                     1

     MPI processes distributed on     1 nodes
     153168 MiB available memory on the printing compute node when the environment starts
 
     Reading input from pw-si-1.in
Warning: card &CELL ignored
Warning: card / ignored

     Current dimensions of program PWSCF are:
     Max number of different atomic species (ntypx) = 10
     Max number of k-points (npk) =  40000
     Max angular momentum in pseudopotentials (lmaxx) =  4

     IMPORTANT: XC functional enforced from input :
     Exchange-correlation= PBE
                           (   1   4   3   4   0   0   0)
     Any further DFT definition will be discarded
     Please, verify this is what you really want


     gamma-point specific algorithms are used
 
     K-points division:     npool     =       2
     R & G space division:  proc/nbgrp/npool/nimage =       2
     Subspace diagonalization in iterative solution of the eigenvalue problem:
     a serial algorithm will be used

     Message from routine divide_et_impera:
     suboptimal parallelization: some nodes have no k-points
 
     Parallelization info
     --------------------
     sticks:   dense  smooth     PW     G-vecs:    dense   smooth      PW
     Min        2082    2082    547               100338   100338   13623
     Max        2083    2083    550               100343   100343   13626
     Sum        4165    4165   1097               200681   200681   27249
 
     Using Slab Decomposition
 


     bravais-lattice index     =            0
     lattice parameter (alat)  =      20.8248  a.u.
     unit-cell volume          =    9042.4932 (a.u.)^3
     number of atoms/cell      =           64
     number of atomic types    =            1
     number of electrons       =       256.00
     number of Kohn-Sham states=          154
     kinetic-energy cutoff     =      30.0000  Ry
     charge density cutoff     =     120.0000  Ry
     scf convergence threshold =      1.0E-06
     mixing beta               =       0.5000
     number of iterations used =            8  plain     mixing
     Exchange-correlation= PBE
                           (   1   4   3   4   0   0   0)

     GPU acceleration is ACTIVE.
     GPU-aware MPI enabled

     Message from routine print_cuda_info:
     High GPU oversubscription detected. Are you sure this is what you want?

     celldm(1)=  20.824781  celldm(2)=   0.000000  celldm(3)=   0.000000
     celldm(4)=   0.000000  celldm(5)=   0.000000  celldm(6)=   0.000000

     crystal axes: (cart. coord. in units of alat)
               a(1) = (   1.000000   0.000000   0.000000 )  
               a(2) = (   0.000000   1.003706   0.000000 )  
               a(3) = (   0.000000   0.000000   0.997563 )  

     reciprocal axes: (cart. coord. in units 2 pi/alat)
               b(1) = (  1.000000  0.000000  0.000000 )  
               b(2) = (  0.000000  0.996308  0.000000 )  
               b(3) = (  0.000000  0.000000  1.002443 )  


     PseudoPot. # 1 for Si read from file:
     /home/ppiaggi/pseudos/Si_ONCV_PBE_sr.upf
     MD5 check sum: 8553c464762ac42b85b1eed164b4d029
     Pseudo is Norm-conserving, Zval =  4.0
     Generated using ONCVPSP code by D. R. Hamann
     Using radial grid of 1510 points,  4 beta functions with: 
                l(1) =   0
                l(2) =   0
                l(3) =   1
                l(4) =   1

     atomic species   valence    mass     pseudopotential
        Si             4.00    28.08500     Si( 1.00)

     No symmetry found



   Cartesian axes

     site n.     atom                  positions (alat units)
         1           Si  tau(   1) = (   0.0006787  -0.0002028   0.0006159  )
         2           Si  tau(   2) = (  -0.0001422   0.2500818   0.2479397  )
         3           Si  tau(   3) = (   0.2490798   0.0004701   0.2482936  )
         4           Si  tau(   4) = (   0.2492438   0.2490747  -0.0001836  )
         5           Si  tau(   5) = (   0.1257386   0.1243940   0.1239461  )
         6           Si  tau(   6) = (   0.4985364  -0.0007432   0.0000839  )
         7           Si  tau(   7) = (   0.4984985   0.2488211   0.2490419  )
         8           Si  tau(   8) = (   0.6246444   0.1245669   0.1252699  )
         9           Si  tau(   9) = (   0.7496131   0.0007394   0.2485633  )
        10           Si  tau(  10) = (   0.7486221   0.2489287   0.0008732  )
        11           Si  tau(  11) = (  -0.0006350   0.4980903  -0.0007077  )
        12           Si  tau(  12) = (   0.2498625   0.4980755   0.2480664  )
        13           Si  tau(  13) = (   0.1243171   0.6233555   0.1245540  )
        14           Si  tau(  14) = (   0.3746955   0.3733862   0.1240511  )
        15           Si  tau(  15) = (   0.4988076   0.4991530  -0.0003708  )
        16           Si  tau(  16) = (   0.6237474   0.6228559   0.1249356  )
        17           Si  tau(  17) = (   0.8733052   0.3735937   0.1243014  )
        18           Si  tau(  18) = (   0.7497776   0.4989868   0.2480429  )
        19           Si  tau(  19) = (  -0.0001822   0.7474874   0.2493228  )
        20           Si  tau(  20) = (   0.2503294   0.7487264   0.0005322  )
        21           Si  tau(  21) = (   0.3739523   0.8724614   0.1242158  )
        22           Si  tau(  22) = (   0.4997056   0.7482633   0.2485021  )
        23           Si  tau(  23) = (   0.7488109   0.7481822  -0.0002055  )
        24           Si  tau(  24) = (   0.8734955   0.8721508   0.1245267  )
        25           Si  tau(  25) = (   0.0005754  -0.0007342   0.4977391  )
        26           Si  tau(  26) = (   0.2490551   0.2489002   0.4967251  )
        27           Si  tau(  27) = (   0.1255169   0.1248856   0.6217331  )
        28           Si  tau(  28) = (   0.3746589   0.1249078   0.3734348  )
        29           Si  tau(  29) = (   0.5002603   0.0004647   0.4972364  )
        30           Si  tau(  30) = (   0.6233621   0.1238257   0.6227963  )
        31           Si  tau(  31) = (   0.8741503   0.1252878   0.3735420  )
        32           Si  tau(  32) = (   0.7494342   0.2502578   0.4968178  )
        33           Si  tau(  33) = (   0.1241315   0.3745210   0.3735841  )
        34           Si  tau(  34) = (  -0.0001247   0.4985330   0.4980200  )
        35           Si  tau(  35) = (   0.1242148   0.6236683   0.6212687  )
        36           Si  tau(  36) = (   0.6245286   0.3739819   0.3732947  )
        37           Si  tau(  37) = (   0.3752228   0.6241906   0.3726639  )
        38           Si  tau(  38) = (   0.3737905   0.3746951   0.6219913  )
        39           Si  tau(  39) = (   0.4998918   0.4988014   0.4979185  )
        40           Si  tau(  40) = (   0.6235942   0.6229848   0.6223564  )
        41           Si  tau(  41) = (   0.8732917   0.6232145   0.3739751  )
        42           Si  tau(  42) = (   0.8741938   0.3740536   0.6212213  )
        43           Si  tau(  43) = (   0.1249194   0.8723841   0.3738307  )
        44           Si  tau(  44) = (   0.2499410   0.7477447   0.4977780  )
        45           Si  tau(  45) = (   0.6243241   0.8738188   0.3733137  )
        46           Si  tau(  46) = (   0.3754163   0.8726591   0.6214523  )
        47           Si  tau(  47) = (   0.7486173   0.7485726   0.4970173  )
        48           Si  tau(  48) = (   0.8747588   0.8725028   0.6216998  )
        49           Si  tau(  49) = (   0.0006795   0.2502244   0.7471135  )
        50           Si  tau(  50) = (   0.2502075  -0.0004127   0.7472286  )
        51           Si  tau(  51) = (   0.3742913   0.1240256   0.8707581  )
        52           Si  tau(  52) = (   0.4989661   0.2494353   0.7455361  )
        53           Si  tau(  53) = (   0.7482773   0.0006464   0.7468602  )
        54           Si  tau(  54) = (   0.8734317   0.1247596   0.8701025  )
        55           Si  tau(  55) = (   0.1257119   0.3732426   0.8712959  )
        56           Si  tau(  56) = (   0.2492550   0.4990015   0.7467645  )
        57           Si  tau(  57) = (   0.6244637   0.3738864   0.8715807  )
        58           Si  tau(  58) = (   0.3742013   0.6227765   0.8711775  )
        59           Si  tau(  59) = (   0.7496970   0.4983788   0.7470694  )
        60           Si  tau(  60) = (   0.8740878   0.6236551   0.8709213  )
        61           Si  tau(  61) = (  -0.0006702   0.7484491   0.7467665  )
        62           Si  tau(  62) = (   0.1248146   0.8732289   0.8699886  )
        63           Si  tau(  63) = (   0.4998599   0.7481329   0.7465950  )
        64           Si  tau(  64) = (   0.6250998   0.8727156   0.8704909  )

     number of k points=     1  Fermi-Dirac smearing, width (Ry)=  0.0100
                       cart. coord. in units 2pi/alat
        k(    1) = (   0.0000000   0.0000000   0.0000000), wk =   2.0000000

     Dense  grid:   100341 G-vectors     FFT dimensions: (  75,  75,  75)

     Estimated max dynamical RAM per process >     161.27 MB

     Estimated total dynamical RAM >     620.60 MB

     Initial potential from superposition of free atoms

     starting charge     255.9608, renormalised to     256.0000
     Starting wfcs are  256 randomized atomic wfcs

     total cpu time spent up to now is        4.0 secs

     Self-consistent Calculation

     iteration #  1     ecut=    30.00 Ry     beta= 0.50
     Davidson diagonalization with overlap
     ethr =  1.00E-02,  avg # of iterations =  3.0

     Threshold (ethr) on eigenvalues was too large:
     Diagonalizing with lowered threshold

     Davidson diagonalization with overlap
     ethr =  6.34E-04,  avg # of iterations =  2.0

     total cpu time spent up to now is        4.3 secs

     total energy              =    -503.98016780 Ry
     estimated scf accuracy    <       1.80411643 Ry

     iteration #  2     ecut=    30.00 Ry     beta= 0.50
     Davidson diagonalization with overlap
     ethr =  7.05E-04,  avg # of iterations =  2.0

     total cpu time spent up to now is        4.4 secs

     total energy              =    -503.96120396 Ry
     estimated scf accuracy    <       0.34327251 Ry

     iteration #  3     ecut=    30.00 Ry     beta= 0.50
     Davidson diagonalization with overlap
     ethr =  1.34E-04,  avg # of iterations =  4.0

     total cpu time spent up to now is        4.5 secs

     total energy              =    -503.98262431 Ry
     estimated scf accuracy    <       0.00645678 Ry

     iteration #  4     ecut=    30.00 Ry     beta= 0.50
     Davidson diagonalization with overlap
     c_bands:  4 eigenvalues not converged
     ethr =  2.52E-06,  avg # of iterations = 20.0

     total cpu time spent up to now is        4.7 secs

     total energy              =    -503.98446544 Ry
     estimated scf accuracy    <       0.00786370 Ry

     iteration #  5     ecut=    30.00 Ry     beta= 0.50
     Davidson diagonalization with overlap
     ethr =  2.52E-06,  avg # of iterations =  8.0

     total cpu time spent up to now is        4.8 secs

     total energy              =    -503.98589883 Ry
     estimated scf accuracy    <       0.00035837 Ry

     iteration #  6     ecut=    30.00 Ry     beta= 0.50
     Davidson diagonalization with overlap
     ethr =  1.40E-07,  avg # of iterations =  2.0

     total cpu time spent up to now is        4.9 secs

     total energy              =    -503.98593946 Ry
     estimated scf accuracy    <       0.00007777 Ry

     iteration #  7     ecut=    30.00 Ry     beta= 0.50
     Davidson diagonalization with overlap
     ethr =  3.04E-08,  avg # of iterations =  5.0

     total cpu time spent up to now is        5.0 secs

     total energy              =    -503.98594239 Ry
     estimated scf accuracy    <       0.00001606 Ry

     iteration #  8     ecut=    30.00 Ry     beta= 0.50
     Davidson diagonalization with overlap
     ethr =  6.27E-09,  avg # of iterations =  4.0

     total cpu time spent up to now is        5.1 secs

     End of self-consistent calculation

          k = 0.0000 0.0000 0.0000 ( 12567 PWs)   bands (ev):

    -5.8657  -4.8660  -4.8360  -4.8277  -4.8181  -4.8065  -4.7836  -3.9547
    -3.9480  -3.9393  -3.9285  -3.9233  -3.9114  -3.8997  -3.8808  -3.8757
    -3.8708  -3.8588  -3.8448  -3.6747  -3.6488  -3.6406  -3.5562  -1.9296
    -1.8995  -1.8939  -1.8682  -1.8648  -1.8585  -1.7752  -1.7679  -1.7564
    -1.7512  -1.7458  -1.7428  -1.7189  -1.7037  -1.7002  -1.6967  -1.6763
    -1.6631  -1.0202  -0.9647  -0.9451  -0.9416   0.3488   0.3622   0.3824
     0.3888   0.3931   0.4015   0.4075   0.4097   0.4163   0.4183   0.4249
     0.4307   2.0981   2.1029   2.1041   2.1096   2.1133   2.1187   2.1202
     2.1237   2.1274   2.1296   2.1309   2.1353   2.1742   2.1876   2.1913
     2.2005   2.2110   2.2138   2.2165   2.2240   2.2271   2.2332   2.2364
     2.2455   2.2650   2.2806   2.3186   2.3286   2.3323   2.3384   3.0390
     3.0417   3.0695   3.0747   3.0807   3.0992   3.9582   3.9630   3.9679
     3.9762   3.9821   3.9839   3.9914   4.0016   4.0074   4.0174   4.0279
     4.0963   4.4774   4.4823   4.5031   4.5078   4.5124   4.5191   4.5269
     4.5306   4.5326   4.5430   4.5545   4.5592   4.6019   4.6108   4.6281
     4.6391   4.6465   4.6687   4.6842   4.8477   5.7675   5.7980   5.8740
     6.5177   6.5234   6.5723   6.5989   6.6025   6.6153   6.9242   6.9379
     6.9520   6.9563   6.9683   7.0091   7.1542   7.1557   7.1609   7.1802
     8.1578   8.1604   8.1652   8.1847   8.1875   8.1897   8.1971   8.2044
     8.2072   8.2101

     the Fermi energy is     6.1380 ev

!    total energy              =    -503.98594610 Ry
     estimated scf accuracy    <       0.00000071 Ry
     smearing contrib. (-TS)   =      -0.04042133 Ry
     internal energy E=F+TS    =    -503.94552478 Ry

     The total energy is F=E-TS. E is the sum of the following terms:
     one-electron contribution =     141.13260686 Ry
     hartree contribution      =      37.26116933 Ry
     xc contribution           =    -152.91091140 Ry
     ewald contribution        =    -529.42838956 Ry

     convergence has been achieved in   8 iterations

     Forces acting on atoms (cartesian axes, Ry/au):

     atom    1 type  1   force =    -0.00884941   -0.01721447   -0.01143557
     atom    2 type  1   force =    -0.00135338   -0.00364978    0.00315549
     atom    3 type  1   force =     0.00411663   -0.02143105    0.00510783
     atom    4 type  1   force =     0.00569516   -0.00164020   -0.00648378
     atom    5 type  1   force =    -0.00658887    0.00156233    0.00128585
     atom    6 type  1   force =     0.00572149   -0.01474916   -0.00556863
     atom    7 type  1   force =     0.00589813    0.00304951    0.00019531
     atom    8 type  1   force =    -0.00667758   -0.00429791   -0.00441861
     atom    9 type  1   force =     0.00115386   -0.02041700    0.00308683
     atom   10 type  1   force =     0.00124747   -0.00046415   -0.01062412
     atom   11 type  1   force =    -0.00032511    0.00201719   -0.00359527
     atom   12 type  1   force =    -0.00002902    0.00425404    0.00386365
     atom   13 type  1   force =     0.00117231   -0.00161343   -0.00365650
     atom   14 type  1   force =    -0.00129711    0.00013185   -0.00176015
     atom   15 type  1   force =     0.00247265   -0.00322954   -0.00416161
     atom   16 type  1   force =     0.00203081    0.00284453   -0.00543534
     atom   17 type  1   force =     0.00574265    0.00129037   -0.00336058
     atom   18 type  1   force =    -0.00334588   -0.00144247    0.00488887
     atom   19 type  1   force =    -0.00472168    0.00367260    0.00090218
     atom   20 type  1   force =    -0.00729615   -0.00231406   -0.01121424
     atom   21 type  1   force =     0.00265923    0.02021185    0.00269480
     atom   22 type  1   force =     0.00001056    0.00565660    0.00154218
     atom   23 type  1   force =     0.00000648   -0.00076656   -0.00453073
     atom   24 type  1   force =     0.00660986    0.01936867    0.00012715
     atom   25 type  1   force =    -0.00452700   -0.01259843    0.00003563
     atom   26 type  1   force =     0.00241318    0.00484741    0.00365476
     atom   27 type  1   force =    -0.00265727   -0.00501468    0.00447987
     atom   28 type  1   force =    -0.00265592   -0.00559347   -0.00201571
     atom   29 type  1   force =    -0.00464565   -0.01945714    0.00118217
     atom   30 type  1   force =     0.00611170    0.00622971   -0.00630098
     atom   31 type  1   force =     0.00663665   -0.00443336   -0.00244972
     atom   32 type  1   force =    -0.00366290   -0.00725656    0.00695830
     atom   33 type  1   force =     0.00215818   -0.00229217   -0.00490018
     atom   34 type  1   force =    -0.00502783    0.00317434   -0.00194088
     atom   35 type  1   force =     0.00076547   -0.00016443    0.00607955
     atom   36 type  1   force =    -0.00209052    0.00126410   -0.00468679
     atom   37 type  1   force =    -0.00236146   -0.00601515    0.00070837
     atom   38 type  1   force =    -0.00003804   -0.00350437   -0.00285627
     atom   39 type  1   force =    -0.00350282    0.00074546   -0.00243243
     atom   40 type  1   force =     0.00624200    0.00166417    0.00046784
     atom   41 type  1   force =     0.00594846    0.00015708   -0.00299385
     atom   42 type  1   force =     0.00369729   -0.00103021    0.00639191
     atom   43 type  1   force =     0.00014537    0.01808676   -0.00422830
     atom   44 type  1   force =     0.00137070    0.00354361   -0.00106420
     atom   45 type  1   force =     0.00110166    0.01574176   -0.00459565
     atom   46 type  1   force =    -0.00171883    0.01833042    0.00256880
     atom   47 type  1   force =    -0.00028959    0.00039228    0.00558200
     atom   48 type  1   force =    -0.00371295    0.02038600    0.00168614
     atom   49 type  1   force =    -0.00599119   -0.00449787   -0.00506540
     atom   50 type  1   force =    -0.00099071   -0.01661451   -0.00730446
     atom   51 type  1   force =     0.00217735    0.00168929    0.00752319
     atom   52 type  1   force =    -0.00061213    0.00126250    0.00651647
     atom   53 type  1   force =     0.00586611   -0.02272671   -0.00337652
     atom   54 type  1   force =     0.00746798   -0.00105634    0.01324809
     atom   55 type  1   force =    -0.00387583    0.00457017    0.00601449
     atom   56 type  1   force =    -0.00129127    0.00083734   -0.00138875
     atom   57 type  1   force =    -0.00222890   -0.00174688    0.00369517
     atom   58 type  1   force =     0.00053524    0.00624942    0.00499536
     atom   59 type  1   force =    -0.00177027    0.00163517   -0.00263706
     atom   60 type  1   force =     0.00216535   -0.00105763    0.00707543
     atom   61 type  1   force =     0.00023738    0.00031281   -0.00173416
     atom   62 type  1   force =     0.00136172    0.01439457    0.01226439
     atom   63 type  1   force =    -0.00237819    0.00065176    0.00133930
     atom   64 type  1   force =    -0.00442562    0.01806404    0.00889910

     Total force =     0.092839     Total SCF correction =     0.001454


     Computing stress (Cartesian axis) and pressure

          total   stress  (Ry/bohr**3)                   (kbar)     P=      -10.81
  -0.00007016   0.00000560   0.00002120          -10.32        0.82        3.12
   0.00000560  -0.00009246   0.00000383            0.82      -13.60        0.56
   0.00002120   0.00000383  -0.00005786            3.12        0.56       -8.51

 
     init_run     :      0.82s CPU      3.98s WALL (       1 calls)
     electrons    :      1.02s CPU      1.11s WALL (       1 calls)
     forces       :      0.03s CPU      0.04s WALL (       1 calls)
     stress       :      0.15s CPU      0.16s WALL (       1 calls)

     Called by init_run:
     wfcinit      :      0.48s CPU      3.50s WALL (       1 calls)
                                        3.50s GPU  (       1 calls)
     potinit      :      0.14s CPU      0.21s WALL (       1 calls)
     hinit0       :      0.17s CPU      0.20s WALL (       1 calls)

     Called by electrons:
     c_bands      :      0.73s CPU      0.78s WALL (       9 calls)
     sum_band     :      0.16s CPU      0.18s WALL (       9 calls)
     v_of_rho     :      0.07s CPU      0.15s WALL (       9 calls)
     mix_rho      :      0.05s CPU      0.06s WALL (       9 calls)

     Called by c_bands:
     init_us_2    :      0.02s CPU      0.02s WALL (      19 calls)
     init_us_2:gp :      0.02s CPU      0.02s WALL (      19 calls)
     regterg      :      0.66s CPU      0.71s WALL (       9 calls)

     Called by *egterg:
     rdiaghg      :      0.26s CPU      0.86s WALL (      58 calls)
                                        0.85s GPU  (      58 calls)
     h_psi        :      0.76s CPU      3.19s WALL (      60 calls)
                                        3.19s GPU  (      60 calls)
     g_psi        :      0.00s CPU      0.00s WALL (      50 calls)
                                        0.00s GPU  (      50 calls)

     Called by h_psi:
     h_psi:calbec :      0.42s CPU      2.80s WALL (      60 calls)
                                        2.80s GPU  (      60 calls)
     vloc_psi     :      0.31s CPU      0.36s WALL (      60 calls)
                                        0.36s GPU  (      60 calls)
     add_vuspsi   :      0.02s CPU      0.03s WALL (      60 calls)
                                        0.03s GPU  (      60 calls)

     General routines
     calbec       :      0.43s CPU      2.81s WALL (      65 calls)
     fft          :      0.18s CPU      0.28s WALL (      79 calls)
                                        0.09s GPU  (      51 calls)
     ffts         :      0.02s CPU      0.02s WALL (       9 calls)
     fftw         :      0.33s CPU      0.44s WALL (    1001 calls)
                                        0.40s GPU  (    1001 calls)
 
     Parallel routines
 
     PWSCF        :      2.06s CPU      5.35s WALL

 
   This run was terminated on:  10:56:16  10May2023            

=------------------------------------------------------------------------------=
   JOB DONE.
=------------------------------------------------------------------------------=
