An instance of this daemon is already running
An instance of this daemon is already running
An instance of this daemon is already running

     Program PWSCF v.7.1 starts on 10May2023 at 10:59:32 

     This program is part of the open-source Quantum ESPRESSO suite
     for quantum simulation of materials; please cite
         "P. Giannozzi et al., J. Phys.:Condens. Matter 21 395502 (2009);
         "P. Giannozzi et al., J. Phys.:Condens. Matter 29 465901 (2017);
         "P. Giannozzi et al., J. Chem. Phys. 152 154105 (2020);
          URL http://www.quantum-espresso.org", 
     in publications or presentations arising from this work. More details at
     http://www.quantum-espresso.org/quote

     Parallel version (MPI & OpenMP), running on       4 processor cores
     Number of MPI processes:                 4
     Threads/MPI process:                     1

     MPI processes distributed on     1 nodes
     152760 MiB available memory on the printing compute node when the environment starts
 
     Reading input from pw-si-25.in
Warning: card &CELL ignored
Warning: card / ignored

     Current dimensions of program PWSCF are:
     Max number of different atomic species (ntypx) = 10
     Max number of k-points (npk) =  40000
     Max angular momentum in pseudopotentials (lmaxx) =  4

     IMPORTANT: XC functional enforced from input :
     Exchange-correlation= PBE
                           (   1   4   3   4   0   0   0)
     Any further DFT definition will be discarded
     Please, verify this is what you really want


     gamma-point specific algorithms are used
 
     K-points division:     npool     =       2
     R & G space division:  proc/nbgrp/npool/nimage =       2
     Subspace diagonalization in iterative solution of the eigenvalue problem:
     a serial algorithm will be used

     Message from routine divide_et_impera:
     suboptimal parallelization: some nodes have no k-points
 
     Parallelization info
     --------------------
     sticks:   dense  smooth     PW     G-vecs:    dense   smooth      PW
     Min        2070    2070    548                99205    99205   13505
     Max        2075    2075    549                99206    99206   13508
     Sum        4145    4145   1097               198411   198411   27013
 
     Using Slab Decomposition
 


     bravais-lattice index     =            0
     lattice parameter (alat)  =      20.8950  a.u.
     unit-cell volume          =    8939.6832 (a.u.)^3
     number of atoms/cell      =           64
     number of atomic types    =            1
     number of electrons       =       256.00
     number of Kohn-Sham states=          154
     kinetic-energy cutoff     =      30.0000  Ry
     charge density cutoff     =     120.0000  Ry
     scf convergence threshold =      1.0E-06
     mixing beta               =       0.5000
     number of iterations used =            8  plain     mixing
     Exchange-correlation= PBE
                           (   1   4   3   4   0   0   0)

     GPU acceleration is ACTIVE.
     GPU-aware MPI enabled

     Message from routine print_cuda_info:
     High GPU oversubscription detected. Are you sure this is what you want?

     celldm(1)=  20.894970  celldm(2)=   0.000000  celldm(3)=   0.000000
     celldm(4)=   0.000000  celldm(5)=   0.000000  celldm(6)=   0.000000

     crystal axes: (cart. coord. in units of alat)
               a(1) = (   1.000000   0.000000   0.000000 )  
               a(2) = (   0.000000   0.992309   0.000000 )  
               a(3) = (   0.000000   0.000000   0.987529 )  

     reciprocal axes: (cart. coord. in units 2 pi/alat)
               b(1) = (  1.000000  0.000000  0.000000 )  
               b(2) = (  0.000000  1.007751  0.000000 )  
               b(3) = (  0.000000  0.000000  1.012628 )  


     PseudoPot. # 1 for Si read from file:
     /home/ppiaggi/pseudos/Si_ONCV_PBE_sr.upf
     MD5 check sum: 8553c464762ac42b85b1eed164b4d029
     Pseudo is Norm-conserving, Zval =  4.0
     Generated using ONCVPSP code by D. R. Hamann
     Using radial grid of 1510 points,  4 beta functions with: 
                l(1) =   0
                l(2) =   0
                l(3) =   1
                l(4) =   1

     atomic species   valence    mass     pseudopotential
        Si             4.00    28.08500     Si( 1.00)

     No symmetry found



   Cartesian axes

     site n.     atom                  positions (alat units)
         1           Si  tau(   1) = (   0.0000317   0.0003095  -0.0002847  )
         2           Si  tau(   2) = (  -0.0005892   0.2457624   0.2459155  )
         3           Si  tau(   3) = (   0.2496305   0.0007368   0.2449068  )
         4           Si  tau(   4) = (   0.2493493   0.2461272   0.0003750  )
         5           Si  tau(   5) = (   0.1257603   0.1236458   0.1231815  )
         6           Si  tau(   6) = (   0.4994993   0.0003544  -0.0000727  )
         7           Si  tau(   7) = (   0.4990213   0.2450307   0.2449112  )
         8           Si  tau(   8) = (   0.6246775   0.1221207   0.1231984  )
         9           Si  tau(   9) = (   0.7491623  -0.0001810   0.2455672  )
        10           Si  tau(  10) = (   0.7505968   0.2465983  -0.0008479  )
        11           Si  tau(  11) = (  -0.0008009   0.4924459  -0.0003188  )
        12           Si  tau(  12) = (   0.2498387   0.4920963   0.2460041  )
        13           Si  tau(  13) = (   0.1243743   0.6138911   0.1227859  )
        14           Si  tau(  14) = (   0.3752997   0.3681278   0.1229928  )
        15           Si  tau(  15) = (   0.4990731   0.4917935   0.0008840  )
        16           Si  tau(  16) = (   0.6256500   0.6143272   0.1232964  )
        17           Si  tau(  17) = (   0.8753655   0.3686812   0.1230453  )
        18           Si  tau(  18) = (   0.7495068   0.4920988   0.2460936  )
        19           Si  tau(  19) = (  -0.0003826   0.7365787   0.2454145  )
        20           Si  tau(  20) = (   0.2499106   0.7367133   0.0000153  )
        21           Si  tau(  21) = (   0.3751656   0.8609011   0.1232962  )
        22           Si  tau(  22) = (   0.4994191   0.7370366   0.2449881  )
        23           Si  tau(  23) = (   0.7492987   0.7376787   0.0005449  )
        24           Si  tau(  24) = (   0.8756601   0.8597756   0.1235922  )
        25           Si  tau(  25) = (   0.0004840  -0.0006472   0.4918060  )
        26           Si  tau(  26) = (   0.2504543   0.2451960   0.4911526  )
        27           Si  tau(  27) = (   0.1253241   0.1230213   0.6144062  )
        28           Si  tau(  28) = (   0.3746719   0.1236206   0.3692154  )
        29           Si  tau(  29) = (   0.4993418   0.0000208   0.4904905  )
        30           Si  tau(  30) = (   0.6251069   0.1232383   0.6147883  )
        31           Si  tau(  31) = (   0.8743271   0.1223678   0.3686469  )
        32           Si  tau(  32) = (   0.7497067   0.2463001   0.4921515  )
        33           Si  tau(  33) = (   0.1248480   0.3687934   0.3691143  )
        34           Si  tau(  34) = (   0.0008617   0.4922080   0.4906697  )
        35           Si  tau(  35) = (   0.1241137   0.6151252   0.6136577  )
        36           Si  tau(  36) = (   0.6250808   0.3685684   0.3680396  )
        37           Si  tau(  37) = (   0.3743669   0.6153120   0.3682406  )
        38           Si  tau(  38) = (   0.3750825   0.3680826   0.6141721  )
        39           Si  tau(  39) = (   0.4998443   0.4917657   0.4917138  )
        40           Si  tau(  40) = (   0.6242308   0.6140306   0.6149153  )
        41           Si  tau(  41) = (   0.8749008   0.6140137   0.3685173  )
        42           Si  tau(  42) = (   0.8754086   0.3692297   0.6134832  )
        43           Si  tau(  43) = (   0.1249131   0.8607361   0.3685426  )
        44           Si  tau(  44) = (   0.2508457   0.7368312   0.4920405  )
        45           Si  tau(  45) = (   0.6256764   0.8594439   0.3687447  )
        46           Si  tau(  46) = (   0.3741216   0.8602417   0.6148832  )
        47           Si  tau(  47) = (   0.7499429   0.7379136   0.4904930  )
        48           Si  tau(  48) = (   0.8751221   0.8611611   0.6147892  )
        49           Si  tau(  49) = (  -0.0000236   0.2460541   0.7374454  )
        50           Si  tau(  50) = (   0.2498504  -0.0002376   0.7363833  )
        51           Si  tau(  51) = (   0.3749882   0.1232316   0.8601738  )
        52           Si  tau(  52) = (   0.4991735   0.2453789   0.7363140  )
        53           Si  tau(  53) = (   0.7506524  -0.0001992   0.7365676  )
        54           Si  tau(  54) = (   0.8743345   0.1232222   0.8594719  )
        55           Si  tau(  55) = (   0.1257541   0.3682695   0.8594957  )
        56           Si  tau(  56) = (   0.2498034   0.4917793   0.7365861  )
        57           Si  tau(  57) = (   0.6248961   0.3695842   0.8591010  )
        58           Si  tau(  58) = (   0.3746116   0.6143837   0.8601276  )
        59           Si  tau(  59) = (   0.7503344   0.4908489   0.7363510  )
        60           Si  tau(  60) = (   0.8742203   0.6140530   0.8607773  )
        61           Si  tau(  61) = (  -0.0003105   0.7370583   0.7370947  )
        62           Si  tau(  62) = (   0.1254722   0.8598493   0.8597815  )
        63           Si  tau(  63) = (   0.5008162   0.7368314   0.7367292  )
        64           Si  tau(  64) = (   0.6246736   0.8610253   0.8598050  )

     number of k points=     1  Fermi-Dirac smearing, width (Ry)=  0.0100
                       cart. coord. in units 2pi/alat
        k(    1) = (   0.0000000   0.0000000   0.0000000), wk =   2.0000000

     Dense  grid:    99206 G-vectors     FFT dimensions: (  75,  75,  72)

     Estimated max dynamical RAM per process >     158.86 MB

     Estimated total dynamical RAM >     611.21 MB

     Initial potential from superposition of free atoms

     starting charge     255.9608, renormalised to     256.0000
     Starting wfcs are  256 randomized atomic wfcs

     total cpu time spent up to now is        4.0 secs

     Self-consistent Calculation

     iteration #  1     ecut=    30.00 Ry     beta= 0.50
     Davidson diagonalization with overlap
     ethr =  1.00E-02,  avg # of iterations =  3.0

     Threshold (ethr) on eigenvalues was too large:
     Diagonalizing with lowered threshold

     Davidson diagonalization with overlap
     ethr =  6.48E-04,  avg # of iterations =  2.0

     total cpu time spent up to now is        4.2 secs

     total energy              =    -503.96642547 Ry
     estimated scf accuracy    <       1.83629843 Ry

     iteration #  2     ecut=    30.00 Ry     beta= 0.50
     Davidson diagonalization with overlap
     ethr =  7.17E-04,  avg # of iterations =  2.0

     total cpu time spent up to now is        4.3 secs

     total energy              =    -503.94779426 Ry
     estimated scf accuracy    <       0.34582555 Ry

     iteration #  3     ecut=    30.00 Ry     beta= 0.50
     Davidson diagonalization with overlap
     ethr =  1.35E-04,  avg # of iterations =  4.0

     total cpu time spent up to now is        4.4 secs

     total energy              =    -503.96948149 Ry
     estimated scf accuracy    <       0.00790837 Ry

     iteration #  4     ecut=    30.00 Ry     beta= 0.50
     Davidson diagonalization with overlap
     c_bands:  1 eigenvalues not converged
     ethr =  3.09E-06,  avg # of iterations = 20.0

     total cpu time spent up to now is        4.6 secs

     total energy              =    -503.97158902 Ry
     estimated scf accuracy    <       0.00918718 Ry

     iteration #  5     ecut=    30.00 Ry     beta= 0.50
     Davidson diagonalization with overlap
     ethr =  3.09E-06,  avg # of iterations =  5.0

     total cpu time spent up to now is        4.7 secs

     total energy              =    -503.97330267 Ry
     estimated scf accuracy    <       0.00056360 Ry

     iteration #  6     ecut=    30.00 Ry     beta= 0.50
     Davidson diagonalization with overlap
     ethr =  2.20E-07,  avg # of iterations =  4.0

     total cpu time spent up to now is        4.8 secs

     total energy              =    -503.97334657 Ry
     estimated scf accuracy    <       0.00012766 Ry

     iteration #  7     ecut=    30.00 Ry     beta= 0.50
     Davidson diagonalization with overlap
     ethr =  4.99E-08,  avg # of iterations =  5.0

     total cpu time spent up to now is        4.9 secs

     total energy              =    -503.97335638 Ry
     estimated scf accuracy    <       0.00001625 Ry

     iteration #  8     ecut=    30.00 Ry     beta= 0.50
     Davidson diagonalization with overlap
     ethr =  6.35E-09,  avg # of iterations =  5.0

     total cpu time spent up to now is        5.1 secs

     End of self-consistent calculation

          k = 0.0000 0.0000 0.0000 ( 12432 PWs)   bands (ev):

    -5.8353  -4.8378  -4.8082  -4.7976  -4.7918  -4.7330  -4.7059  -3.9267
    -3.9209  -3.9100  -3.9095  -3.8768  -3.8631  -3.8379  -3.8145  -3.8066
    -3.8025  -3.7652  -3.7286  -3.6387  -3.5851  -3.5636  -3.4338  -1.8788
    -1.8703  -1.8277  -1.8018  -1.7669  -1.7593  -1.7127  -1.6993  -1.6922
    -1.6707  -1.6672  -1.6612  -1.6345  -1.6019  -1.6011  -1.5816  -1.5658
    -1.5554  -0.9822  -0.9020  -0.8724  -0.8651   0.4431   0.4490   0.4593
     0.4696   0.4763   0.4817   0.4930   0.5034   0.5237   0.5253   0.5320
     0.5455   2.1410   2.1440   2.1465   2.1531   2.1581   2.1648   2.1656
     2.1715   2.1946   2.1957   2.1976   2.2018   2.2480   2.2554   2.2676
     2.2718   2.2830   2.2866   2.2994   2.3043   2.3107   2.3176   2.3253
     2.3594   2.3917   2.4256   2.4400   2.4491   2.4560   2.4868   3.1017
     3.1074   3.1202   3.1452   3.2122   3.2187   4.0078   4.0122   4.0127
     4.0248   4.0846   4.1076   4.1155   4.1264   4.1321   4.1414   4.1493
     4.2113   4.5225   4.5485   4.5569   4.5686   4.5862   4.6053   4.6088
     4.6219   4.6345   4.6378   4.6783   4.6920   4.7081   4.7110   4.7338
     4.7620   4.7756   4.8101   4.8637   5.0223   5.8517   5.9315   6.0046
     6.5778   6.5874   6.6309   6.6562   6.7524   6.7618   6.9959   7.0273
     7.0383   7.0972   7.1126   7.1170   7.2974   7.3004   7.3076   7.3305
     8.2248   8.2534   8.2559   8.2634   8.2753   8.2877   8.3123   8.3714
     8.3817   8.4117

     the Fermi energy is     6.2379 ev

!    total energy              =    -503.97336010 Ry
     estimated scf accuracy    <       0.00000075 Ry
     smearing contrib. (-TS)   =      -0.04391022 Ry
     internal energy E=F+TS    =    -503.92944988 Ry

     The total energy is F=E-TS. E is the sum of the following terms:
     one-electron contribution =     143.60094240 Ry
     hartree contribution      =      37.04457007 Ry
     xc contribution           =    -153.27573194 Ry
     ewald contribution        =    -531.29923042 Ry

     convergence has been achieved in   8 iterations

     Forces acting on atoms (cartesian axes, Ry/au):

     atom    1 type  1   force =    -0.00023395   -0.02498061   -0.01146737
     atom    2 type  1   force =     0.00226882   -0.00063364    0.00182580
     atom    3 type  1   force =     0.00313783   -0.02744980    0.00646524
     atom    4 type  1   force =     0.00473334    0.00018136   -0.01623044
     atom    5 type  1   force =    -0.00788981   -0.00490495   -0.00416178
     atom    6 type  1   force =    -0.00019772   -0.02597011   -0.01319344
     atom    7 type  1   force =     0.00559256    0.00197625    0.00516472
     atom    8 type  1   force =     0.00259352    0.00249450   -0.00777342
     atom    9 type  1   force =     0.00434294   -0.02861552    0.00169010
     atom   10 type  1   force =    -0.00646704   -0.00271981   -0.00937001
     atom   11 type  1   force =     0.00436244   -0.00617463   -0.01409069
     atom   12 type  1   force =    -0.00008269   -0.00328440   -0.00164557
     atom   13 type  1   force =     0.00237908    0.00180657   -0.00228607
     atom   14 type  1   force =    -0.00535908    0.00237115   -0.00086392
     atom   15 type  1   force =     0.00560189    0.00094126   -0.01801128
     atom   16 type  1   force =    -0.00602828    0.00061129   -0.00380608
     atom   17 type  1   force =    -0.00277131    0.00184258   -0.00217154
     atom   18 type  1   force =     0.00398518   -0.00388169   -0.00182513
     atom   19 type  1   force =     0.00338400    0.00551621    0.00424181
     atom   20 type  1   force =     0.00044506    0.00698497   -0.01121162
     atom   21 type  1   force =    -0.00315073    0.02344249   -0.00604001
     atom   22 type  1   force =     0.00434778    0.00572751    0.00379289
     atom   23 type  1   force =     0.00236754    0.00502659   -0.01549338
     atom   24 type  1   force =    -0.00377500    0.02953901   -0.00585049
     atom   25 type  1   force =    -0.00233154   -0.02109873   -0.00122119
     atom   26 type  1   force =    -0.00435598    0.00489394    0.00383138
     atom   27 type  1   force =    -0.00228249   -0.00336947   -0.00102137
     atom   28 type  1   force =    -0.00019483   -0.00872042   -0.00762023
     atom   29 type  1   force =     0.00440091   -0.02715347    0.00668204
     atom   30 type  1   force =    -0.00236154   -0.00763904   -0.00433013
     atom   31 type  1   force =     0.00093316   -0.00252107    0.00206301
     atom   32 type  1   force =     0.00124868   -0.00185170   -0.00376798
     atom   33 type  1   force =     0.00253696   -0.00357737   -0.00430970
     atom   34 type  1   force =    -0.00473901   -0.00066188    0.00290546
     atom   35 type  1   force =     0.00467647   -0.00233649    0.00292946
     atom   36 type  1   force =    -0.00427523   -0.00200087    0.00109354
     atom   37 type  1   force =     0.00420726   -0.00479405    0.00162605
     atom   38 type  1   force =    -0.00224787    0.00237655   -0.00180221
     atom   39 type  1   force =    -0.00156933   -0.00015263   -0.00402830
     atom   40 type  1   force =     0.00816715    0.00177652   -0.00656893
     atom   41 type  1   force =    -0.00018913    0.00261224   -0.00053783
     atom   42 type  1   force =     0.00318129   -0.00249766    0.00128795
     atom   43 type  1   force =     0.00231730    0.02040764   -0.00127631
     atom   44 type  1   force =    -0.00691995    0.00926558   -0.00300150
     atom   45 type  1   force =    -0.00803906    0.02948612   -0.00576159
     atom   46 type  1   force =     0.00712477    0.02526378   -0.00231799
     atom   47 type  1   force =     0.00197629   -0.00165961    0.01051569
     atom   48 type  1   force =     0.00001488    0.01958097   -0.00392655
     atom   49 type  1   force =    -0.00021192   -0.00058040   -0.00189766
     atom   50 type  1   force =     0.00083088   -0.02409312    0.00757465
     atom   51 type  1   force =    -0.00393561   -0.00481145    0.01251414
     atom   52 type  1   force =     0.00444485    0.00263558    0.00763196
     atom   53 type  1   force =    -0.00446762   -0.02353169    0.00402739
     atom   54 type  1   force =     0.00376854   -0.00453762    0.01556056
     atom   55 type  1   force =    -0.00497844    0.00402746    0.01683154
     atom   56 type  1   force =    -0.00006138    0.00092115    0.00051696
     atom   57 type  1   force =    -0.00390959   -0.00528448    0.01651296
     atom   58 type  1   force =     0.00213910    0.00022164    0.01233266
     atom   59 type  1   force =    -0.00043800    0.00584217    0.00354619
     atom   60 type  1   force =    -0.00114359    0.00349008    0.00869352
     atom   61 type  1   force =    -0.00232632    0.00448816    0.00468660
     atom   62 type  1   force =    -0.00075894    0.02583779    0.01289260
     atom   63 type  1   force =    -0.00654191    0.00734763    0.00623808
     atom   64 type  1   force =     0.00272438    0.02255162    0.01320675

     Total force =     0.126015     Total SCF correction =     0.001472


     Computing stress (Cartesian axis) and pressure

          total   stress  (Ry/bohr**3)                   (kbar)     P=       -0.90
  -0.00003988   0.00000742   0.00002669           -5.87        1.09        3.93
   0.00000742  -0.00000245  -0.00000305            1.09       -0.36       -0.45
   0.00002669  -0.00000305   0.00002392            3.93       -0.45        3.52

 
     init_run     :      0.87s CPU      3.94s WALL (       1 calls)
     electrons    :      1.00s CPU      1.07s WALL (       1 calls)
     forces       :      0.04s CPU      0.04s WALL (       1 calls)
     stress       :      0.16s CPU      0.16s WALL (       1 calls)

     Called by init_run:
     wfcinit      :      0.44s CPU      3.36s WALL (       1 calls)
                                        3.36s GPU  (       1 calls)
     potinit      :      0.14s CPU      0.23s WALL (       1 calls)
     hinit0       :      0.27s CPU      0.28s WALL (       1 calls)

     Called by electrons:
     c_bands      :      0.70s CPU      0.73s WALL (       9 calls)
     sum_band     :      0.17s CPU      0.20s WALL (       9 calls)
     v_of_rho     :      0.08s CPU      0.16s WALL (       9 calls)
     mix_rho      :      0.05s CPU      0.06s WALL (       9 calls)

     Called by c_bands:
     init_us_2    :      0.02s CPU      0.02s WALL (      19 calls)
     init_us_2:gp :      0.02s CPU      0.02s WALL (      19 calls)
     regterg      :      0.64s CPU      0.66s WALL (       9 calls)

     Called by *egterg:
     rdiaghg      :      0.26s CPU      0.85s WALL (      58 calls)
                                        0.84s GPU  (      58 calls)
     h_psi        :      0.70s CPU      3.04s WALL (      60 calls)
                                        3.04s GPU  (      60 calls)
     g_psi        :      0.00s CPU      0.00s WALL (      50 calls)
                                        0.00s GPU  (      50 calls)

     Called by h_psi:
     h_psi:calbec :      0.39s CPU      2.68s WALL (      60 calls)
                                        2.68s GPU  (      60 calls)
     vloc_psi     :      0.28s CPU      0.33s WALL (      60 calls)
                                        0.33s GPU  (      60 calls)
     add_vuspsi   :      0.02s CPU      0.03s WALL (      60 calls)
                                        0.03s GPU  (      60 calls)

     General routines
     calbec       :      0.39s CPU      2.68s WALL (      65 calls)
     fft          :      0.28s CPU      0.38s WALL (      79 calls)
                                        0.11s GPU  (      51 calls)
     ffts         :      0.02s CPU      0.02s WALL (       9 calls)
     fftw         :      0.31s CPU      0.42s WALL (     999 calls)
                                        0.38s GPU  (     999 calls)
 
     Parallel routines
 
     PWSCF        :      2.10s CPU      5.27s WALL

 
   This run was terminated on:  10:59:37  10May2023            

=------------------------------------------------------------------------------=
   JOB DONE.
=------------------------------------------------------------------------------=
