An instance of this daemon is already running
An instance of this daemon is already running
An instance of this daemon is already running

     Program PWSCF v.7.1 starts on 10May2023 at 11: 6:31 

     This program is part of the open-source Quantum ESPRESSO suite
     for quantum simulation of materials; please cite
         "P. Giannozzi et al., J. Phys.:Condens. Matter 21 395502 (2009);
         "P. Giannozzi et al., J. Phys.:Condens. Matter 29 465901 (2017);
         "P. Giannozzi et al., J. Chem. Phys. 152 154105 (2020);
          URL http://www.quantum-espresso.org", 
     in publications or presentations arising from this work. More details at
     http://www.quantum-espresso.org/quote

     Parallel version (MPI & OpenMP), running on       4 processor cores
     Number of MPI processes:                 4
     Threads/MPI process:                     1

     MPI processes distributed on     1 nodes
     152792 MiB available memory on the printing compute node when the environment starts
 
     Reading input from pw-si-76.in
Warning: card &CELL ignored
Warning: card / ignored

     Current dimensions of program PWSCF are:
     Max number of different atomic species (ntypx) = 10
     Max number of k-points (npk) =  40000
     Max angular momentum in pseudopotentials (lmaxx) =  4

     IMPORTANT: XC functional enforced from input :
     Exchange-correlation= PBE
                           (   1   4   3   4   0   0   0)
     Any further DFT definition will be discarded
     Please, verify this is what you really want


     gamma-point specific algorithms are used
 
     K-points division:     npool     =       2
     R & G space division:  proc/nbgrp/npool/nimage =       2
     Subspace diagonalization in iterative solution of the eigenvalue problem:
     a serial algorithm will be used

     Message from routine divide_et_impera:
     suboptimal parallelization: some nodes have no k-points
 
     Parallelization info
     --------------------
     sticks:   dense  smooth     PW     G-vecs:    dense   smooth      PW
     Min        2091    2091    550               100671   100671   13662
     Max        2094    2094    551               100674   100674   13663
     Sum        4185    4185   1101               201345   201345   27325
 
     Using Slab Decomposition
 


     bravais-lattice index     =            0
     lattice parameter (alat)  =      20.9449  a.u.
     unit-cell volume          =    9070.2570 (a.u.)^3
     number of atoms/cell      =           64
     number of atomic types    =            1
     number of electrons       =       256.00
     number of Kohn-Sham states=          154
     kinetic-energy cutoff     =      30.0000  Ry
     charge density cutoff     =     120.0000  Ry
     scf convergence threshold =      1.0E-06
     mixing beta               =       0.5000
     number of iterations used =            8  plain     mixing
     Exchange-correlation= PBE
                           (   1   4   3   4   0   0   0)

     GPU acceleration is ACTIVE.
     GPU-aware MPI enabled

     Message from routine print_cuda_info:
     High GPU oversubscription detected. Are you sure this is what you want?

     celldm(1)=  20.944877  celldm(2)=   0.000000  celldm(3)=   0.000000
     celldm(4)=   0.000000  celldm(5)=   0.000000  celldm(6)=   0.000000

     crystal axes: (cart. coord. in units of alat)
               a(1) = (   1.000000   0.000000   0.000000 )  
               a(2) = (   0.000000   0.995627   0.000000 )  
               a(3) = (   0.000000   0.000000   0.991493 )  

     reciprocal axes: (cart. coord. in units 2 pi/alat)
               b(1) = (  1.000000  0.000000  0.000000 )  
               b(2) = (  0.000000  1.004392  0.000000 )  
               b(3) = (  0.000000  0.000000  1.008580 )  


     PseudoPot. # 1 for Si read from file:
     /home/ppiaggi/pseudos/Si_ONCV_PBE_sr.upf
     MD5 check sum: 8553c464762ac42b85b1eed164b4d029
     Pseudo is Norm-conserving, Zval =  4.0
     Generated using ONCVPSP code by D. R. Hamann
     Using radial grid of 1510 points,  4 beta functions with: 
                l(1) =   0
                l(2) =   0
                l(3) =   1
                l(4) =   1

     atomic species   valence    mass     pseudopotential
        Si             4.00    28.08500     Si( 1.00)

     No symmetry found



   Cartesian axes

     site n.     atom                  positions (alat units)
         1           Si  tau(   1) = (  -0.0008220   0.0001608  -0.0000042  )
         2           Si  tau(   2) = (  -0.0003699   0.2485986   0.2471279  )
         3           Si  tau(   3) = (   0.2509337   0.0000419   0.2469784  )
         4           Si  tau(   4) = (   0.2507354   0.2492394   0.0008078  )
         5           Si  tau(   5) = (   0.1245182   0.1249022   0.1244309  )
         6           Si  tau(   6) = (   0.5001205  -0.0002774   0.0006310  )
         7           Si  tau(   7) = (   0.4995960   0.2492706   0.2467055  )
         8           Si  tau(   8) = (   0.6252205   0.1247363   0.1228234  )
         9           Si  tau(   9) = (   0.7499579   0.0000271   0.2467898  )
        10           Si  tau(  10) = (   0.7502352   0.2488969  -0.0005694  )
        11           Si  tau(  11) = (  -0.0005317   0.4983420  -0.0006510  )
        12           Si  tau(  12) = (   0.2511023   0.4983132   0.2476321  )
        13           Si  tau(  13) = (   0.1244140   0.6233070   0.1228397  )
        14           Si  tau(  14) = (   0.3760373   0.3735444   0.1233238  )
        15           Si  tau(  15) = (   0.5006477   0.4981702   0.0008513  )
        16           Si  tau(  16) = (   0.6264096   0.6232697   0.1235675  )
        17           Si  tau(  17) = (   0.8762692   0.3733051   0.1244969  )
        18           Si  tau(  18) = (   0.7507507   0.4988492   0.2467626  )
        19           Si  tau(  19) = (  -0.0007980   0.7482767   0.2481361  )
        20           Si  tau(  20) = (   0.2504577   0.7489999   0.0001350  )
        21           Si  tau(  21) = (   0.3756844   0.8728981   0.1231203  )
        22           Si  tau(  22) = (   0.4995684   0.7478348   0.2466302  )
        23           Si  tau(  23) = (   0.7510516   0.7478107   0.0001107  )
        24           Si  tau(  24) = (   0.8759074   0.8735117   0.1237479  )
        25           Si  tau(  25) = (   0.0004811  -0.0002591   0.4953494  )
        26           Si  tau(  26) = (   0.2497165   0.2486396   0.4937412  )
        27           Si  tau(  27) = (   0.1246725   0.1249325   0.6185545  )
        28           Si  tau(  28) = (   0.3747530   0.1255305   0.3709965  )
        29           Si  tau(  29) = (   0.5002306   0.0000709   0.4944281  )
        30           Si  tau(  30) = (   0.6251126   0.1244878   0.6182582  )
        31           Si  tau(  31) = (   0.8753327   0.1242259   0.3703111  )
        32           Si  tau(  32) = (   0.7508983   0.2496035   0.4947930  )
        33           Si  tau(  33) = (   0.1245000   0.3743954   0.3704226  )
        34           Si  tau(  34) = (  -0.0002873   0.4987518   0.4939244  )
        35           Si  tau(  35) = (   0.1252352   0.6227738   0.6188069  )
        36           Si  tau(  36) = (   0.6249512   0.3740354   0.3702110  )
        37           Si  tau(  37) = (   0.3758155   0.6227474   0.3718047  )
        38           Si  tau(  38) = (   0.3751935   0.3747855   0.6189136  )
        39           Si  tau(  39) = (   0.4995841   0.4995838   0.4944974  )
        40           Si  tau(  40) = (   0.6259842   0.6230308   0.6182618  )
        41           Si  tau(  41) = (   0.8757908   0.6229754   0.3716100  )
        42           Si  tau(  42) = (   0.8765871   0.3737499   0.6179266  )
        43           Si  tau(  43) = (   0.1256224   0.8730471   0.3703588  )
        44           Si  tau(  44) = (   0.2498536   0.7476842   0.4942774  )
        45           Si  tau(  45) = (   0.6258674   0.8734410   0.3713985  )
        46           Si  tau(  46) = (   0.3750892   0.8729515   0.6178116  )
        47           Si  tau(  47) = (   0.7513752   0.7485792   0.4941606  )
        48           Si  tau(  48) = (   0.8750140   0.8726846   0.6191252  )
        49           Si  tau(  49) = (  -0.0005142   0.2499420   0.7415082  )
        50           Si  tau(  50) = (   0.2502568   0.0007261   0.7423325  )
        51           Si  tau(  51) = (   0.3757307   0.1246380   0.8664239  )
        52           Si  tau(  52) = (   0.5000770   0.2503028   0.7411202  )
        53           Si  tau(  53) = (   0.7512627  -0.0002206   0.7427730  )
        54           Si  tau(  54) = (   0.8763265   0.1245710   0.8661515  )
        55           Si  tau(  55) = (   0.1249173   0.3745349   0.8661007  )
        56           Si  tau(  56) = (   0.2495622   0.4993952   0.7425132  )
        57           Si  tau(  57) = (   0.6258469   0.3740070   0.8658971  )
        58           Si  tau(  58) = (   0.3753021   0.6238220   0.8651068  )
        59           Si  tau(  59) = (   0.7501582   0.4981384   0.7419783  )
        60           Si  tau(  60) = (   0.8762704   0.6242813   0.8647131  )
        61           Si  tau(  61) = (   0.0001814   0.7478689   0.7420011  )
        62           Si  tau(  62) = (   0.1247326   0.8725543   0.8650366  )
        63           Si  tau(  63) = (   0.5002707   0.7476398   0.7411655  )
        64           Si  tau(  64) = (   0.6248643   0.8738813   0.8655665  )

     number of k points=     1  Fermi-Dirac smearing, width (Ry)=  0.0100
                       cart. coord. in units 2pi/alat
        k(    1) = (   0.0000000   0.0000000   0.0000000), wk =   2.0000000

     Dense  grid:   100673 G-vectors     FFT dimensions: (  75,  75,  75)

     Estimated max dynamical RAM per process >     161.71 MB

     Estimated total dynamical RAM >     622.28 MB

     Initial potential from superposition of free atoms

     starting charge     255.9608, renormalised to     256.0000
     Starting wfcs are  256 randomized atomic wfcs

     total cpu time spent up to now is        4.1 secs

     Self-consistent Calculation

     iteration #  1     ecut=    30.00 Ry     beta= 0.50
     Davidson diagonalization with overlap
     ethr =  1.00E-02,  avg # of iterations =  3.0

     Threshold (ethr) on eigenvalues was too large:
     Diagonalizing with lowered threshold

     Davidson diagonalization with overlap
     ethr =  6.31E-04,  avg # of iterations =  3.0

     total cpu time spent up to now is        4.3 secs

     total energy              =    -503.98626471 Ry
     estimated scf accuracy    <       1.79456328 Ry

     iteration #  2     ecut=    30.00 Ry     beta= 0.50
     Davidson diagonalization with overlap
     ethr =  7.01E-04,  avg # of iterations =  1.0

     total cpu time spent up to now is        4.4 secs

     total energy              =    -503.96690972 Ry
     estimated scf accuracy    <       0.34277212 Ry

     iteration #  3     ecut=    30.00 Ry     beta= 0.50
     Davidson diagonalization with overlap
     ethr =  1.34E-04,  avg # of iterations =  4.0

     total cpu time spent up to now is        4.6 secs

     total energy              =    -503.98857891 Ry
     estimated scf accuracy    <       0.00567116 Ry

     iteration #  4     ecut=    30.00 Ry     beta= 0.50
     Davidson diagonalization with overlap
     c_bands:  1 eigenvalues not converged
     ethr =  2.22E-06,  avg # of iterations = 20.0

     total cpu time spent up to now is        4.8 secs

     total energy              =    -503.99094744 Ry
     estimated scf accuracy    <       0.00191990 Ry

     iteration #  5     ecut=    30.00 Ry     beta= 0.50
     Davidson diagonalization with overlap
     ethr =  7.50E-07,  avg # of iterations =  6.0

     total cpu time spent up to now is        4.9 secs

     total energy              =    -503.99138484 Ry
     estimated scf accuracy    <       0.00032000 Ry

     iteration #  6     ecut=    30.00 Ry     beta= 0.50
     Davidson diagonalization with overlap
     ethr =  1.25E-07,  avg # of iterations =  2.0

     total cpu time spent up to now is        5.0 secs

     total energy              =    -503.99142346 Ry
     estimated scf accuracy    <       0.00002741 Ry

     iteration #  7     ecut=    30.00 Ry     beta= 0.50
     Davidson diagonalization with overlap
     ethr =  1.07E-08,  avg # of iterations =  5.0

     total cpu time spent up to now is        5.1 secs

     total energy              =    -503.99142885 Ry
     estimated scf accuracy    <       0.00000216 Ry

     iteration #  8     ecut=    30.00 Ry     beta= 0.50
     Davidson diagonalization with overlap
     ethr =  8.44E-10,  avg # of iterations =  4.0

     total cpu time spent up to now is        5.3 secs

     End of self-consistent calculation

          k = 0.0000 0.0000 0.0000 ( 12607 PWs)   bands (ev):

    -5.8716  -4.8617  -4.8490  -4.8400  -4.8253  -4.8174  -4.8050  -3.9648
    -3.9557  -3.9381  -3.9351  -3.9229  -3.9196  -3.9153  -3.9029  -3.8984
    -3.8910  -3.8783  -3.8712  -3.6842  -3.6573  -3.6495  -3.6234  -1.9386
    -1.9195  -1.9077  -1.8906  -1.8760  -1.8585  -1.7898  -1.7785  -1.7688
    -1.7621  -1.7588  -1.7537  -1.7467  -1.7417  -1.7379  -1.7289  -1.7259
    -1.7117  -1.0094  -0.9874  -0.9781  -0.9594   0.3435   0.3499   0.3524
     0.3622   0.3633   0.3675   0.3769   0.3826   0.3864   0.3929   0.3964
     0.4154   2.0892   2.0922   2.0987   2.0997   2.1049   2.1084   2.1117
     2.1145   2.1181   2.1188   2.1246   2.1289   2.1602   2.1702   2.1720
     2.1829   2.1871   2.1884   2.1943   2.2037   2.2123   2.2153   2.2256
     2.2330   2.2388   2.2499   2.2522   2.2631   2.2741   2.2860   3.0110
     3.0168   3.0396   3.0508   3.0759   3.0831   3.9255   3.9291   3.9390
     3.9561   3.9577   3.9668   3.9797   3.9932   3.9938   3.9963   4.0171
     4.0181   4.4456   4.4496   4.4633   4.4680   4.4828   4.4974   4.5054
     4.5171   4.5207   4.5428   4.5448   4.5594   4.5691   4.5791   4.5891
     4.6277   4.6400   4.6631   4.6705   4.6820   5.7428   5.7842   5.8169
     6.5040   6.5134   6.5419   6.5548   6.5895   6.5971   6.8860   6.9021
     6.9247   6.9346   6.9553   6.9718   7.1170   7.1210   7.1239   7.1298
     8.1133   8.1182   8.1249   8.1393   8.1486   8.1739   8.1753   8.1787
     8.1818   8.2181

     the Fermi energy is     6.1099 ev

!    total energy              =    -503.99142956 Ry
     estimated scf accuracy    <       0.00000065 Ry
     smearing contrib. (-TS)   =      -0.03927543 Ry
     internal energy E=F+TS    =    -503.95215413 Ry

     The total energy is F=E-TS. E is the sum of the following terms:
     one-electron contribution =     140.54501580 Ry
     hartree contribution      =      37.28563865 Ry
     xc contribution           =    -152.81215275 Ry
     ewald contribution        =    -528.97065583 Ry

     convergence has been achieved in   8 iterations

     Forces acting on atoms (cartesian axes, Ry/au):

     atom    1 type  1   force =     0.00935757    0.00466281   -0.00616266
     atom    2 type  1   force =     0.00347376    0.00237720    0.00384734
     atom    3 type  1   force =    -0.00213905    0.00645598    0.00036715
     atom    4 type  1   force =    -0.00426822    0.00005865   -0.00913868
     atom    5 type  1   force =     0.00378583   -0.00240244   -0.00515420
     atom    6 type  1   force =     0.00176330    0.00761007   -0.01000368
     atom    7 type  1   force =     0.00440444   -0.00120427    0.00146159
     atom    8 type  1   force =    -0.00080677    0.00049604    0.00280037
     atom    9 type  1   force =     0.00066961    0.00662244    0.00006792
     atom   10 type  1   force =     0.00337774    0.00225489   -0.00322451
     atom   11 type  1   force =     0.00148590    0.00156352   -0.00385738
     atom   12 type  1   force =    -0.00392149    0.00200069   -0.00414428
     atom   13 type  1   force =     0.00360140    0.00065143    0.00443809
     atom   14 type  1   force =    -0.00372502    0.00278253    0.00183952
     atom   15 type  1   force =     0.00042951    0.00387101   -0.01186527
     atom   16 type  1   force =    -0.00394598    0.00121158   -0.00079566
     atom   17 type  1   force =    -0.00661159    0.00167521   -0.00717851
     atom   18 type  1   force =     0.00053884   -0.00231929    0.00390895
     atom   19 type  1   force =     0.00608330   -0.00160230   -0.00431871
     atom   20 type  1   force =    -0.00279388   -0.00448075   -0.00903806
     atom   21 type  1   force =    -0.00239796   -0.00591487    0.00227364
     atom   22 type  1   force =     0.00636054   -0.00015752    0.00486301
     atom   23 type  1   force =    -0.00149867    0.00424125   -0.00929583
     atom   24 type  1   force =    -0.00551553   -0.00980948    0.00030174
     atom   25 type  1   force =    -0.00137422    0.00520531   -0.00297503
     atom   26 type  1   force =    -0.00088063    0.00763973    0.00654982
     atom   27 type  1   force =     0.00238113    0.00081674   -0.00026100
     atom   28 type  1   force =     0.00352810   -0.00445068   -0.00200971
     atom   29 type  1   force =    -0.00107005    0.00714121    0.00032829
     atom   30 type  1   force =     0.00342453    0.00162675    0.00116545
     atom   31 type  1   force =    -0.00137715   -0.00002503    0.00463139
     atom   32 type  1   force =    -0.00285279   -0.00177954   -0.00265669
     atom   33 type  1   force =     0.00251130   -0.00307202   -0.00057495
     atom   34 type  1   force =     0.00567237   -0.00088525    0.00491424
     atom   35 type  1   force =    -0.00218834    0.00282092   -0.00452965
     atom   36 type  1   force =     0.00060107    0.00138208    0.00274615
     atom   37 type  1   force =    -0.00422028    0.00507260   -0.00567267
     atom   38 type  1   force =    -0.00510078   -0.00110664   -0.00562023
     atom   39 type  1   force =     0.00659000   -0.00638174    0.00284185
     atom   40 type  1   force =    -0.00051795    0.00229187   -0.00283813
     atom   41 type  1   force =    -0.00456115    0.00225363   -0.00422018
     atom   42 type  1   force =    -0.00816902    0.00362815    0.00005221
     atom   43 type  1   force =    -0.00133423   -0.00663162    0.00256305
     atom   44 type  1   force =     0.00069858    0.00024146    0.00169895
     atom   45 type  1   force =    -0.00403181   -0.00978441   -0.00507333
     atom   46 type  1   force =    -0.00124506   -0.00617584    0.00125949
     atom   47 type  1   force =    -0.00417078   -0.00318783    0.00393139
     atom   48 type  1   force =     0.00299899   -0.00558403   -0.00292033
     atom   49 type  1   force =     0.00655361   -0.00213202    0.00522575
     atom   50 type  1   force =    -0.00003219    0.00321182   -0.00039034
     atom   51 type  1   force =    -0.00032675    0.00300363    0.00320361
     atom   52 type  1   force =     0.00175825   -0.00413612    0.00635256
     atom   53 type  1   force =    -0.00474358    0.00958735   -0.00100955
     atom   54 type  1   force =    -0.00492944    0.00293515    0.00283769
     atom   55 type  1   force =     0.00165641   -0.00385327    0.00500335
     atom   56 type  1   force =     0.00264243   -0.00361967    0.00112214
     atom   57 type  1   force =    -0.00324658   -0.00038732    0.00490918
     atom   58 type  1   force =     0.00133368   -0.00125665    0.01145146
     atom   59 type  1   force =     0.00529100    0.00185878   -0.00002820
     atom   60 type  1   force =    -0.00679475   -0.00604534    0.00936026
     atom   61 type  1   force =     0.00263889    0.00071228   -0.00270129
     atom   62 type  1   force =     0.00164980   -0.00177939    0.00971355
     atom   63 type  1   force =     0.00178726    0.00334159    0.00223369
     atom   64 type  1   force =     0.00174253   -0.01314105    0.00739392

     Total force =     0.061457     Total SCF correction =     0.001429


     Computing stress (Cartesian axis) and pressure

          total   stress  (Ry/bohr**3)                   (kbar)     P=      -13.52
  -0.00011525   0.00000479  -0.00000786          -16.95        0.70       -1.16
   0.00000479  -0.00009092  -0.00000677            0.70      -13.37       -1.00
  -0.00000786  -0.00000677  -0.00006952           -1.16       -1.00      -10.23

 
     init_run     :      0.76s CPU      4.07s WALL (       1 calls)
     electrons    :      1.03s CPU      1.16s WALL (       1 calls)
     forces       :      0.04s CPU      0.04s WALL (       1 calls)
     stress       :      0.15s CPU      0.16s WALL (       1 calls)

     Called by init_run:
     wfcinit      :      0.42s CPU      3.57s WALL (       1 calls)
                                        3.57s GPU  (       1 calls)
     potinit      :      0.15s CPU      0.22s WALL (       1 calls)
     hinit0       :      0.17s CPU      0.20s WALL (       1 calls)

     Called by electrons:
     c_bands      :      0.74s CPU      0.79s WALL (       9 calls)
     sum_band     :      0.17s CPU      0.22s WALL (       9 calls)
     v_of_rho     :      0.07s CPU      0.15s WALL (       9 calls)
     mix_rho      :      0.05s CPU      0.06s WALL (       9 calls)

     Called by c_bands:
     init_us_2    :      0.02s CPU      0.03s WALL (      19 calls)
     init_us_2:gp :      0.02s CPU      0.02s WALL (      19 calls)
     regterg      :      0.66s CPU      0.71s WALL (       9 calls)

     Called by *egterg:
     rdiaghg      :      0.27s CPU      0.92s WALL (      56 calls)
                                        0.90s GPU  (      56 calls)
     h_psi        :      0.71s CPU      3.22s WALL (      58 calls)
                                        3.22s GPU  (      58 calls)
     g_psi        :      0.00s CPU      0.00s WALL (      48 calls)
                                        0.00s GPU  (      48 calls)

     Called by h_psi:
     h_psi:calbec :      0.37s CPU      2.82s WALL (      58 calls)
                                        2.82s GPU  (      58 calls)
     vloc_psi     :      0.30s CPU      0.36s WALL (      58 calls)
                                        0.36s GPU  (      58 calls)
     add_vuspsi   :      0.02s CPU      0.03s WALL (      58 calls)
                                        0.03s GPU  (      58 calls)

     General routines
     calbec       :      0.38s CPU      2.82s WALL (      63 calls)
     fft          :      0.18s CPU      0.28s WALL (      79 calls)
                                        0.09s GPU  (      51 calls)
     ffts         :      0.02s CPU      0.02s WALL (       9 calls)
     fftw         :      0.33s CPU      0.47s WALL (    1003 calls)
                                        0.43s GPU  (    1003 calls)
 
     Parallel routines
 
     PWSCF        :      2.03s CPU      5.50s WALL

 
   This run was terminated on:  11: 6:36  10May2023            

=------------------------------------------------------------------------------=
   JOB DONE.
=------------------------------------------------------------------------------=
