An instance of this daemon is already running
An instance of this daemon is already running

     Program PWSCF v.7.1 starts on 10May2023 at 10:57:52 

     This program is part of the open-source Quantum ESPRESSO suite
     for quantum simulation of materials; please cite
         "P. Giannozzi et al., J. Phys.:Condens. Matter 21 395502 (2009);
         "P. Giannozzi et al., J. Phys.:Condens. Matter 29 465901 (2017);
         "P. Giannozzi et al., J. Chem. Phys. 152 154105 (2020);
          URL http://www.quantum-espresso.org", 
     in publications or presentations arising from this work. More details at
     http://www.quantum-espresso.org/quote

     Parallel version (MPI & OpenMP), running on       4 processor cores
     Number of MPI processes:                 4
     Threads/MPI process:                     1

     MPI processes distributed on     1 nodes
     152776 MiB available memory on the printing compute node when the environment starts
 
     Reading input from pw-si-13.in
Warning: card &CELL ignored
Warning: card / ignored

     Current dimensions of program PWSCF are:
     Max number of different atomic species (ntypx) = 10
     Max number of k-points (npk) =  40000
     Max angular momentum in pseudopotentials (lmaxx) =  4

     IMPORTANT: XC functional enforced from input :
     Exchange-correlation= PBE
                           (   1   4   3   4   0   0   0)
     Any further DFT definition will be discarded
     Please, verify this is what you really want


     gamma-point specific algorithms are used
 
     K-points division:     npool     =       2
     R & G space division:  proc/nbgrp/npool/nimage =       2
     Subspace diagonalization in iterative solution of the eigenvalue problem:
     a serial algorithm will be used

     Message from routine divide_et_impera:
     suboptimal parallelization: some nodes have no k-points
 
     Parallelization info
     --------------------
     sticks:   dense  smooth     PW     G-vecs:    dense   smooth      PW
     Min        2029    2029    542                98077    98077   13374
     Max        2034    2034    543                98078    98078   13379
     Sum        4063    4063   1085               196155   196155   26753
 
     Using Slab Decomposition
 


     bravais-lattice index     =            0
     lattice parameter (alat)  =      20.6914  a.u.
     unit-cell volume          =    8840.0897 (a.u.)^3
     number of atoms/cell      =           64
     number of atomic types    =            1
     number of electrons       =       256.00
     number of Kohn-Sham states=          154
     kinetic-energy cutoff     =      30.0000  Ry
     charge density cutoff     =     120.0000  Ry
     scf convergence threshold =      1.0E-06
     mixing beta               =       0.5000
     number of iterations used =            8  plain     mixing
     Exchange-correlation= PBE
                           (   1   4   3   4   0   0   0)

     GPU acceleration is ACTIVE.
     GPU-aware MPI enabled

     Message from routine print_cuda_info:
     High GPU oversubscription detected. Are you sure this is what you want?

     celldm(1)=  20.691432  celldm(2)=   0.000000  celldm(3)=   0.000000
     celldm(4)=   0.000000  celldm(5)=   0.000000  celldm(6)=   0.000000

     crystal axes: (cart. coord. in units of alat)
               a(1) = (   1.000000   0.000000   0.000000 )  
               a(2) = (   0.000000   0.995969   0.000000 )  
               a(3) = (   0.000000   0.000000   1.001934 )  

     reciprocal axes: (cart. coord. in units 2 pi/alat)
               b(1) = (  1.000000  0.000000  0.000000 )  
               b(2) = (  0.000000  1.004047  0.000000 )  
               b(3) = (  0.000000  0.000000  0.998070 )  


     PseudoPot. # 1 for Si read from file:
     /home/ppiaggi/pseudos/Si_ONCV_PBE_sr.upf
     MD5 check sum: 8553c464762ac42b85b1eed164b4d029
     Pseudo is Norm-conserving, Zval =  4.0
     Generated using ONCVPSP code by D. R. Hamann
     Using radial grid of 1510 points,  4 beta functions with: 
                l(1) =   0
                l(2) =   0
                l(3) =   1
                l(4) =   1

     atomic species   valence    mass     pseudopotential
        Si             4.00    28.08500     Si( 1.00)

     No symmetry found



   Cartesian axes

     site n.     atom                  positions (alat units)
         1           Si  tau(   1) = (   0.0004386  -0.0004406   0.0002257  )
         2           Si  tau(   2) = (   0.0002733   0.2497690   0.2496757  )
         3           Si  tau(   3) = (   0.2499475  -0.0000498   0.2499027  )
         4           Si  tau(   4) = (   0.2488090   0.2499698  -0.0002785  )
         5           Si  tau(   5) = (   0.1241330   0.1249486   0.1241694  )
         6           Si  tau(   6) = (   0.4991961  -0.0005423   0.0007246  )
         7           Si  tau(   7) = (   0.4987045   0.2496966   0.2510419  )
         8           Si  tau(   8) = (   0.6245118   0.1255175   0.1251632  )
         9           Si  tau(   9) = (   0.7487919  -0.0008494   0.2505657  )
        10           Si  tau(  10) = (   0.7483697   0.2489236   0.0005714  )
        11           Si  tau(  11) = (   0.0008501   0.4986593   0.0006688  )
        12           Si  tau(  12) = (   0.2499480   0.4977531   0.2505208  )
        13           Si  tau(  13) = (   0.1254714   0.6230258   0.1249742  )
        14           Si  tau(  14) = (   0.3737494   0.3735133   0.1258193  )
        15           Si  tau(  15) = (   0.5001629   0.4991322   0.0008910  )
        16           Si  tau(  16) = (   0.6234591   0.6229985   0.1254512  )
        17           Si  tau(  17) = (   0.8730408   0.3747262   0.1247946  )
        18           Si  tau(  18) = (   0.7484824   0.4984907   0.2503413  )
        19           Si  tau(  19) = (  -0.0007512   0.7482096   0.2502691  )
        20           Si  tau(  20) = (   0.2505137   0.7485261  -0.0000189  )
        21           Si  tau(  21) = (   0.3740733   0.8717471   0.1253230  )
        22           Si  tau(  22) = (   0.4997580   0.7485893   0.2497828  )
        23           Si  tau(  23) = (   0.7483381   0.7486556   0.0003259  )
        24           Si  tau(  24) = (   0.8745184   0.8731086   0.1245569  )
        25           Si  tau(  25) = (  -0.0007495  -0.0006718   0.5000655  )
        26           Si  tau(  26) = (   0.2488287   0.2488072   0.5010683  )
        27           Si  tau(  27) = (   0.1257322   0.1239844   0.6262136  )
        28           Si  tau(  28) = (   0.3749059   0.1248393   0.3757227  )
        29           Si  tau(  29) = (   0.4996569  -0.0004446   0.4995672  )
        30           Si  tau(  30) = (   0.6248837   0.1250416   0.6250374  )
        31           Si  tau(  31) = (   0.8732133   0.1250628   0.3757108  )
        32           Si  tau(  32) = (   0.7491811   0.2492856   0.5001700  )
        33           Si  tau(  33) = (   0.1241633   0.3734005   0.3758008  )
        34           Si  tau(  34) = (  -0.0004981   0.4979357   0.5006845  )
        35           Si  tau(  35) = (   0.1249839   0.6223447   0.6253224  )
        36           Si  tau(  36) = (   0.6236559   0.3733736   0.3748977  )
        37           Si  tau(  37) = (   0.3741181   0.6224403   0.3745136  )
        38           Si  tau(  38) = (   0.3742917   0.3742378   0.6254633  )
        39           Si  tau(  39) = (   0.4989565   0.4992228   0.4997714  )
        40           Si  tau(  40) = (   0.6235860   0.6226312   0.6248353  )
        41           Si  tau(  41) = (   0.8745245   0.6238603   0.3747561  )
        42           Si  tau(  42) = (   0.8737167   0.3733493   0.6262065  )
        43           Si  tau(  43) = (   0.1247367   0.8716457   0.3748519  )
        44           Si  tau(  44) = (   0.2502015   0.7480430   0.4998514  )
        45           Si  tau(  45) = (   0.6240572   0.8723342   0.3748498  )
        46           Si  tau(  46) = (   0.3742343   0.8718213   0.6249986  )
        47           Si  tau(  47) = (   0.7493922   0.7483198   0.5009297  )
        48           Si  tau(  48) = (   0.8732840   0.8723398   0.6245316  )
        49           Si  tau(  49) = (  -0.0006299   0.2493186   0.7501821  )
        50           Si  tau(  50) = (   0.2498789   0.0002633   0.7495751  )
        51           Si  tau(  51) = (   0.3748594   0.1244521   0.8751878  )
        52           Si  tau(  52) = (   0.4984670   0.2499251   0.7496910  )
        53           Si  tau(  53) = (   0.7489608  -0.0001154   0.7496847  )
        54           Si  tau(  54) = (   0.8728805   0.1251388   0.8748392  )
        55           Si  tau(  55) = (   0.1249414   0.3735607   0.8761426  )
        56           Si  tau(  56) = (   0.2497799   0.4981884   0.7500282  )
        57           Si  tau(  57) = (   0.6234943   0.3735507   0.8756404  )
        58           Si  tau(  58) = (   0.3752129   0.6231916   0.8759520  )
        59           Si  tau(  59) = (   0.7487970   0.4983434   0.7500711  )
        60           Si  tau(  60) = (   0.8741457   0.6234537   0.8746471  )
        61           Si  tau(  61) = (   0.0006198   0.7479255   0.7512884  )
        62           Si  tau(  62) = (   0.1256026   0.8715158   0.8761952  )
        63           Si  tau(  63) = (   0.4991923   0.7470328   0.7513175  )
        64           Si  tau(  64) = (   0.6241009   0.8718531   0.8746536  )

     number of k points=     1  Fermi-Dirac smearing, width (Ry)=  0.0100
                       cart. coord. in units 2pi/alat
        k(    1) = (   0.0000000   0.0000000   0.0000000), wk =   2.0000000

     Dense  grid:    98078 G-vectors     FFT dimensions: (  75,  72,  75)

     Estimated max dynamical RAM per process >     157.46 MB

     Estimated total dynamical RAM >     605.89 MB

     Initial potential from superposition of free atoms

     starting charge     255.9608, renormalised to     256.0000
     Starting wfcs are  256 randomized atomic wfcs

     total cpu time spent up to now is        4.3 secs

     Self-consistent Calculation

     iteration #  1     ecut=    30.00 Ry     beta= 0.50
     Davidson diagonalization with overlap
     ethr =  1.00E-02,  avg # of iterations =  3.0

     Threshold (ethr) on eigenvalues was too large:
     Diagonalizing with lowered threshold

     Davidson diagonalization with overlap
     ethr =  6.60E-04,  avg # of iterations =  2.0

     total cpu time spent up to now is        4.5 secs

     total energy              =    -503.98785500 Ry
     estimated scf accuracy    <       1.87178387 Ry

     iteration #  2     ecut=    30.00 Ry     beta= 0.50
     Davidson diagonalization with overlap
     ethr =  7.31E-04,  avg # of iterations =  2.0

     total cpu time spent up to now is        4.6 secs

     total energy              =    -503.96838357 Ry
     estimated scf accuracy    <       0.35041658 Ry

     iteration #  3     ecut=    30.00 Ry     beta= 0.50
     Davidson diagonalization with overlap
     ethr =  1.37E-04,  avg # of iterations =  4.0

     total cpu time spent up to now is        4.7 secs

     total energy              =    -503.99190538 Ry
     estimated scf accuracy    <       0.00601307 Ry

     iteration #  4     ecut=    30.00 Ry     beta= 0.50
     Davidson diagonalization with overlap
     c_bands:  1 eigenvalues not converged
     ethr =  2.35E-06,  avg # of iterations = 20.0

     total cpu time spent up to now is        4.9 secs

     total energy              =    -503.99396073 Ry
     estimated scf accuracy    <       0.00311273 Ry

     iteration #  5     ecut=    30.00 Ry     beta= 0.50
     Davidson diagonalization with overlap
     ethr =  1.22E-06,  avg # of iterations =  3.0

     total cpu time spent up to now is        5.0 secs

     total energy              =    -503.99457841 Ry
     estimated scf accuracy    <       0.00030116 Ry

     iteration #  6     ecut=    30.00 Ry     beta= 0.50
     Davidson diagonalization with overlap
     ethr =  1.18E-07,  avg # of iterations =  2.0

     total cpu time spent up to now is        5.1 secs

     total energy              =    -503.99461690 Ry
     estimated scf accuracy    <       0.00003466 Ry

     iteration #  7     ecut=    30.00 Ry     beta= 0.50
     Davidson diagonalization with overlap
     ethr =  1.35E-08,  avg # of iterations =  4.0

     total cpu time spent up to now is        5.2 secs

     total energy              =    -503.99462159 Ry
     estimated scf accuracy    <       0.00000447 Ry

     iteration #  8     ecut=    30.00 Ry     beta= 0.50
     Davidson diagonalization with overlap
     ethr =  1.75E-09,  avg # of iterations =  4.0

     total cpu time spent up to now is        5.3 secs

     End of self-consistent calculation

          k = 0.0000 0.0000 0.0000 ( 12260 PWs)   bands (ev):

    -5.7833  -4.7409  -4.7349  -4.7286  -4.7150  -4.7108  -4.6978  -3.8113
    -3.8087  -3.8033  -3.7970  -3.7890  -3.7791  -3.7761  -3.7757  -3.7703
    -3.7606  -3.7483  -3.7420  -3.5203  -3.5145  -3.5046  -3.4741  -1.7519
    -1.7392  -1.7193  -1.7156  -1.6969  -1.6948  -1.5929  -1.5824  -1.5758
    -1.5704  -1.5660  -1.5643  -1.5561  -1.5528  -1.5490  -1.5418  -1.5407
    -1.5260  -0.8612  -0.8393  -0.8304  -0.8253   0.5640   0.5681   0.5738
     0.5763   0.5831   0.5888   0.5934   0.5979   0.6011   0.6033   0.6121
     0.6177   2.2542   2.2552   2.2572   2.2594   2.2615   2.2649   2.2653
     2.2675   2.2702   2.2733   2.2773   2.2824   2.3356   2.3397   2.3480
     2.3526   2.3548   2.3588   2.3626   2.3663   2.3719   2.3806   2.3880
     2.3935   2.4872   2.5011   2.5061   2.5129   2.5323   2.5441   3.2138
     3.2149   3.2409   3.2480   3.2554   3.2669   4.1454   4.1478   4.1696
     4.1744   4.1826   4.1856   4.1885   4.1897   4.1969   4.2077   4.2147
     4.2283   4.6804   4.6945   4.7148   4.7207   4.7248   4.7310   4.7349
     4.7431   4.7521   4.7541   4.7561   4.7746   4.8131   4.8275   4.8484
     4.8544   4.8698   4.8769   4.8914   4.9281   6.0187   6.0310   6.0715
     6.7270   6.7316   6.7625   6.7723   6.7819   6.7996   7.1315   7.1452
     7.1671   7.1772   7.1838   7.1943   7.4686   7.4700   7.4732   7.4774
     8.4009   8.4055   8.4250   8.4292   8.4453   8.4469   8.4544   8.4624
     8.4681   8.4691

     the Fermi energy is     6.3465 ev

!    total energy              =    -503.99462288 Ry
     estimated scf accuracy    <       0.00000085 Ry
     smearing contrib. (-TS)   =      -0.04339703 Ry
     internal energy E=F+TS    =    -503.95122586 Ry

     The total energy is F=E-TS. E is the sum of the following terms:
     one-electron contribution =     146.67764686 Ry
     hartree contribution      =      36.54670381 Ry
     xc contribution           =    -153.65171922 Ry
     ewald contribution        =    -533.52385732 Ry

     convergence has been achieved in   8 iterations

     Forces acting on atoms (cartesian axes, Ry/au):

     atom    1 type  1   force =    -0.00629552    0.00719417   -0.01092536
     atom    2 type  1   force =    -0.00976558   -0.00167859    0.00092450
     atom    3 type  1   force =    -0.00320644    0.00591547    0.00093527
     atom    4 type  1   force =     0.00586115   -0.00583823   -0.00361291
     atom    5 type  1   force =     0.00382168   -0.00094157    0.00384230
     atom    6 type  1   force =     0.00242075    0.00537916   -0.00749458
     atom    7 type  1   force =     0.00169887   -0.00316759   -0.00498802
     atom    8 type  1   force =    -0.00470866   -0.00612754    0.00428196
     atom    9 type  1   force =     0.00259756    0.00984413   -0.00306844
     atom   10 type  1   force =     0.00303656    0.00411128   -0.00847615
     atom   11 type  1   force =    -0.00871945    0.00100084   -0.00852734
     atom   12 type  1   force =    -0.00549809    0.00076152    0.00020055
     atom   13 type  1   force =    -0.00079996    0.00325095    0.00294027
     atom   14 type  1   force =     0.00384773    0.00198580   -0.00510509
     atom   15 type  1   force =    -0.00641932   -0.00635947   -0.00561488
     atom   16 type  1   force =     0.00591730    0.00435852   -0.00007008
     atom   17 type  1   force =     0.00715009   -0.00250635    0.00048690
     atom   18 type  1   force =     0.00148941    0.00208485    0.00120527
     atom   19 type  1   force =     0.00200814   -0.00270780   -0.00544848
     atom   20 type  1   force =    -0.00170689   -0.00782118   -0.00298379
     atom   21 type  1   force =     0.00278465    0.00175964   -0.00028350
     atom   22 type  1   force =    -0.00414156   -0.00651320    0.00272897
     atom   23 type  1   force =     0.00460292   -0.00569288   -0.00630877
     atom   24 type  1   force =    -0.00091579   -0.00572154    0.00228193
     atom   25 type  1   force =     0.00161688    0.00726586    0.00073562
     atom   26 type  1   force =     0.00416671    0.00154851   -0.00159337
     atom   27 type  1   force =    -0.01099844    0.00089199   -0.00466862
     atom   28 type  1   force =    -0.00464210   -0.00151229   -0.00052943
     atom   29 type  1   force =     0.00005184    0.00518051    0.00542690
     atom   30 type  1   force =    -0.00578280   -0.00114482   -0.00026988
     atom   31 type  1   force =     0.00789222   -0.00216694   -0.00519571
     atom   32 type  1   force =    -0.00077964    0.00270005    0.00125384
     atom   33 type  1   force =     0.00195654    0.00117034   -0.00129382
     atom   34 type  1   force =    -0.00413930    0.00199494   -0.00050648
     atom   35 type  1   force =    -0.00065606    0.00497584   -0.00090679
     atom   36 type  1   force =     0.00188780    0.00408306    0.00374839
     atom   37 type  1   force =     0.00296035    0.00651117   -0.00018333
     atom   38 type  1   force =    -0.00105750    0.00017539   -0.00488839
     atom   39 type  1   force =     0.00024244   -0.00548782    0.00016643
     atom   40 type  1   force =     0.00267977    0.00327647    0.00219334
     atom   41 type  1   force =    -0.00148064   -0.00413890    0.00409419
     atom   42 type  1   force =     0.00216873    0.00239153   -0.00495638
     atom   43 type  1   force =    -0.00037414    0.00139397    0.00055053
     atom   44 type  1   force =    -0.00390077   -0.00613189    0.00071671
     atom   45 type  1   force =     0.00206133   -0.00524840    0.00259391
     atom   46 type  1   force =     0.00444025   -0.00157132    0.00142637
     atom   47 type  1   force =    -0.00378277   -0.00563000   -0.00520684
     atom   48 type  1   force =     0.00970710   -0.00358928    0.00746907
     atom   49 type  1   force =     0.00156176   -0.00182936    0.00388177
     atom   50 type  1   force =     0.00157498   -0.00239075    0.00791584
     atom   51 type  1   force =    -0.00240429    0.00157118    0.00628743
     atom   52 type  1   force =     0.00471167   -0.00379722    0.00257250
     atom   53 type  1   force =    -0.00049484    0.00335508    0.00221294
     atom   54 type  1   force =     0.00747349   -0.00431062    0.00820615
     atom   55 type  1   force =    -0.00361715    0.00318839   -0.00168045
     atom   56 type  1   force =     0.00014012    0.00135335    0.00654402
     atom   57 type  1   force =     0.00189511    0.00180934    0.00381293
     atom   58 type  1   force =    -0.00417549   -0.00322504    0.00417723
     atom   59 type  1   force =    -0.00065916   -0.00028662    0.00323590
     atom   60 type  1   force =     0.00146851   -0.00103812    0.01100534
     atom   61 type  1   force =    -0.00557470   -0.00049522   -0.00680756
     atom   62 type  1   force =    -0.00061728    0.00381477    0.00011713
     atom   63 type  1   force =     0.00020819    0.00129645   -0.00650235
     atom   64 type  1   force =    -0.00078825    0.00147603    0.00792439

     Total force =     0.059895     Total SCF correction =     0.001700


     Computing stress (Cartesian axis) and pressure

          total   stress  (Ry/bohr**3)                   (kbar)     P=        8.73
   0.00005598   0.00000846   0.00000083            8.23        1.24        0.12
   0.00000846   0.00007616   0.00000491            1.24       11.20        0.72
   0.00000083   0.00000491   0.00004580            0.12        0.72        6.74

 
     init_run     :      1.00s CPU      4.25s WALL (       1 calls)
     electrons    :      0.93s CPU      1.00s WALL (       1 calls)
     forces       :      0.03s CPU      0.04s WALL (       1 calls)
     stress       :      0.15s CPU      0.15s WALL (       1 calls)

     Called by init_run:
     wfcinit      :      0.46s CPU      3.52s WALL (       1 calls)
                                        3.52s GPU  (       1 calls)
     potinit      :      0.14s CPU      0.25s WALL (       1 calls)
     hinit0       :      0.39s CPU      0.42s WALL (       1 calls)

     Called by electrons:
     c_bands      :      0.65s CPU      0.69s WALL (       9 calls)
     sum_band     :      0.15s CPU      0.17s WALL (       9 calls)
     v_of_rho     :      0.07s CPU      0.19s WALL (       9 calls)
     mix_rho      :      0.04s CPU      0.05s WALL (       9 calls)

     Called by c_bands:
     init_us_2    :      0.02s CPU      0.03s WALL (      19 calls)
     init_us_2:gp :      0.02s CPU      0.02s WALL (      19 calls)
     regterg      :      0.58s CPU      0.62s WALL (       9 calls)

     Called by *egterg:
     rdiaghg      :      0.24s CPU      0.88s WALL (      52 calls)
                                        0.87s GPU  (      52 calls)
     h_psi        :      0.69s CPU      3.13s WALL (      54 calls)
                                        3.13s GPU  (      54 calls)
     g_psi        :      0.00s CPU      0.00s WALL (      44 calls)
                                        0.00s GPU  (      44 calls)

     Called by h_psi:
     h_psi:calbec :      0.41s CPU      2.79s WALL (      54 calls)
                                        2.79s GPU  (      54 calls)
     vloc_psi     :      0.26s CPU      0.31s WALL (      54 calls)
                                        0.31s GPU  (      54 calls)
     add_vuspsi   :      0.02s CPU      0.03s WALL (      54 calls)
                                        0.03s GPU  (      54 calls)

     General routines
     calbec       :      0.41s CPU      2.79s WALL (      59 calls)
     fft          :      0.40s CPU      0.53s WALL (      79 calls)
                                        0.13s GPU  (      51 calls)
     ffts         :      0.02s CPU      0.02s WALL (       9 calls)
     fftw         :      0.29s CPU      0.39s WALL (     993 calls)
                                        0.35s GPU  (     993 calls)
 
     Parallel routines
 
     PWSCF        :      2.14s CPU      5.50s WALL

 
   This run was terminated on:  10:57:58  10May2023            

=------------------------------------------------------------------------------=
   JOB DONE.
=------------------------------------------------------------------------------=
