An instance of this daemon is already running

     Program PWSCF v.7.1 starts on 10May2023 at 10:59:47 

     This program is part of the open-source Quantum ESPRESSO suite
     for quantum simulation of materials; please cite
         "P. Giannozzi et al., J. Phys.:Condens. Matter 21 395502 (2009);
         "P. Giannozzi et al., J. Phys.:Condens. Matter 29 465901 (2017);
         "P. Giannozzi et al., J. Chem. Phys. 152 154105 (2020);
          URL http://www.quantum-espresso.org", 
     in publications or presentations arising from this work. More details at
     http://www.quantum-espresso.org/quote

     Parallel version (MPI & OpenMP), running on       4 processor cores
     Number of MPI processes:                 4
     Threads/MPI process:                     1

     MPI processes distributed on     1 nodes
     149867 MiB available memory on the printing compute node when the environment starts
 
     Reading input from pw-si-27.in
Warning: card &CELL ignored
Warning: card / ignored

     Current dimensions of program PWSCF are:
     Max number of different atomic species (ntypx) = 10
     Max number of k-points (npk) =  40000
     Max angular momentum in pseudopotentials (lmaxx) =  4

     IMPORTANT: XC functional enforced from input :
     Exchange-correlation= PBE
                           (   1   4   3   4   0   0   0)
     Any further DFT definition will be discarded
     Please, verify this is what you really want


     gamma-point specific algorithms are used
 
     K-points division:     npool     =       2
     R & G space division:  proc/nbgrp/npool/nimage =       2
     Subspace diagonalization in iterative solution of the eigenvalue problem:
     a serial algorithm will be used

     Message from routine divide_et_impera:
     suboptimal parallelization: some nodes have no k-points
 
     Parallelization info
     --------------------
     sticks:   dense  smooth     PW     G-vecs:    dense   smooth      PW
     Min        2042    2042    540                99497    99497   13536
     Max        2045    2045    541                99498    99498   13537
     Sum        4087    4087   1081               198995   198995   27073
 
     Using Slab Decomposition
 


     bravais-lattice index     =            0
     lattice parameter (alat)  =      20.8441  a.u.
     unit-cell volume          =    8964.4449 (a.u.)^3
     number of atoms/cell      =           64
     number of atomic types    =            1
     number of electrons       =       256.00
     number of Kohn-Sham states=          154
     kinetic-energy cutoff     =      30.0000  Ry
     charge density cutoff     =     120.0000  Ry
     scf convergence threshold =      1.0E-06
     mixing beta               =       0.5000
     number of iterations used =            8  plain     mixing
     Exchange-correlation= PBE
                           (   1   4   3   4   0   0   0)

     GPU acceleration is ACTIVE.
     GPU-aware MPI enabled

     Message from routine print_cuda_info:
     High GPU oversubscription detected. Are you sure this is what you want?

     celldm(1)=  20.844097  celldm(2)=   0.000000  celldm(3)=   0.000000
     celldm(4)=   0.000000  celldm(5)=   0.000000  celldm(6)=   0.000000

     crystal axes: (cart. coord. in units of alat)
               a(1) = (   1.000000   0.000000   0.000000 )  
               a(2) = (   0.000000   0.986099   0.000000 )  
               a(3) = (   0.000000   0.000000   1.003815 )  

     reciprocal axes: (cart. coord. in units 2 pi/alat)
               b(1) = (  1.000000  0.000000  0.000000 )  
               b(2) = (  0.000000  1.014097  0.000000 )  
               b(3) = (  0.000000  0.000000  0.996200 )  


     PseudoPot. # 1 for Si read from file:
     /home/ppiaggi/pseudos/Si_ONCV_PBE_sr.upf
     MD5 check sum: 8553c464762ac42b85b1eed164b4d029
     Pseudo is Norm-conserving, Zval =  4.0
     Generated using ONCVPSP code by D. R. Hamann
     Using radial grid of 1510 points,  4 beta functions with: 
                l(1) =   0
                l(2) =   0
                l(3) =   1
                l(4) =   1

     atomic species   valence    mass     pseudopotential
        Si             4.00    28.08500     Si( 1.00)

     No symmetry found



   Cartesian axes

     site n.     atom                  positions (alat units)
         1           Si  tau(   1) = (  -0.0004211  -0.0001982   0.0005268  )
         2           Si  tau(   2) = (   0.0000049   0.2447466   0.2524159  )
         3           Si  tau(   3) = (   0.2510711  -0.0001881   0.2514588  )
         4           Si  tau(   4) = (   0.2516483   0.2442264   0.0008309  )
         5           Si  tau(   5) = (   0.1260575   0.1227021   0.1267662  )
         6           Si  tau(   6) = (   0.5026303   0.0001705  -0.0004661  )
         7           Si  tau(   7) = (   0.5035216   0.2443576   0.2518250  )
         8           Si  tau(   8) = (   0.6295530   0.1229443   0.1260886  )
         9           Si  tau(   9) = (   0.7538518  -0.0006308   0.2513841  )
        10           Si  tau(  10) = (   0.7544033   0.2457012   0.0007070  )
        11           Si  tau(  11) = (   0.0000045   0.4908740   0.0007141  )
        12           Si  tau(  12) = (   0.2510876   0.4897850   0.2525289  )
        13           Si  tau(  13) = (   0.1257143   0.6121630   0.1251901  )
        14           Si  tau(  14) = (   0.3772814   0.3673400   0.1261668  )
        15           Si  tau(  15) = (   0.5033118   0.4903365  -0.0006462  )
        16           Si  tau(  16) = (   0.6290997   0.6120106   0.1255423  )
        17           Si  tau(  17) = (   0.8804096   0.3671207   0.1255932  )
        18           Si  tau(  18) = (   0.7544134   0.4908672   0.2517432  )
        19           Si  tau(  19) = (   0.0000439   0.7346300   0.2528012  )
        20           Si  tau(  20) = (   0.2509673   0.7355755  -0.0001873  )
        21           Si  tau(  21) = (   0.3776214   0.8572221   0.1257503  )
        22           Si  tau(  22) = (   0.5025021   0.7346803   0.2521537  )
        23           Si  tau(  23) = (   0.7538953   0.7358365  -0.0002840  )
        24           Si  tau(  24) = (   0.8808033   0.8570476   0.1266388  )
        25           Si  tau(  25) = (   0.0001981   0.0006926   0.5040523  )
        26           Si  tau(  26) = (   0.2518043   0.2451804   0.5040063  )
        27           Si  tau(  27) = (   0.1254717   0.1219751   0.6294472  )
        28           Si  tau(  28) = (   0.3765797   0.1218612   0.3784412  )
        29           Si  tau(  29) = (   0.5021506   0.0002767   0.5044809  )
        30           Si  tau(  30) = (   0.6291902   0.1219341   0.6294799  )
        31           Si  tau(  31) = (   0.8797510   0.1224260   0.3786493  )
        32           Si  tau(  32) = (   0.7546658   0.2444550   0.5036842  )
        33           Si  tau(  33) = (   0.1249864   0.3674116   0.3772344  )
        34           Si  tau(  34) = (   0.0006050   0.4906220   0.5043858  )
        35           Si  tau(  35) = (   0.1255029   0.6123946   0.6301328  )
        36           Si  tau(  36) = (   0.6287144   0.3677614   0.3781545  )
        37           Si  tau(  37) = (   0.3774942   0.6134076   0.3780229  )
        38           Si  tau(  38) = (   0.3781181   0.3673884   0.6308804  )
        39           Si  tau(  39) = (   0.5021293   0.4903489   0.5043886  )
        40           Si  tau(  40) = (   0.6290162   0.6119272   0.6305065  )
        41           Si  tau(  41) = (   0.8804917   0.6126262   0.3787221  )
        42           Si  tau(  42) = (   0.8809815   0.3674590   0.6298298  )
        43           Si  tau(  43) = (   0.1255219   0.8584207   0.3787413  )
        44           Si  tau(  44) = (   0.2513325   0.7351777   0.5032604  )
        45           Si  tau(  45) = (   0.6280140   0.8578759   0.3778969  )
        46           Si  tau(  46) = (   0.3780855   0.8578600   0.6297903  )
        47           Si  tau(  47) = (   0.7538060   0.7352801   0.5036291  )
        48           Si  tau(  48) = (   0.8801143   0.8580275   0.6307544  )
        49           Si  tau(  49) = (   0.0005093   0.2448481   0.7553414  )
        50           Si  tau(  50) = (   0.2505864   0.0004238   0.7567310  )
        51           Si  tau(  51) = (   0.3770548   0.1232704   0.8816271  )
        52           Si  tau(  52) = (   0.5024752   0.2456912   0.7562629  )
        53           Si  tau(  53) = (   0.7552125   0.0002328   0.7567828  )
        54           Si  tau(  54) = (   0.8807047   0.1223508   0.8827895  )
        55           Si  tau(  55) = (   0.1259448   0.3674425   0.8824028  )
        56           Si  tau(  56) = (   0.2509261   0.4894776   0.7556706  )
        57           Si  tau(  57) = (   0.6290204   0.3672427   0.8830969  )
        58           Si  tau(  58) = (   0.3770209   0.6128539   0.8831467  )
        59           Si  tau(  59) = (   0.7544810   0.4907079   0.7564356  )
        60           Si  tau(  60) = (   0.8793424   0.6128288   0.8831004  )
        61           Si  tau(  61) = (   0.0006259   0.7356102   0.7555859  )
        62           Si  tau(  62) = (   0.1253018   0.8585698   0.8829797  )
        63           Si  tau(  63) = (   0.5025947   0.7354806   0.7561616  )
        64           Si  tau(  64) = (   0.6286368   0.8583808   0.8816850  )

     number of k points=     1  Fermi-Dirac smearing, width (Ry)=  0.0100
                       cart. coord. in units 2pi/alat
        k(    1) = (   0.0000000   0.0000000   0.0000000), wk =   2.0000000

     Dense  grid:    99498 G-vectors     FFT dimensions: (  75,  72,  75)

     Estimated max dynamical RAM per process >     159.44 MB

     Estimated total dynamical RAM >     613.45 MB

     Initial potential from superposition of free atoms

     starting charge     255.9608, renormalised to     256.0000
     Starting wfcs are  256 randomized atomic wfcs

     total cpu time spent up to now is        4.4 secs

     Self-consistent Calculation

     iteration #  1     ecut=    30.00 Ry     beta= 0.50
     Davidson diagonalization with overlap
     ethr =  1.00E-02,  avg # of iterations =  3.0

     Threshold (ethr) on eigenvalues was too large:
     Diagonalizing with lowered threshold

     Davidson diagonalization with overlap
     ethr =  6.43E-04,  avg # of iterations =  4.0

     total cpu time spent up to now is        4.6 secs

     total energy              =    -503.96884407 Ry
     estimated scf accuracy    <       1.82677495 Ry

     iteration #  2     ecut=    30.00 Ry     beta= 0.50
     Davidson diagonalization with overlap
     ethr =  7.14E-04,  avg # of iterations =  1.0

     total cpu time spent up to now is        4.7 secs

     total energy              =    -503.95019133 Ry
     estimated scf accuracy    <       0.34455870 Ry

     iteration #  3     ecut=    30.00 Ry     beta= 0.50
     Davidson diagonalization with overlap
     ethr =  1.35E-04,  avg # of iterations =  4.0

     total cpu time spent up to now is        4.8 secs

     total energy              =    -503.97172908 Ry
     estimated scf accuracy    <       0.00744686 Ry

     iteration #  4     ecut=    30.00 Ry     beta= 0.50
     Davidson diagonalization with overlap
     c_bands:  2 eigenvalues not converged
     ethr =  2.91E-06,  avg # of iterations = 20.0

     total cpu time spent up to now is        5.0 secs

     total energy              =    -503.97371553 Ry
     estimated scf accuracy    <       0.00922287 Ry

     iteration #  5     ecut=    30.00 Ry     beta= 0.50
     Davidson diagonalization with overlap
     ethr =  2.91E-06,  avg # of iterations =  6.0

     total cpu time spent up to now is        5.1 secs

     total energy              =    -503.97540457 Ry
     estimated scf accuracy    <       0.00048443 Ry

     iteration #  6     ecut=    30.00 Ry     beta= 0.50
     Davidson diagonalization with overlap
     ethr =  1.89E-07,  avg # of iterations =  2.0

     total cpu time spent up to now is        5.2 secs

     total energy              =    -503.97545074 Ry
     estimated scf accuracy    <       0.00011484 Ry

     iteration #  7     ecut=    30.00 Ry     beta= 0.50
     Davidson diagonalization with overlap
     ethr =  4.49E-08,  avg # of iterations =  5.0

     total cpu time spent up to now is        5.3 secs

     total energy              =    -503.97545737 Ry
     estimated scf accuracy    <       0.00002014 Ry

     iteration #  8     ecut=    30.00 Ry     beta= 0.50
     Davidson diagonalization with overlap
     ethr =  7.87E-09,  avg # of iterations =  4.0

     total cpu time spent up to now is        5.4 secs

     total energy              =    -503.97546078 Ry
     estimated scf accuracy    <       0.00000137 Ry

     iteration #  9     ecut=    30.00 Ry     beta= 0.50
     Davidson diagonalization with overlap
     ethr =  5.37E-10,  avg # of iterations =  5.0

     total cpu time spent up to now is        5.6 secs

     total energy              =    -503.97546148 Ry
     estimated scf accuracy    <       0.00000226 Ry

     iteration # 10     ecut=    30.00 Ry     beta= 0.50
     Davidson diagonalization with overlap
     ethr =  5.37E-10,  avg # of iterations =  3.0

     total cpu time spent up to now is        5.7 secs

     End of self-consistent calculation

          k = 0.0000 0.0000 0.0000 ( 12454 PWs)   bands (ev):

    -5.8425  -4.8360  -4.8298  -4.8105  -4.7717  -4.7572  -4.7319  -3.9456
    -3.9412  -3.9302  -3.8790  -3.8725  -3.8619  -3.8538  -3.8475  -3.8410
    -3.8000  -3.7807  -3.7694  -3.6363  -3.5789  -3.5766  -3.4984  -1.9167
    -1.8865  -1.8618  -1.8243  -1.7926  -1.7414  -1.7274  -1.7186  -1.7071
    -1.6794  -1.6673  -1.6583  -1.6485  -1.6385  -1.6271  -1.6194  -1.6027
    -1.5874  -0.9953  -0.9246  -0.9019  -0.8586   0.4096   0.4220   0.4249
     0.4310   0.4600   0.4712   0.4721   0.4811   0.4827   0.5021   0.5288
     0.5426   2.1070   2.1180   2.1227   2.1370   2.1395   2.1528   2.1616
     2.1659   2.1755   2.1842   2.1916   2.1976   2.2339   2.2383   2.2462
     2.2547   2.2603   2.2684   2.2784   2.2845   2.3121   2.3167   2.3450
     2.3596   2.3641   2.3665   2.3781   2.3946   2.4312   2.4616   3.0388
     3.0635   3.1319   3.1591   3.1879   3.2021   3.9602   3.9690   4.0112
     4.0225   4.0471   4.0754   4.0889   4.0977   4.1323   4.1422   4.1539
     4.1573   4.4543   4.4744   4.4951   4.5145   4.5356   4.5635   4.6238
     4.6352   4.6454   4.6520   4.6628   4.6689   4.6835   4.6916   4.7134
     4.7759   4.8123   4.8227   4.8474   4.8643   5.7993   5.9114   5.9897
     6.5230   6.5608   6.6245   6.6649   6.7251   6.7420   6.9335   6.9745
     7.0527   7.0811   7.0850   7.1099   7.2539   7.2607   7.2691   7.2893
     8.1590   8.1731   8.1749   8.2358   8.2652   8.2873   8.3426   8.3475
     8.3564   8.3735

     the Fermi energy is     6.2131 ev

!    total energy              =    -503.97546138 Ry
     estimated scf accuracy    <       0.00000032 Ry
     smearing contrib. (-TS)   =      -0.04376856 Ry
     internal energy E=F+TS    =    -503.93169283 Ry

     The total energy is F=E-TS. E is the sum of the following terms:
     one-electron contribution =     143.07947837 Ry
     hartree contribution      =      37.05356767 Ry
     xc contribution           =    -153.17948914 Ry
     ewald contribution        =    -530.88524973 Ry

     convergence has been achieved in  10 iterations

     Forces acting on atoms (cartesian axes, Ry/au):

     atom    1 type  1   force =     0.02087572   -0.01713941    0.01803728
     atom    2 type  1   force =     0.01447390   -0.00074795   -0.00167656
     atom    3 type  1   force =     0.00283245   -0.01833640    0.00311360
     atom    4 type  1   force =    -0.00095290    0.00491779    0.01014758
     atom    5 type  1   force =    -0.00123532   -0.00429549   -0.00117439
     atom    6 type  1   force =     0.00239817   -0.01462586    0.01369615
     atom    7 type  1   force =    -0.00355858    0.00172784    0.00328566
     atom    8 type  1   force =    -0.00443210   -0.00564819   -0.00098185
     atom    9 type  1   force =     0.00187949   -0.01493206    0.00393432
     atom   10 type  1   force =     0.00101477   -0.00469604    0.00976245
     atom   11 type  1   force =     0.01727306   -0.00572982    0.00817874
     atom   12 type  1   force =     0.00264332    0.00264707   -0.00334816
     atom   13 type  1   force =     0.00395378    0.00368411    0.00871607
     atom   14 type  1   force =     0.00263196    0.00025077    0.00194134
     atom   15 type  1   force =    -0.00323934   -0.00195224    0.01782366
     atom   16 type  1   force =    -0.00290906    0.00498560    0.00254925
     atom   17 type  1   force =    -0.01726444    0.00338752    0.00677804
     atom   18 type  1   force =     0.00068509   -0.00440925    0.00195302
     atom   19 type  1   force =     0.02133380    0.00266345   -0.00142471
     atom   20 type  1   force =     0.00107935    0.00144854    0.01484634
     atom   21 type  1   force =    -0.00172720    0.01815401    0.00183514
     atom   22 type  1   force =     0.00398854    0.00267117   -0.00331230
     atom   23 type  1   force =    -0.00147556    0.00215178    0.01588323
     atom   24 type  1   force =    -0.02064633    0.01740809   -0.00109587
     atom   25 type  1   force =     0.01300219   -0.02140848    0.00195702
     atom   26 type  1   force =    -0.00214585    0.00100087   -0.00002848
     atom   27 type  1   force =     0.00571961    0.00188476    0.00181886
     atom   28 type  1   force =     0.00278504    0.00083310   -0.00340250
     atom   29 type  1   force =     0.00308242   -0.01769466   -0.00290409
     atom   30 type  1   force =    -0.00234739    0.00137533    0.00516911
     atom   31 type  1   force =    -0.01747979   -0.00435291   -0.00542458
     atom   32 type  1   force =    -0.00343602    0.00517205    0.00190264
     atom   33 type  1   force =     0.00569881    0.00009631    0.00688485
     atom   34 type  1   force =     0.01559412   -0.00298451   -0.00259043
     atom   35 type  1   force =     0.00638340    0.00271970   -0.00110273
     atom   36 type  1   force =    -0.00079770   -0.00039674    0.00006477
     atom   37 type  1   force =    -0.00337915   -0.00503833    0.00048048
     atom   38 type  1   force =    -0.00541847    0.00100188   -0.00451790
     atom   39 type  1   force =     0.00370047   -0.00009429   -0.00134552
     atom   40 type  1   force =    -0.00353141    0.00449674   -0.00179222
     atom   41 type  1   force =    -0.02056978    0.00014212   -0.00067962
     atom   42 type  1   force =    -0.02215433    0.00067020    0.00096537
     atom   43 type  1   force =     0.00189440    0.01408019   -0.00366463
     atom   44 type  1   force =     0.00089299    0.00377056    0.00503594
     atom   45 type  1   force =    -0.00111523    0.01611774    0.00082271
     atom   46 type  1   force =    -0.00725220    0.01566267    0.00249453
     atom   47 type  1   force =    -0.00017607    0.00274066    0.00330441
     atom   48 type  1   force =    -0.01683620    0.01665153   -0.00626605
     atom   49 type  1   force =     0.01705257   -0.00094563    0.00318095
     atom   50 type  1   force =     0.00414425   -0.01851243   -0.00510461
     atom   51 type  1   force =    -0.00007906   -0.00496054   -0.01090753
     atom   52 type  1   force =     0.00760756   -0.00465001   -0.00184220
     atom   53 type  1   force =    -0.00471108   -0.01584871   -0.00348555
     atom   54 type  1   force =    -0.02024424    0.00419875   -0.01565071
     atom   55 type  1   force =     0.00044051   -0.00145224   -0.01151947
     atom   56 type  1   force =     0.00412920    0.00368716    0.00267415
     atom   57 type  1   force =    -0.00111603    0.00197614   -0.01922761
     atom   58 type  1   force =    -0.00127157   -0.00061589   -0.02050511
     atom   59 type  1   force =    -0.00020420   -0.00587059   -0.00127014
     atom   60 type  1   force =    -0.01271710    0.00444047   -0.01922212
     atom   61 type  1   force =     0.01368114   -0.00109546    0.00519127
     atom   62 type  1   force =     0.00157862    0.01448972   -0.01612607
     atom   63 type  1   force =     0.00182514   -0.00097420   -0.00104479
     atom   64 type  1   force =    -0.00185215    0.01610195   -0.01179048

     Total force =     0.121742     Total SCF correction =     0.001127


     Computing stress (Cartesian axis) and pressure

          total   stress  (Ry/bohr**3)                   (kbar)     P=       -3.53
  -0.00003964  -0.00001954   0.00002289           -5.83       -2.88        3.37
  -0.00001954   0.00002827  -0.00002706           -2.88        4.16       -3.98
   0.00002289  -0.00002706  -0.00006066            3.37       -3.98       -8.92

 
     init_run     :      1.16s CPU      4.34s WALL (       1 calls)
     electrons    :      1.16s CPU      1.28s WALL (       1 calls)
     forces       :      0.04s CPU      0.04s WALL (       1 calls)
     stress       :      0.15s CPU      0.16s WALL (       1 calls)

     Called by init_run:
     wfcinit      :      0.60s CPU      3.63s WALL (       1 calls)
                                        3.63s GPU  (       1 calls)
     potinit      :      0.15s CPU      0.22s WALL (       1 calls)
     hinit0       :      0.40s CPU      0.42s WALL (       1 calls)

     Called by electrons:
     c_bands      :      0.81s CPU      0.87s WALL (      11 calls)
     sum_band     :      0.19s CPU      0.23s WALL (      11 calls)
     v_of_rho     :      0.09s CPU      0.17s WALL (      11 calls)
     mix_rho      :      0.06s CPU      0.07s WALL (      11 calls)

     Called by c_bands:
     init_us_2    :      0.03s CPU      0.03s WALL (      23 calls)
     init_us_2:gp :      0.03s CPU      0.03s WALL (      23 calls)
     regterg      :      0.73s CPU      0.78s WALL (      11 calls)

     Called by *egterg:
     rdiaghg      :      0.31s CPU      0.96s WALL (      67 calls)
                                        0.95s GPU  (      67 calls)
     h_psi        :      0.89s CPU      3.31s WALL (      69 calls)
                                        3.31s GPU  (      69 calls)
     g_psi        :      0.00s CPU      0.00s WALL (      57 calls)
                                        0.00s GPU  (      57 calls)

     Called by h_psi:
     h_psi:calbec :      0.54s CPU      2.90s WALL (      69 calls)
                                        2.90s GPU  (      69 calls)
     vloc_psi     :      0.31s CPU      0.37s WALL (      69 calls)
                                        0.37s GPU  (      69 calls)
     add_vuspsi   :      0.02s CPU      0.04s WALL (      69 calls)
                                        0.04s GPU  (      69 calls)

     General routines
     calbec       :      0.55s CPU      2.91s WALL (      74 calls)
     fft          :      0.42s CPU      0.52s WALL (      95 calls)
                                        0.10s GPU  (      61 calls)
     ffts         :      0.02s CPU      0.02s WALL (      11 calls)
     fftw         :      0.35s CPU      0.46s WALL (    1215 calls)
                                        0.42s GPU  (    1215 calls)
 
     Parallel routines
 
     PWSCF        :      2.55s CPU      5.89s WALL

 
   This run was terminated on:  10:59:53  10May2023            

=------------------------------------------------------------------------------=
   JOB DONE.
=------------------------------------------------------------------------------=
