An instance of this daemon is already running

     Program PWSCF v.7.1 starts on 10May2023 at 11: 0:52 

     This program is part of the open-source Quantum ESPRESSO suite
     for quantum simulation of materials; please cite
         "P. Giannozzi et al., J. Phys.:Condens. Matter 21 395502 (2009);
         "P. Giannozzi et al., J. Phys.:Condens. Matter 29 465901 (2017);
         "P. Giannozzi et al., J. Chem. Phys. 152 154105 (2020);
          URL http://www.quantum-espresso.org", 
     in publications or presentations arising from this work. More details at
     http://www.quantum-espresso.org/quote

     Parallel version (MPI & OpenMP), running on       4 processor cores
     Number of MPI processes:                 4
     Threads/MPI process:                     1

     MPI processes distributed on     1 nodes
     150549 MiB available memory on the printing compute node when the environment starts
 
     Reading input from pw-si-35.in
Warning: card &CELL ignored
Warning: card / ignored

     Current dimensions of program PWSCF are:
     Max number of different atomic species (ntypx) = 10
     Max number of k-points (npk) =  40000
     Max angular momentum in pseudopotentials (lmaxx) =  4

     IMPORTANT: XC functional enforced from input :
     Exchange-correlation= PBE
                           (   1   4   3   4   0   0   0)
     Any further DFT definition will be discarded
     Please, verify this is what you really want


     gamma-point specific algorithms are used
 
     K-points division:     npool     =       2
     R & G space division:  proc/nbgrp/npool/nimage =       2
     Subspace diagonalization in iterative solution of the eigenvalue problem:
     a serial algorithm will be used

     Message from routine divide_et_impera:
     suboptimal parallelization: some nodes have no k-points
 
     Parallelization info
     --------------------
     sticks:   dense  smooth     PW     G-vecs:    dense   smooth      PW
     Min        2073    2073    546               100589   100589   13674
     Max        2076    2076    547               100592   100592   13679
     Sum        4149    4149   1093               201181   201181   27353
 
     Using Slab Decomposition
 


     bravais-lattice index     =            0
     lattice parameter (alat)  =      20.8002  a.u.
     unit-cell volume          =    9064.7094 (a.u.)^3
     number of atoms/cell      =           64
     number of atomic types    =            1
     number of electrons       =       256.00
     number of Kohn-Sham states=          154
     kinetic-energy cutoff     =      30.0000  Ry
     charge density cutoff     =     120.0000  Ry
     scf convergence threshold =      1.0E-06
     mixing beta               =       0.5000
     number of iterations used =            8  plain     mixing
     Exchange-correlation= PBE
                           (   1   4   3   4   0   0   0)

     GPU acceleration is ACTIVE.
     GPU-aware MPI enabled

     Message from routine print_cuda_info:
     High GPU oversubscription detected. Are you sure this is what you want?

     celldm(1)=  20.800158  celldm(2)=   0.000000  celldm(3)=   0.000000
     celldm(4)=   0.000000  celldm(5)=   0.000000  celldm(6)=   0.000000

     crystal axes: (cart. coord. in units of alat)
               a(1) = (   1.000000   0.000000   0.000000 )  
               a(2) = (   0.000000   1.000802   0.000000 )  
               a(3) = (   0.000000   0.000000   1.006482 )  

     reciprocal axes: (cart. coord. in units 2 pi/alat)
               b(1) = (  1.000000  0.000000  0.000000 )  
               b(2) = (  0.000000  0.999199  0.000000 )  
               b(3) = (  0.000000  0.000000  0.993560 )  


     PseudoPot. # 1 for Si read from file:
     /home/ppiaggi/pseudos/Si_ONCV_PBE_sr.upf
     MD5 check sum: 8553c464762ac42b85b1eed164b4d029
     Pseudo is Norm-conserving, Zval =  4.0
     Generated using ONCVPSP code by D. R. Hamann
     Using radial grid of 1510 points,  4 beta functions with: 
                l(1) =   0
                l(2) =   0
                l(3) =   1
                l(4) =   1

     atomic species   valence    mass     pseudopotential
        Si             4.00    28.08500     Si( 1.00)

     No symmetry found



   Cartesian axes

     site n.     atom                  positions (alat units)
         1           Si  tau(   1) = (  -0.0003750   0.0006745  -0.0001952  )
         2           Si  tau(   2) = (   0.0008845   0.2514626   0.2496853  )
         3           Si  tau(   3) = (   0.2517142   0.0003001   0.2486934  )
         4           Si  tau(   4) = (   0.2517949   0.2510551  -0.0005812  )
         5           Si  tau(   5) = (   0.1262428   0.1258474   0.1241070  )
         6           Si  tau(   6) = (   0.5021481   0.0003004   0.0008403  )
         7           Si  tau(   7) = (   0.5030524   0.2520950   0.2498700  )
         8           Si  tau(   8) = (   0.6274688   0.1260412   0.1251650  )
         9           Si  tau(   9) = (   0.7544601   0.0001155   0.2493632  )
        10           Si  tau(  10) = (   0.7529947   0.2522173   0.0005188  )
        11           Si  tau(  11) = (  -0.0002357   0.5031914  -0.0002640  )
        12           Si  tau(  12) = (   0.2514001   0.5037244   0.2488763  )
        13           Si  tau(  13) = (   0.1261851   0.6294154   0.1251576  )
        14           Si  tau(  14) = (   0.3762930   0.3783237   0.1250102  )
        15           Si  tau(  15) = (   0.5033035   0.5033393  -0.0002463  )
        16           Si  tau(  16) = (   0.6273032   0.6293851   0.1245040  )
        17           Si  tau(  17) = (   0.8792885   0.3769048   0.1249335  )
        18           Si  tau(  18) = (   0.7530252   0.5042584   0.2496186  )
        19           Si  tau(  19) = (   0.0001550   0.7544428   0.2489278  )
        20           Si  tau(  20) = (   0.2509913   0.7548248   0.0008758  )
        21           Si  tau(  21) = (   0.3761126   0.8806532   0.1246858  )
        22           Si  tau(  22) = (   0.5018958   0.7558178   0.2489680  )
        23           Si  tau(  23) = (   0.7538402   0.7543450  -0.0006008  )
        24           Si  tau(  24) = (   0.8783853   0.8809676   0.1251952  )
        25           Si  tau(  25) = (   0.0002793  -0.0005106   0.4983119  )
        26           Si  tau(  26) = (   0.2508823   0.2513503   0.4984228  )
        27           Si  tau(  27) = (   0.1255310   0.1249958   0.6235733  )
        28           Si  tau(  28) = (   0.3766495   0.1253672   0.3748263  )
        29           Si  tau(  29) = (   0.5021807  -0.0003616   0.4991354  )
        30           Si  tau(  30) = (   0.6287250   0.1267328   0.6245483  )
        31           Si  tau(  31) = (   0.8785342   0.1258315   0.3749179  )
        32           Si  tau(  32) = (   0.7535069   0.2511101   0.4992487  )
        33           Si  tau(  33) = (   0.1247125   0.3779768   0.3745199  )
        34           Si  tau(  34) = (  -0.0007916   0.5036746   0.4987904  )
        35           Si  tau(  35) = (   0.1247621   0.6297427   0.6230632  )
        36           Si  tau(  36) = (   0.6277007   0.3782053   0.3747434  )
        37           Si  tau(  37) = (   0.3770205   0.6285656   0.3746352  )
        38           Si  tau(  38) = (   0.3771250   0.3772012   0.6235751  )
        39           Si  tau(  39) = (   0.5015980   0.5040030   0.4983593  )
        40           Si  tau(  40) = (   0.6277340   0.6289106   0.6235565  )
        41           Si  tau(  41) = (   0.8784955   0.6294347   0.3734791  )
        42           Si  tau(  42) = (   0.8788686   0.3774166   0.6245660  )
        43           Si  tau(  43) = (   0.1248491   0.8814117   0.3734504  )
        44           Si  tau(  44) = (   0.2509228   0.7558759   0.4991515  )
        45           Si  tau(  45) = (   0.6273600   0.8817815   0.3742213  )
        46           Si  tau(  46) = (   0.3768972   0.8813476   0.6230585  )
        47           Si  tau(  47) = (   0.7529106   0.7545152   0.4991007  )
        48           Si  tau(  48) = (   0.8795498   0.8815107   0.6235590  )
        49           Si  tau(  49) = (  -0.0004517   0.2519640   0.7479096  )
        50           Si  tau(  50) = (   0.2512357  -0.0003724   0.7483442  )
        51           Si  tau(  51) = (   0.3761511   0.1250260   0.8729152  )
        52           Si  tau(  52) = (   0.5026570   0.2514964   0.7480686  )
        53           Si  tau(  53) = (   0.7545294   0.0008622   0.7487910  )
        54           Si  tau(  54) = (   0.8788625   0.1265911   0.8735803  )
        55           Si  tau(  55) = (   0.1264544   0.3770193   0.8727845  )
        56           Si  tau(  56) = (   0.2519032   0.5038444   0.7485829  )
        57           Si  tau(  57) = (   0.6272578   0.3779707   0.8740362  )
        58           Si  tau(  58) = (   0.3775826   0.6293168   0.8730361  )
        59           Si  tau(  59) = (   0.7538406   0.5030326   0.7487854  )
        60           Si  tau(  60) = (   0.8792760   0.6299391   0.8740753  )
        61           Si  tau(  61) = (   0.0004062   0.7557370   0.7478712  )
        62           Si  tau(  62) = (   0.1251868   0.8806651   0.8735551  )
        63           Si  tau(  63) = (   0.5020787   0.7554137   0.7478676  )
        64           Si  tau(  64) = (   0.6273670   0.8804909   0.8729905  )

     number of k points=     1  Fermi-Dirac smearing, width (Ry)=  0.0100
                       cart. coord. in units 2pi/alat
        k(    1) = (   0.0000000   0.0000000   0.0000000), wk =   2.0000000

     Dense  grid:   100591 G-vectors     FFT dimensions: (  75,  75,  75)

     Estimated max dynamical RAM per process >     161.62 MB

     Estimated total dynamical RAM >     621.92 MB

     Initial potential from superposition of free atoms

     starting charge     255.9608, renormalised to     256.0000
     Starting wfcs are  256 randomized atomic wfcs

     total cpu time spent up to now is        4.1 secs

     Self-consistent Calculation

     iteration #  1     ecut=    30.00 Ry     beta= 0.50
     Davidson diagonalization with overlap
     ethr =  1.00E-02,  avg # of iterations =  3.0

     Threshold (ethr) on eigenvalues was too large:
     Diagonalizing with lowered threshold

     Davidson diagonalization with overlap
     ethr =  6.32E-04,  avg # of iterations =  2.0

     total cpu time spent up to now is        4.3 secs

     total energy              =    -503.95975896 Ry
     estimated scf accuracy    <       1.79634410 Ry

     iteration #  2     ecut=    30.00 Ry     beta= 0.50
     Davidson diagonalization with overlap
     ethr =  7.02E-04,  avg # of iterations =  2.0

     total cpu time spent up to now is        4.4 secs

     total energy              =    -503.94111136 Ry
     estimated scf accuracy    <       0.34206089 Ry

     iteration #  3     ecut=    30.00 Ry     beta= 0.50
     Davidson diagonalization with overlap
     ethr =  1.34E-04,  avg # of iterations =  4.0

     total cpu time spent up to now is        4.6 secs

     total energy              =    -503.96190263 Ry
     estimated scf accuracy    <       0.00836017 Ry

     iteration #  4     ecut=    30.00 Ry     beta= 0.50
     Davidson diagonalization with overlap
     c_bands:  3 eigenvalues not converged
     ethr =  3.27E-06,  avg # of iterations = 20.0

     total cpu time spent up to now is        4.8 secs

     total energy              =    -503.96412863 Ry
     estimated scf accuracy    <       0.00897626 Ry

     iteration #  5     ecut=    30.00 Ry     beta= 0.50
     Davidson diagonalization with overlap
     ethr =  3.27E-06,  avg # of iterations = 15.0

     total cpu time spent up to now is        5.0 secs

     total energy              =    -503.96577425 Ry
     estimated scf accuracy    <       0.00059328 Ry

     iteration #  6     ecut=    30.00 Ry     beta= 0.50
     Davidson diagonalization with overlap
     ethr =  2.32E-07,  avg # of iterations =  3.0

     total cpu time spent up to now is        5.1 secs

     total energy              =    -503.96581805 Ry
     estimated scf accuracy    <       0.00012627 Ry

     iteration #  7     ecut=    30.00 Ry     beta= 0.50
     Davidson diagonalization with overlap
     ethr =  4.93E-08,  avg # of iterations =  5.0

     total cpu time spent up to now is        5.2 secs

     total energy              =    -503.96582961 Ry
     estimated scf accuracy    <       0.00001335 Ry

     iteration #  8     ecut=    30.00 Ry     beta= 0.50
     Davidson diagonalization with overlap
     ethr =  5.22E-09,  avg # of iterations =  4.0

     total cpu time spent up to now is        5.3 secs

     total energy              =    -503.96583339 Ry
     estimated scf accuracy    <       0.00000103 Ry

     iteration #  9     ecut=    30.00 Ry     beta= 0.50
     Davidson diagonalization with overlap
     ethr =  4.04E-10,  avg # of iterations =  5.0

     total cpu time spent up to now is        5.5 secs

     End of self-consistent calculation

          k = 0.0000 0.0000 0.0000 ( 12599 PWs)   bands (ev):

    -5.8854  -4.9017  -4.8759  -4.8729  -4.8076  -4.7999  -4.7868  -4.0260
    -4.0168  -3.9929  -3.9453  -3.9354  -3.9283  -3.9141  -3.9037  -3.8890
    -3.8549  -3.8294  -3.8243  -3.7065  -3.6458  -3.6427  -3.5290  -1.9931
    -1.9469  -1.9294  -1.9115  -1.8927  -1.8425  -1.8001  -1.7896  -1.7775
    -1.7769  -1.7651  -1.7497  -1.7413  -1.7314  -1.6962  -1.6929  -1.6643
    -1.6542  -1.0565  -0.9887  -0.9666  -0.9249   0.3147   0.3466   0.3489
     0.3547   0.3598   0.3775   0.3848   0.3925   0.3986   0.4014   0.4110
     0.4163   2.0316   2.0410   2.0452   2.0521   2.0619   2.0729   2.0894
     2.0914   2.1018   2.1037   2.1189   2.1289   2.1626   2.1759   2.1835
     2.1883   2.1988   2.2013   2.2119   2.2169   2.2194   2.2221   2.2375
     2.2460   2.2493   2.2648   2.3290   2.3450   2.3512   2.3582   3.0012
     3.0114   3.0488   3.0557   3.0673   3.0872   3.9004   3.9086   3.9330
     3.9368   3.9492   3.9588   3.9963   4.0075   4.0109   4.0141   4.0264
     4.1058   4.3217   4.3818   4.4631   4.4844   4.4867   4.5007   4.5085
     4.5154   4.5254   4.5372   4.5558   4.5599   4.5889   4.6051   4.6155
     4.6339   4.6443   4.6477   4.6676   4.9035   5.7231   5.7932   5.8564
     6.4557   6.4716   6.5366   6.5813   6.5922   6.6283   6.8999   6.9113
     6.9288   6.9356   6.9466   7.0056   7.1106   7.1137   7.1207   7.1481
     8.0752   8.0855   8.1419   8.1442   8.1516   8.1701   8.1707   8.1781
     8.1806   8.1879

     the Fermi energy is     6.1104 ev

!    total energy              =    -503.96583305 Ry
     estimated scf accuracy    <       0.00000089 Ry
     smearing contrib. (-TS)   =      -0.04151413 Ry
     internal energy E=F+TS    =    -503.92431892 Ry

     The total energy is F=E-TS. E is the sum of the following terms:
     one-electron contribution =     140.22993654 Ry
     hartree contribution      =      37.47818650 Ry
     xc contribution           =    -152.82711652 Ry
     ewald contribution        =    -528.80532544 Ry

     convergence has been achieved in   9 iterations

     Forces acting on atoms (cartesian axes, Ry/au):

     atom    1 type  1   force =     0.01459551    0.01555431   -0.02381552
     atom    2 type  1   force =     0.00987415   -0.00153189    0.00014579
     atom    3 type  1   force =    -0.00321221    0.01693200    0.00378643
     atom    4 type  1   force =    -0.00036016    0.00330627   -0.02154550
     atom    5 type  1   force =     0.00001629    0.00235781   -0.00183275
     atom    6 type  1   force =     0.00073252    0.01361339   -0.02801783
     atom    7 type  1   force =    -0.00613317   -0.00005954    0.00116204
     atom    8 type  1   force =     0.00355338    0.00157562   -0.00288739
     atom    9 type  1   force =    -0.00881350    0.01936602    0.00289164
     atom   10 type  1   force =    -0.00180204   -0.00178501   -0.02385662
     atom   11 type  1   force =     0.01697849    0.00010632   -0.02188375
     atom   12 type  1   force =    -0.00249267   -0.00201705    0.00634648
     atom   13 type  1   force =    -0.00271280   -0.00357632   -0.00641801
     atom   14 type  1   force =     0.00505834   -0.00419110   -0.00625414
     atom   15 type  1   force =    -0.00677088    0.00021161   -0.02085391
     atom   16 type  1   force =     0.00267670    0.00173328   -0.00246698
     atom   17 type  1   force =    -0.01484896    0.00459108   -0.00101325
     atom   18 type  1   force =    -0.00065320   -0.00564481   -0.00253346
     atom   19 type  1   force =     0.01222938    0.00136342    0.00125424
     atom   20 type  1   force =     0.00124619   -0.00191924   -0.02878727
     atom   21 type  1   force =     0.00267356   -0.01599599   -0.00388699
     atom   22 type  1   force =     0.00016584   -0.00523619    0.00354354
     atom   23 type  1   force =    -0.00526074    0.00217191   -0.01943890
     atom   24 type  1   force =    -0.00934689   -0.02037185   -0.00769197
     atom   25 type  1   force =     0.01251949    0.02155701    0.00179399
     atom   26 type  1   force =    -0.00058116    0.00153689    0.00430608
     atom   27 type  1   force =     0.00065700    0.00506635   -0.00044172
     atom   28 type  1   force =     0.00265458    0.00482498   -0.00518243
     atom   29 type  1   force =     0.00309542    0.02415696    0.00329338
     atom   30 type  1   force =    -0.00320128   -0.00458058   -0.00349651
     atom   31 type  1   force =    -0.00833622    0.00271665   -0.00466369
     atom   32 type  1   force =    -0.00226693    0.00626502    0.00119018
     atom   33 type  1   force =     0.00630473    0.00102210   -0.00296964
     atom   34 type  1   force =     0.01241757   -0.00094719    0.00205390
     atom   35 type  1   force =     0.00611850   -0.00230991    0.00250291
     atom   36 type  1   force =     0.00246259   -0.00057034   -0.00155937
     atom   37 type  1   force =    -0.00337740    0.00775123   -0.00511371
     atom   38 type  1   force =    -0.00199039    0.00188388   -0.00149364
     atom   39 type  1   force =     0.00305041   -0.00500299    0.00616411
     atom   40 type  1   force =    -0.00022277   -0.00084826    0.00164229
     atom   41 type  1   force =    -0.01261109    0.00050711    0.00196211
     atom   42 type  1   force =    -0.01424072    0.00177847   -0.00585593
     atom   43 type  1   force =     0.00670539   -0.02025038   -0.00298006
     atom   44 type  1   force =    -0.00049619   -0.00463658   -0.00313827
     atom   45 type  1   force =     0.00376935   -0.02152387   -0.00280677
     atom   46 type  1   force =    -0.00144471   -0.01984224    0.00332703
     atom   47 type  1   force =     0.00002847    0.00298902    0.00009059
     atom   48 type  1   force =    -0.01812899   -0.02106610    0.00022417
     atom   49 type  1   force =     0.01862381   -0.00315680    0.00589382
     atom   50 type  1   force =    -0.00181673    0.01604444    0.00367403
     atom   51 type  1   force =     0.00560994    0.00458562    0.02279464
     atom   52 type  1   force =    -0.00263195    0.00106172    0.00779897
     atom   53 type  1   force =    -0.00579661    0.01352442    0.00413316
     atom   54 type  1   force =    -0.01227603    0.00238308    0.02421370
     atom   55 type  1   force =    -0.00117263    0.00270439    0.02307109
     atom   56 type  1   force =    -0.00280777   -0.00133954   -0.00022392
     atom   57 type  1   force =     0.00324853   -0.00192894    0.01866982
     atom   58 type  1   force =    -0.00154443    0.00120579    0.02515635
     atom   59 type  1   force =    -0.00404209    0.00267476    0.00556657
     atom   60 type  1   force =    -0.01108481   -0.00385464    0.01688399
     atom   61 type  1   force =     0.01059248   -0.00456825    0.00649427
     atom   62 type  1   force =     0.00212067   -0.01509472    0.02397662
     atom   63 type  1   force =     0.00046427   -0.00309064    0.00274010
     atom   64 type  1   force =     0.00223454   -0.01218198    0.02436186

     Total force =     0.136400     Total SCF correction =     0.001855


     Computing stress (Cartesian axis) and pressure

          total   stress  (Ry/bohr**3)                   (kbar)     P=      -12.52
  -0.00007091   0.00001778  -0.00002094          -10.43        2.62       -3.08
   0.00001778  -0.00007625  -0.00000998            2.62      -11.22       -1.47
  -0.00002094  -0.00000998  -0.00010811           -3.08       -1.47      -15.90

 
     init_run     :      0.77s CPU      4.08s WALL (       1 calls)
     electrons    :      1.23s CPU      1.31s WALL (       1 calls)
     forces       :      0.04s CPU      0.04s WALL (       1 calls)
     stress       :      0.15s CPU      0.16s WALL (       1 calls)

     Called by init_run:
     wfcinit      :      0.44s CPU      3.61s WALL (       1 calls)
                                        3.61s GPU  (       1 calls)
     potinit      :      0.14s CPU      0.21s WALL (       1 calls)
     hinit0       :      0.17s CPU      0.20s WALL (       1 calls)

     Called by electrons:
     c_bands      :      0.88s CPU      0.92s WALL (      10 calls)
     sum_band     :      0.20s CPU      0.22s WALL (      10 calls)
     v_of_rho     :      0.08s CPU      0.16s WALL (      10 calls)
     mix_rho      :      0.06s CPU      0.07s WALL (      10 calls)

     Called by c_bands:
     init_us_2    :      0.03s CPU      0.03s WALL (      21 calls)
     init_us_2:gp :      0.03s CPU      0.03s WALL (      21 calls)
     regterg      :      0.80s CPU      0.83s WALL (      10 calls)

     Called by *egterg:
     rdiaghg      :      0.33s CPU      0.97s WALL (      72 calls)
                                        0.95s GPU  (      72 calls)
     h_psi        :      0.77s CPU      3.33s WALL (      74 calls)
                                        3.33s GPU  (      74 calls)
     g_psi        :      0.00s CPU      0.00s WALL (      63 calls)
                                        0.00s GPU  (      63 calls)

     Called by h_psi:
     h_psi:calbec :      0.39s CPU      2.89s WALL (      74 calls)
                                        2.89s GPU  (      74 calls)
     vloc_psi     :      0.34s CPU      0.40s WALL (      74 calls)
                                        0.40s GPU  (      74 calls)
     add_vuspsi   :      0.03s CPU      0.04s WALL (      74 calls)
                                        0.04s GPU  (      74 calls)

     General routines
     calbec       :      0.39s CPU      2.89s WALL (      79 calls)
     fft          :      0.20s CPU      0.29s WALL (      87 calls)
                                        0.09s GPU  (      56 calls)
     ffts         :      0.02s CPU      0.02s WALL (      10 calls)
     fftw         :      0.37s CPU      0.50s WALL (    1130 calls)
                                        0.45s GPU  (    1130 calls)
 
     Parallel routines
 
     PWSCF        :      2.22s CPU      5.66s WALL

 
   This run was terminated on:  11: 0:58  10May2023            

=------------------------------------------------------------------------------=
   JOB DONE.
=------------------------------------------------------------------------------=
