An instance of this daemon is already running
An instance of this daemon is already running
An instance of this daemon is already running

     Program PWSCF v.7.1 starts on 10May2023 at 11: 0:20 

     This program is part of the open-source Quantum ESPRESSO suite
     for quantum simulation of materials; please cite
         "P. Giannozzi et al., J. Phys.:Condens. Matter 21 395502 (2009);
         "P. Giannozzi et al., J. Phys.:Condens. Matter 29 465901 (2017);
         "P. Giannozzi et al., J. Chem. Phys. 152 154105 (2020);
          URL http://www.quantum-espresso.org", 
     in publications or presentations arising from this work. More details at
     http://www.quantum-espresso.org/quote

     Parallel version (MPI & OpenMP), running on       4 processor cores
     Number of MPI processes:                 4
     Threads/MPI process:                     1

     MPI processes distributed on     1 nodes
     150557 MiB available memory on the printing compute node when the environment starts
 
     Reading input from pw-si-31.in
Warning: card &CELL ignored
Warning: card / ignored

     Current dimensions of program PWSCF are:
     Max number of different atomic species (ntypx) = 10
     Max number of k-points (npk) =  40000
     Max angular momentum in pseudopotentials (lmaxx) =  4

     IMPORTANT: XC functional enforced from input :
     Exchange-correlation= PBE
                           (   1   4   3   4   0   0   0)
     Any further DFT definition will be discarded
     Please, verify this is what you really want


     gamma-point specific algorithms are used
 
     K-points division:     npool     =       2
     R & G space division:  proc/nbgrp/npool/nimage =       2
     Subspace diagonalization in iterative solution of the eigenvalue problem:
     a serial algorithm will be used

     Message from routine divide_et_impera:
     suboptimal parallelization: some nodes have no k-points
 
     Parallelization info
     --------------------
     sticks:   dense  smooth     PW     G-vecs:    dense   smooth      PW
     Min        2069    2069    545                99805    99805   13565
     Max        2072    2072    548                99812    99812   13568
     Sum        4141    4141   1093               199617   199617   27133
 
     Using Slab Decomposition
 


     bravais-lattice index     =            0
     lattice parameter (alat)  =      20.8575  a.u.
     unit-cell volume          =    8993.1690 (a.u.)^3
     number of atoms/cell      =           64
     number of atomic types    =            1
     number of electrons       =       256.00
     number of Kohn-Sham states=          154
     kinetic-energy cutoff     =      30.0000  Ry
     charge density cutoff     =     120.0000  Ry
     scf convergence threshold =      1.0E-06
     mixing beta               =       0.5000
     number of iterations used =            8  plain     mixing
     Exchange-correlation= PBE
                           (   1   4   3   4   0   0   0)

     GPU acceleration is ACTIVE.
     GPU-aware MPI enabled

     Message from routine print_cuda_info:
     High GPU oversubscription detected. Are you sure this is what you want?

     celldm(1)=  20.857485  celldm(2)=   0.000000  celldm(3)=   0.000000
     celldm(4)=   0.000000  celldm(5)=   0.000000  celldm(6)=   0.000000

     crystal axes: (cart. coord. in units of alat)
               a(1) = (   1.000000   0.000000   0.000000 )  
               a(2) = (   0.000000   0.995371   0.000000 )  
               a(3) = (   0.000000   0.000000   0.995731 )  

     reciprocal axes: (cart. coord. in units 2 pi/alat)
               b(1) = (  1.000000  0.000000  0.000000 )  
               b(2) = (  0.000000  1.004651  0.000000 )  
               b(3) = (  0.000000  0.000000  1.004287 )  


     PseudoPot. # 1 for Si read from file:
     /home/ppiaggi/pseudos/Si_ONCV_PBE_sr.upf
     MD5 check sum: 8553c464762ac42b85b1eed164b4d029
     Pseudo is Norm-conserving, Zval =  4.0
     Generated using ONCVPSP code by D. R. Hamann
     Using radial grid of 1510 points,  4 beta functions with: 
                l(1) =   0
                l(2) =   0
                l(3) =   1
                l(4) =   1

     atomic species   valence    mass     pseudopotential
        Si             4.00    28.08500     Si( 1.00)

     No symmetry found



   Cartesian axes

     site n.     atom                  positions (alat units)
         1           Si  tau(   1) = (  -0.0000701   0.0005763   0.0003848  )
         2           Si  tau(   2) = (  -0.0000017   0.2479807   0.2503693  )
         3           Si  tau(   3) = (   0.2519768  -0.0003345   0.2516546  )
         4           Si  tau(   4) = (   0.2514756   0.2479142   0.0005330  )
         5           Si  tau(   5) = (   0.1248111   0.1249475   0.1246488  )
         6           Si  tau(   6) = (   0.5024960   0.0003989   0.0001958  )
         7           Si  tau(   7) = (   0.5024583   0.2479441   0.2519368  )
         8           Si  tau(   8) = (   0.6281135   0.1247470   0.1257693  )
         9           Si  tau(   9) = (   0.7526692   0.0002059   0.2516001  )
        10           Si  tau(  10) = (   0.7542849   0.2483442   0.0004237  )
        11           Si  tau(  11) = (  -0.0004885   0.4976117  -0.0008395  )
        12           Si  tau(  12) = (   0.2502457   0.4974945   0.2514490  )
        13           Si  tau(  13) = (   0.1257547   0.6220921   0.1261596  )
        14           Si  tau(  14) = (   0.3775004   0.3734872   0.1253843  )
        15           Si  tau(  15) = (   0.5013802   0.4966282  -0.0001499  )
        16           Si  tau(  16) = (   0.6283557   0.6222319   0.1263064  )
        17           Si  tau(  17) = (   0.8798149   0.3731179   0.1253043  )
        18           Si  tau(  18) = (   0.7532682   0.4963451   0.2516007  )
        19           Si  tau(  19) = (   0.0007793   0.7458683   0.2516877  )
        20           Si  tau(  20) = (   0.2510592   0.7452842  -0.0005025  )
        21           Si  tau(  21) = (   0.3770889   0.8707665   0.1262240  )
        22           Si  tau(  22) = (   0.5020832   0.7451234   0.2510804  )
        23           Si  tau(  23) = (   0.7537647   0.7462291   0.0002754  )
        24           Si  tau(  24) = (   0.8787418   0.8707206   0.1255934  )
        25           Si  tau(  25) = (  -0.0001278   0.0002016   0.5021515  )
        26           Si  tau(  26) = (   0.2515274   0.2486558   0.5019667  )
        27           Si  tau(  27) = (   0.1253104   0.1250185   0.6270355  )
        28           Si  tau(  28) = (   0.3763736   0.1250418   0.3768208  )
        29           Si  tau(  29) = (   0.5030275   0.0007948   0.5022243  )
        30           Si  tau(  30) = (   0.6273695   0.1238635   0.6269162  )
        31           Si  tau(  31) = (   0.8780697   0.1248126   0.3763882  )
        32           Si  tau(  32) = (   0.7531137   0.2492339   0.5017607  )
        33           Si  tau(  33) = (   0.1253449   0.3730342   0.3757751  )
        34           Si  tau(  34) = (   0.0004192   0.4970089   0.5025549  )
        35           Si  tau(  35) = (   0.1252370   0.6207550   0.6280423  )
        36           Si  tau(  36) = (   0.6272891   0.3720709   0.3774121  )
        37           Si  tau(  37) = (   0.3770582   0.6215879   0.3762294  )
        38           Si  tau(  38) = (   0.3760663   0.3723963   0.6283189  )
        39           Si  tau(  39) = (   0.5014061   0.4977443   0.5012834  )
        40           Si  tau(  40) = (   0.6274715   0.6214777   0.6275078  )
        41           Si  tau(  41) = (   0.8784752   0.6212908   0.3771304  )
        42           Si  tau(  42) = (   0.8794204   0.3728059   0.6282909  )
        43           Si  tau(  43) = (   0.1254181   0.8708245   0.3762325  )
        44           Si  tau(  44) = (   0.2507293   0.7464370   0.5027076  )
        45           Si  tau(  45) = (   0.6272092   0.8695440   0.3774279  )
        46           Si  tau(  46) = (   0.3762664   0.8709104   0.6267495  )
        47           Si  tau(  47) = (   0.7538414   0.7461273   0.5028527  )
        48           Si  tau(  48) = (   0.8787282   0.8694315   0.6277026  )
        49           Si  tau(  49) = (  -0.0005296   0.2486269   0.7527562  )
        50           Si  tau(  50) = (   0.2504966  -0.0006162   0.7527058  )
        51           Si  tau(  51) = (   0.3773435   0.1252147   0.8795198  )
        52           Si  tau(  52) = (   0.5015912   0.2477354   0.7533474  )
        53           Si  tau(  53) = (   0.7527135  -0.0006059   0.7533326  )
        54           Si  tau(  54) = (   0.8781856   0.1239527   0.8788560  )
        55           Si  tau(  55) = (   0.1256376   0.3723908   0.8789176  )
        56           Si  tau(  56) = (   0.2514960   0.4972102   0.7539362  )
        57           Si  tau(  57) = (   0.6271753   0.3723890   0.8778869  )
        58           Si  tau(  58) = (   0.3765935   0.6222130   0.8792221  )
        59           Si  tau(  59) = (   0.7525176   0.4972590   0.7540374  )
        60           Si  tau(  60) = (   0.8797614   0.6214887   0.8785335  )
        61           Si  tau(  61) = (  -0.0001501   0.7465950   0.7524479  )
        62           Si  tau(  62) = (   0.1246588   0.8704573   0.8794499  )
        63           Si  tau(  63) = (   0.5014642   0.7463793   0.7531825  )
        64           Si  tau(  64) = (   0.6278536   0.8703005   0.8781263  )

     number of k points=     1  Fermi-Dirac smearing, width (Ry)=  0.0100
                       cart. coord. in units 2pi/alat
        k(    1) = (   0.0000000   0.0000000   0.0000000), wk =   2.0000000

     Dense  grid:    99809 G-vectors     FFT dimensions: (  75,  75,  75)

     Estimated max dynamical RAM per process >     160.48 MB

     Estimated total dynamical RAM >     617.55 MB

     Initial potential from superposition of free atoms

     starting charge     255.9608, renormalised to     256.0000
     Starting wfcs are  256 randomized atomic wfcs

     total cpu time spent up to now is        4.0 secs

     Self-consistent Calculation

     iteration #  1     ecut=    30.00 Ry     beta= 0.50
     Davidson diagonalization with overlap
     ethr =  1.00E-02,  avg # of iterations =  3.0

     Threshold (ethr) on eigenvalues was too large:
     Diagonalizing with lowered threshold

     Davidson diagonalization with overlap
     ethr =  6.41E-04,  avg # of iterations =  4.0

     total cpu time spent up to now is        4.2 secs

     total energy              =    -503.97003077 Ry
     estimated scf accuracy    <       1.81947708 Ry

     iteration #  2     ecut=    30.00 Ry     beta= 0.50
     Davidson diagonalization with overlap
     ethr =  7.11E-04,  avg # of iterations =  1.0

     total cpu time spent up to now is        4.3 secs

     total energy              =    -503.95115252 Ry
     estimated scf accuracy    <       0.34456830 Ry

     iteration #  3     ecut=    30.00 Ry     beta= 0.50
     Davidson diagonalization with overlap
     ethr =  1.35E-04,  avg # of iterations =  4.0

     total cpu time spent up to now is        4.4 secs

     total energy              =    -503.97251367 Ry
     estimated scf accuracy    <       0.00771844 Ry

     iteration #  4     ecut=    30.00 Ry     beta= 0.50
     Davidson diagonalization with overlap
     c_bands:  3 eigenvalues not converged
     ethr =  3.02E-06,  avg # of iterations = 20.0

     total cpu time spent up to now is        4.7 secs

     total energy              =    -503.97454671 Ry
     estimated scf accuracy    <       0.00941558 Ry

     iteration #  5     ecut=    30.00 Ry     beta= 0.50
     Davidson diagonalization with overlap
     ethr =  3.02E-06,  avg # of iterations =  6.0

     total cpu time spent up to now is        4.8 secs

     total energy              =    -503.97626333 Ry
     estimated scf accuracy    <       0.00049883 Ry

     iteration #  6     ecut=    30.00 Ry     beta= 0.50
     Davidson diagonalization with overlap
     ethr =  1.95E-07,  avg # of iterations =  3.0

     total cpu time spent up to now is        4.9 secs

     total energy              =    -503.97630591 Ry
     estimated scf accuracy    <       0.00011784 Ry

     iteration #  7     ecut=    30.00 Ry     beta= 0.50
     Davidson diagonalization with overlap
     ethr =  4.60E-08,  avg # of iterations =  5.0

     total cpu time spent up to now is        5.0 secs

     total energy              =    -503.97631121 Ry
     estimated scf accuracy    <       0.00002001 Ry

     iteration #  8     ecut=    30.00 Ry     beta= 0.50
     Davidson diagonalization with overlap
     ethr =  7.82E-09,  avg # of iterations =  5.0

     total cpu time spent up to now is        5.1 secs

     total energy              =    -503.97631725 Ry
     estimated scf accuracy    <       0.00000217 Ry

     iteration #  9     ecut=    30.00 Ry     beta= 0.50
     Davidson diagonalization with overlap
     ethr =  8.46E-10,  avg # of iterations =  4.0

     total cpu time spent up to now is        5.3 secs

     total energy              =    -503.97631708 Ry
     estimated scf accuracy    <       0.00000188 Ry

     iteration # 10     ecut=    30.00 Ry     beta= 0.50
     Davidson diagonalization with overlap
     ethr =  7.34E-10,  avg # of iterations =  3.0

     total cpu time spent up to now is        5.3 secs

     End of self-consistent calculation

          k = 0.0000 0.0000 0.0000 ( 12479 PWs)   bands (ev):

    -5.8540  -4.8537  -4.8409  -4.8162  -4.7973  -4.7747  -4.7399  -3.9912
    -3.9560  -3.9422  -3.9030  -3.8948  -3.8894  -3.8644  -3.8517  -3.8393
    -3.8152  -3.7984  -3.7809  -3.6466  -3.5951  -3.5846  -3.5387  -1.9437
    -1.9185  -1.8778  -1.8177  -1.8056  -1.7843  -1.7289  -1.7180  -1.7161
    -1.7115  -1.6993  -1.6810  -1.6730  -1.6609  -1.6551  -1.6520  -1.6449
    -1.6275  -0.9791  -0.9675  -0.9413  -0.8652   0.4009   0.4101   0.4174
     0.4240   0.4372   0.4428   0.4437   0.4501   0.4520   0.4582   0.4782
     0.4947   2.0664   2.0733   2.0840   2.0899   2.1279   2.1414   2.1540
     2.1608   2.1658   2.1739   2.1768   2.1806   2.2224   2.2385   2.2487
     2.2585   2.2684   2.2721   2.2771   2.2798   2.2842   2.2874   2.2997
     2.3047   2.3306   2.3332   2.3550   2.3638   2.3707   2.3860   3.0556
     3.0887   3.0953   3.1161   3.1286   3.1479   3.9336   3.9999   4.0121
     4.0164   4.0246   4.0423   4.0505   4.0523   4.0929   4.0975   4.1020
     4.1093   4.3142   4.4889   4.5234   4.5606   4.5732   4.5877   4.5919
     4.6029   4.6127   4.6267   4.6333   4.6536   4.6724   4.6883   4.6941
     4.7257   4.7341   4.7431   4.7575   4.7852   5.8148   5.8667   5.9251
     6.5270   6.5622   6.5799   6.6437   6.6693   6.6930   6.9848   6.9865
     6.9968   7.0190   7.0268   7.0472   7.2174   7.2291   7.2392   7.2465
     8.1314   8.2131   8.2176   8.2300   8.2412   8.2558   8.2723   8.2779
     8.2979   8.3112

     the Fermi energy is     6.1832 ev

!    total energy              =    -503.97631720 Ry
     estimated scf accuracy    <       0.00000011 Ry
     smearing contrib. (-TS)   =      -0.04211134 Ry
     internal energy E=F+TS    =    -503.93420586 Ry

     The total energy is F=E-TS. E is the sum of the following terms:
     one-electron contribution =     142.27664211 Ry
     hartree contribution      =      37.17278203 Ry
     xc contribution           =    -153.08563598 Ry
     ewald contribution        =    -530.29799402 Ry

     convergence has been achieved in  10 iterations

     Forces acting on atoms (cartesian axes, Ry/au):

     atom    1 type  1   force =     0.01143396   -0.00540689    0.02507686
     atom    2 type  1   force =     0.01218760    0.00301051    0.00249373
     atom    3 type  1   force =    -0.00608459    0.00307327   -0.00402222
     atom    4 type  1   force =    -0.00086426    0.00669592    0.02510078
     atom    5 type  1   force =     0.00888221   -0.00642766    0.00937245
     atom    6 type  1   force =     0.00143246   -0.00371593    0.02552357
     atom    7 type  1   force =    -0.00186582    0.00390181   -0.00469776
     atom    8 type  1   force =    -0.00043573   -0.00182319    0.00320098
     atom    9 type  1   force =    -0.00156464   -0.00525043   -0.00058819
     atom   10 type  1   force =    -0.00733968    0.00474605    0.02349717
     atom   11 type  1   force =     0.02163063   -0.00336552    0.03204350
     atom   12 type  1   force =     0.00585216   -0.00067584   -0.00315940
     atom   13 type  1   force =    -0.00053717   -0.00268677   -0.00153007
     atom   14 type  1   force =    -0.00506907   -0.00417902    0.00860744
     atom   15 type  1   force =     0.00742060    0.00569626    0.02578671
     atom   16 type  1   force =    -0.00176268   -0.00637161   -0.00170082
     atom   17 type  1   force =    -0.01611935    0.00050085    0.00361741
     atom   18 type  1   force =    -0.00166600    0.00120729   -0.00061255
     atom   19 type  1   force =     0.00653874    0.00141332   -0.00203782
     atom   20 type  1   force =    -0.00105170    0.00750471    0.03167532
     atom   21 type  1   force =    -0.00031494   -0.00194382   -0.00167644
     atom   22 type  1   force =     0.00069465    0.00444852    0.00067905
     atom   23 type  1   force =    -0.00156176   -0.00087190    0.02286352
     atom   24 type  1   force =    -0.01095032    0.00144141    0.00692542
     atom   25 type  1   force =     0.01043224   -0.00178281   -0.00212424
     atom   26 type  1   force =    -0.00434476    0.00287044   -0.00143177
     atom   27 type  1   force =     0.00231581   -0.00322711    0.00201404
     atom   28 type  1   force =     0.00336522   -0.00464622    0.00167822
     atom   29 type  1   force =    -0.00697384   -0.00578770   -0.00417890
     atom   30 type  1   force =     0.00425540    0.00336087    0.00467109
     atom   31 type  1   force =    -0.01034795   -0.00230952    0.00200799
     atom   32 type  1   force =     0.00026729   -0.00210792    0.00425853
     atom   33 type  1   force =     0.00142153   -0.00315197    0.00490265
     atom   34 type  1   force =     0.01048224   -0.00069083   -0.00330022
     atom   35 type  1   force =     0.00514840    0.00416339    0.00019090
     atom   36 type  1   force =    -0.00029812    0.00464296   -0.00183912
     atom   37 type  1   force =    -0.00672819    0.00202419    0.00280308
     atom   38 type  1   force =     0.00379517    0.00361421   -0.00276353
     atom   39 type  1   force =     0.00144173   -0.00456686    0.00501060
     atom   40 type  1   force =    -0.00098501    0.00104810    0.00128007
     atom   41 type  1   force =    -0.00997542    0.00035900    0.00026827
     atom   42 type  1   force =    -0.01876680    0.00319397   -0.00227208
     atom   43 type  1   force =     0.00314366    0.00082960    0.00490420
     atom   44 type  1   force =     0.00007757   -0.00350615   -0.00514667
     atom   45 type  1   force =     0.00222948    0.00382046   -0.00144081
     atom   46 type  1   force =     0.00280049    0.00202677    0.00340013
     atom   47 type  1   force =    -0.00544594   -0.00308206   -0.00334124
     atom   48 type  1   force =    -0.01235551    0.00978134   -0.00071264
     atom   49 type  1   force =     0.01533052   -0.00282339    0.00130212
     atom   50 type  1   force =     0.00184469    0.00361308    0.00137629
     atom   51 type  1   force =    -0.00502777   -0.00923962   -0.02993021
     atom   52 type  1   force =     0.00253926    0.00217766   -0.00649704
     atom   53 type  1   force =     0.00049688   -0.00043433   -0.00629620
     atom   54 type  1   force =    -0.01106340    0.00097948   -0.02964591
     atom   55 type  1   force =     0.00161913    0.00035259   -0.02532819
     atom   56 type  1   force =    -0.00228396   -0.00039125   -0.00327414
     atom   57 type  1   force =     0.00182985   -0.00187195   -0.01908568
     atom   58 type  1   force =     0.00230985   -0.00355465   -0.02863764
     atom   59 type  1   force =     0.00187300    0.00007261   -0.00707816
     atom   60 type  1   force =    -0.02120325    0.00667132   -0.02860649
     atom   61 type  1   force =     0.01498582   -0.00466493    0.00127778
     atom   62 type  1   force =     0.00455597    0.00104583   -0.02872177
     atom   63 type  1   force =     0.00095112   -0.00041404   -0.00541365
     atom   64 type  1   force =    -0.00259773    0.00068407   -0.02071831

     Total force =     0.129522     Total SCF correction =     0.000637


     Computing stress (Cartesian axis) and pressure

          total   stress  (Ry/bohr**3)                   (kbar)     P=       -6.04
  -0.00005580  -0.00003065  -0.00000048           -8.21       -4.51       -0.07
  -0.00003065  -0.00002966  -0.00001521           -4.51       -4.36       -2.24
  -0.00000048  -0.00001521  -0.00003763           -0.07       -2.24       -5.53

 
     init_run     :      0.75s CPU      3.95s WALL (       1 calls)
     electrons    :      1.22s CPU      1.34s WALL (       1 calls)
     forces       :      0.03s CPU      0.04s WALL (       1 calls)
     stress       :      0.15s CPU      0.16s WALL (       1 calls)

     Called by init_run:
     wfcinit      :      0.41s CPU      3.48s WALL (       1 calls)
                                        3.48s GPU  (       1 calls)
     potinit      :      0.15s CPU      0.21s WALL (       1 calls)
     hinit0       :      0.17s CPU      0.20s WALL (       1 calls)

     Called by electrons:
     c_bands      :      0.86s CPU      0.92s WALL (      11 calls)
     sum_band     :      0.20s CPU      0.24s WALL (      11 calls)
     v_of_rho     :      0.09s CPU      0.16s WALL (      11 calls)
     mix_rho      :      0.06s CPU      0.08s WALL (      11 calls)

     Called by c_bands:
     init_us_2    :      0.03s CPU      0.03s WALL (      23 calls)
     init_us_2:gp :      0.03s CPU      0.03s WALL (      23 calls)
     regterg      :      0.78s CPU      0.83s WALL (      11 calls)

     Called by *egterg:
     rdiaghg      :      0.30s CPU      0.92s WALL (      68 calls)
                                        0.90s GPU  (      68 calls)
     h_psi        :      0.76s CPU      3.24s WALL (      70 calls)
                                        3.24s GPU  (      70 calls)
     g_psi        :      0.00s CPU      0.00s WALL (      58 calls)
                                        0.00s GPU  (      58 calls)

     Called by h_psi:
     h_psi:calbec :      0.37s CPU      2.78s WALL (      70 calls)
                                        2.78s GPU  (      70 calls)
     vloc_psi     :      0.36s CPU      0.42s WALL (      70 calls)
                                        0.42s GPU  (      70 calls)
     add_vuspsi   :      0.02s CPU      0.04s WALL (      70 calls)
                                        0.04s GPU  (      70 calls)

     General routines
     calbec       :      0.37s CPU      2.78s WALL (      75 calls)
     fft          :      0.21s CPU      0.30s WALL (      95 calls)
                                        0.10s GPU  (      61 calls)
     ffts         :      0.02s CPU      0.03s WALL (      11 calls)
     fftw         :      0.39s CPU      0.52s WALL (    1211 calls)
                                        0.47s GPU  (    1211 calls)
 
     Parallel routines
 
     PWSCF        :      2.19s CPU      5.56s WALL

 
   This run was terminated on:  11: 0:26  10May2023            

=------------------------------------------------------------------------------=
   JOB DONE.
=------------------------------------------------------------------------------=
