An instance of this daemon is already running

     Program PWSCF v.7.1 starts on 10May2023 at 11: 3:46 

     This program is part of the open-source Quantum ESPRESSO suite
     for quantum simulation of materials; please cite
         "P. Giannozzi et al., J. Phys.:Condens. Matter 21 395502 (2009);
         "P. Giannozzi et al., J. Phys.:Condens. Matter 29 465901 (2017);
         "P. Giannozzi et al., J. Chem. Phys. 152 154105 (2020);
          URL http://www.quantum-espresso.org", 
     in publications or presentations arising from this work. More details at
     http://www.quantum-espresso.org/quote

     Parallel version (MPI & OpenMP), running on       4 processor cores
     Number of MPI processes:                 4
     Threads/MPI process:                     1

     MPI processes distributed on     1 nodes
     149903 MiB available memory on the printing compute node when the environment starts
 
     Reading input from pw-si-56.in
Warning: card &CELL ignored
Warning: card / ignored

     Current dimensions of program PWSCF are:
     Max number of different atomic species (ntypx) = 10
     Max number of k-points (npk) =  40000
     Max angular momentum in pseudopotentials (lmaxx) =  4

     IMPORTANT: XC functional enforced from input :
     Exchange-correlation= PBE
                           (   1   4   3   4   0   0   0)
     Any further DFT definition will be discarded
     Please, verify this is what you really want


     gamma-point specific algorithms are used
 
     K-points division:     npool     =       2
     R & G space division:  proc/nbgrp/npool/nimage =       2
     Subspace diagonalization in iterative solution of the eigenvalue problem:
     a serial algorithm will be used

     Message from routine divide_et_impera:
     suboptimal parallelization: some nodes have no k-points
 
     Parallelization info
     --------------------
     sticks:   dense  smooth     PW     G-vecs:    dense   smooth      PW
     Min        2065    2065    545                98647    98647   13432
     Max        2068    2068    548                98648    98648   13433
     Sum        4133    4133   1093               197295   197295   26865
 
     Using Slab Decomposition
 


     bravais-lattice index     =            0
     lattice parameter (alat)  =      20.8309  a.u.
     unit-cell volume          =    8888.1124 (a.u.)^3
     number of atoms/cell      =           64
     number of atomic types    =            1
     number of electrons       =       256.00
     number of Kohn-Sham states=          154
     kinetic-energy cutoff     =      30.0000  Ry
     charge density cutoff     =     120.0000  Ry
     scf convergence threshold =      1.0E-06
     mixing beta               =       0.5000
     number of iterations used =            8  plain     mixing
     Exchange-correlation= PBE
                           (   1   4   3   4   0   0   0)

     GPU acceleration is ACTIVE.
     GPU-aware MPI enabled

     Message from routine print_cuda_info:
     High GPU oversubscription detected. Are you sure this is what you want?

     celldm(1)=  20.830939  celldm(2)=   0.000000  celldm(3)=   0.000000
     celldm(4)=   0.000000  celldm(5)=   0.000000  celldm(6)=   0.000000

     crystal axes: (cart. coord. in units of alat)
               a(1) = (   1.000000   0.000000   0.000000 )  
               a(2) = (   0.000000   0.995193   0.000000 )  
               a(3) = (   0.000000   0.000000   0.988042 )  

     reciprocal axes: (cart. coord. in units 2 pi/alat)
               b(1) = (  1.000000  0.000000  0.000000 )  
               b(2) = (  0.000000  1.004830  0.000000 )  
               b(3) = (  0.000000  0.000000  1.012103 )  


     PseudoPot. # 1 for Si read from file:
     /home/ppiaggi/pseudos/Si_ONCV_PBE_sr.upf
     MD5 check sum: 8553c464762ac42b85b1eed164b4d029
     Pseudo is Norm-conserving, Zval =  4.0
     Generated using ONCVPSP code by D. R. Hamann
     Using radial grid of 1510 points,  4 beta functions with: 
                l(1) =   0
                l(2) =   0
                l(3) =   1
                l(4) =   1

     atomic species   valence    mass     pseudopotential
        Si             4.00    28.08500     Si( 1.00)

     No symmetry found



   Cartesian axes

     site n.     atom                  positions (alat units)
         1           Si  tau(   1) = (  -0.0006101  -0.0008483   0.0000129  )
         2           Si  tau(   2) = (   0.0004203   0.2489610   0.2464313  )
         3           Si  tau(   3) = (   0.2523468  -0.0001407   0.2466513  )
         4           Si  tau(   4) = (   0.2516537   0.2495365   0.0001172  )
         5           Si  tau(   5) = (   0.1266589   0.1238647   0.1236962  )
         6           Si  tau(   6) = (   0.5041171   0.0008121   0.0006076  )
         7           Si  tau(   7) = (   0.5030945   0.2482603   0.2473376  )
         8           Si  tau(   8) = (   0.6290046   0.1253575   0.1242456  )
         9           Si  tau(   9) = (   0.7560237  -0.0005037   0.2461694  )
        10           Si  tau(  10) = (   0.7558379   0.2491256  -0.0005894  )
        11           Si  tau(  11) = (   0.0004323   0.4976168   0.0002287  )
        12           Si  tau(  12) = (   0.2525989   0.4981782   0.2471870  )
        13           Si  tau(  13) = (   0.1264547   0.6225614   0.1237511  )
        14           Si  tau(  14) = (   0.3776332   0.3731879   0.1233911  )
        15           Si  tau(  15) = (   0.5042929   0.4983341  -0.0002129  )
        16           Si  tau(  16) = (   0.6290571   0.6217542   0.1242346  )
        17           Si  tau(  17) = (   0.8820609   0.3739112   0.1227002  )
        18           Si  tau(  18) = (   0.7555183   0.4988318   0.2473322  )
        19           Si  tau(  19) = (  -0.0008696   0.7464314   0.2466939  )
        20           Si  tau(  20) = (   0.2527735   0.7480284  -0.0006701  )
        21           Si  tau(  21) = (   0.3778981   0.8723485   0.1238600  )
        22           Si  tau(  22) = (   0.5033403   0.7474029   0.2470793  )
        23           Si  tau(  23) = (   0.7550604   0.7477906   0.0004721  )
        24           Si  tau(  24) = (   0.8820301   0.8713041   0.1238715  )
        25           Si  tau(  25) = (   0.0007593   0.0003654   0.4940198  )
        26           Si  tau(  26) = (   0.2524387   0.2487987   0.4929239  )
        27           Si  tau(  27) = (   0.1263923   0.1237064   0.6175400  )
        28           Si  tau(  28) = (   0.3782260   0.1239939   0.3692647  )
        29           Si  tau(  29) = (   0.5031113   0.0000017   0.4940255  )
        30           Si  tau(  30) = (   0.6301117   0.1242025   0.6166213  )
        31           Si  tau(  31) = (   0.8825930   0.1236982   0.3708973  )
        32           Si  tau(  32) = (   0.7563444   0.2494705   0.4940168  )
        33           Si  tau(  33) = (   0.1252781   0.3736579   0.3709156  )
        34           Si  tau(  34) = (  -0.0002146   0.4988794   0.4928224  )
        35           Si  tau(  35) = (   0.1254085   0.6223415   0.6161666  )
        36           Si  tau(  36) = (   0.6305608   0.3739142   0.3696013  )
        37           Si  tau(  37) = (   0.3779476   0.6228552   0.3696177  )
        38           Si  tau(  38) = (   0.3782547   0.3739219   0.6161176  )
        39           Si  tau(  39) = (   0.5035839   0.4981163   0.4933211  )
        40           Si  tau(  40) = (   0.6295302   0.6219566   0.6163695  )
        41           Si  tau(  41) = (   0.8821795   0.6233523   0.3705797  )
        42           Si  tau(  42) = (   0.8818600   0.3727841   0.6167160  )
        43           Si  tau(  43) = (   0.1262156   0.8714782   0.3708227  )
        44           Si  tau(  44) = (   0.2512705   0.7474752   0.4943608  )
        45           Si  tau(  45) = (   0.6295536   0.8721948   0.3709327  )
        46           Si  tau(  46) = (   0.3773457   0.8713971   0.6169189  )
        47           Si  tau(  47) = (   0.7559241   0.7477449   0.4936013  )
        48           Si  tau(  48) = (   0.8818813   0.8713524   0.6160562  )
        49           Si  tau(  49) = (  -0.0002793   0.2485150   0.7401478  )
        50           Si  tau(  50) = (   0.2512244  -0.0002517   0.7395774  )
        51           Si  tau(  51) = (   0.3773987   0.1245887   0.8635049  )
        52           Si  tau(  52) = (   0.5042421   0.2494648   0.7405900  )
        53           Si  tau(  53) = (   0.7553136   0.0007417   0.7405037  )
        54           Si  tau(  54) = (   0.8808098   0.1240689   0.8627613  )
        55           Si  tau(  55) = (   0.1258414   0.3727241   0.8637375  )
        56           Si  tau(  56) = (   0.2517428   0.4988641   0.7401563  )
        57           Si  tau(  57) = (   0.6297041   0.3731072   0.8644671  )
        58           Si  tau(  58) = (   0.3778115   0.6223985   0.8631817  )
        59           Si  tau(  59) = (   0.7555508   0.4982151   0.7406424  )
        60           Si  tau(  60) = (   0.8811591   0.6232772   0.8634930  )
        61           Si  tau(  61) = (  -0.0008913   0.7475953   0.7398272  )
        62           Si  tau(  62) = (   0.1263283   0.8709225   0.8632258  )
        63           Si  tau(  63) = (   0.5035454   0.7474834   0.7408525  )
        64           Si  tau(  64) = (   0.6302776   0.8724440   0.8640918  )

     number of k points=     1  Fermi-Dirac smearing, width (Ry)=  0.0100
                       cart. coord. in units 2pi/alat
        k(    1) = (   0.0000000   0.0000000   0.0000000), wk =   2.0000000

     Dense  grid:    98648 G-vectors     FFT dimensions: (  75,  75,  72)

     Estimated max dynamical RAM per process >     158.04 MB

     Estimated total dynamical RAM >     608.06 MB

     Initial potential from superposition of free atoms

     starting charge     255.9608, renormalised to     256.0000
     Starting wfcs are  256 randomized atomic wfcs

     total cpu time spent up to now is        4.1 secs

     Self-consistent Calculation

     iteration #  1     ecut=    30.00 Ry     beta= 0.50
     Davidson diagonalization with overlap
     ethr =  1.00E-02,  avg # of iterations =  3.0

     Threshold (ethr) on eigenvalues was too large:
     Diagonalizing with lowered threshold

     Davidson diagonalization with overlap
     ethr =  6.55E-04,  avg # of iterations =  2.0

     total cpu time spent up to now is        4.3 secs

     total energy              =    -503.97500750 Ry
     estimated scf accuracy    <       1.85374395 Ry

     iteration #  2     ecut=    30.00 Ry     beta= 0.50
     Davidson diagonalization with overlap
     ethr =  7.24E-04,  avg # of iterations =  2.0

     total cpu time spent up to now is        4.4 secs

     total energy              =    -503.95595635 Ry
     estimated scf accuracy    <       0.34802679 Ry

     iteration #  3     ecut=    30.00 Ry     beta= 0.50
     Davidson diagonalization with overlap
     ethr =  1.36E-04,  avg # of iterations =  4.0

     total cpu time spent up to now is        4.5 secs

     total energy              =    -503.97813047 Ry
     estimated scf accuracy    <       0.00769943 Ry

     iteration #  4     ecut=    30.00 Ry     beta= 0.50
     Davidson diagonalization with overlap
     c_bands:  4 eigenvalues not converged
     ethr =  3.01E-06,  avg # of iterations = 20.0

     total cpu time spent up to now is        4.7 secs

     total energy              =    -503.98014338 Ry
     estimated scf accuracy    <       0.00953841 Ry

     iteration #  5     ecut=    30.00 Ry     beta= 0.50
     Davidson diagonalization with overlap
     ethr =  3.01E-06,  avg # of iterations =  7.0

     total cpu time spent up to now is        4.9 secs

     total energy              =    -503.98186810 Ry
     estimated scf accuracy    <       0.00052760 Ry

     iteration #  6     ecut=    30.00 Ry     beta= 0.50
     Davidson diagonalization with overlap
     ethr =  2.06E-07,  avg # of iterations =  3.0

     total cpu time spent up to now is        5.0 secs

     total energy              =    -503.98191401 Ry
     estimated scf accuracy    <       0.00011938 Ry

     iteration #  7     ecut=    30.00 Ry     beta= 0.50
     Davidson diagonalization with overlap
     ethr =  4.66E-08,  avg # of iterations =  5.0

     total cpu time spent up to now is        5.1 secs

     total energy              =    -503.98192243 Ry
     estimated scf accuracy    <       0.00001774 Ry

     iteration #  8     ecut=    30.00 Ry     beta= 0.50
     Davidson diagonalization with overlap
     ethr =  6.93E-09,  avg # of iterations =  4.0

     total cpu time spent up to now is        5.2 secs

     End of self-consistent calculation

          k = 0.0000 0.0000 0.0000 ( 12342 PWs)   bands (ev):

    -5.8102  -4.8061  -4.7639  -4.7530  -4.7452  -4.7320  -4.7031  -3.8989
    -3.8695  -3.8625  -3.8611  -3.8460  -3.8096  -3.7945  -3.7835  -3.7664
    -3.7607  -3.7595  -3.7467  -3.5688  -3.5253  -3.5192  -3.4898  -1.8260
    -1.8226  -1.8111  -1.7528  -1.7123  -1.6945  -1.6529  -1.6335  -1.6276
    -1.6190  -1.6109  -1.5943  -1.5893  -1.5858  -1.5746  -1.5658  -1.5575
    -1.5403  -0.9006  -0.8983  -0.8805  -0.8071   0.4751   0.5053   0.5255
     0.5366   0.5395   0.5411   0.5483   0.5508   0.5641   0.5663   0.5718
     0.5786   2.1563   2.1645   2.1790   2.1816   2.2227   2.2233   2.2338
     2.2373   2.2401   2.2410   2.2467   2.2499   2.2712   2.2974   2.3073
     2.3242   2.3353   2.3409   2.3456   2.3503   2.3635   2.3744   2.3821
     2.3849   2.4034   2.4355   2.4690   2.4725   2.5107   2.5136   3.1446
     3.1528   3.2002   3.2070   3.2155   3.2537   4.0727   4.0959   4.0977
     4.1073   4.1178   4.1278   4.1315   4.1566   4.1575   4.1688   4.2285
     4.2367   4.4923   4.6102   4.6155   4.6524   4.6572   4.6680   4.6773
     4.7028   4.7256   4.7447   4.7469   4.7506   4.7631   4.7740   4.7803
     4.7998   4.8528   4.8847   4.8953   4.9099   5.9422   5.9538   6.0642
     6.6335   6.6433   6.7081   6.7450   6.7542   6.7893   7.0599   7.0668
     7.1180   7.1252   7.1501   7.1873   7.3756   7.3897   7.3995   7.4007
     8.3085   8.3142   8.3233   8.3339   8.3458   8.3749   8.3819   8.3932
     8.4100   8.4655

     the Fermi energy is     6.2939 ev

!    total energy              =    -503.98192619 Ry
     estimated scf accuracy    <       0.00000073 Ry
     smearing contrib. (-TS)   =      -0.04398542 Ry
     internal energy E=F+TS    =    -503.93794076 Ry

     The total energy is F=E-TS. E is the sum of the following terms:
     one-electron contribution =     145.18973865 Ry
     hartree contribution      =      36.78408597 Ry
     xc contribution           =    -153.46723497 Ry
     ewald contribution        =    -532.44453041 Ry

     convergence has been achieved in   8 iterations

     Forces acting on atoms (cartesian axes, Ry/au):

     atom    1 type  1   force =     0.02739917    0.00704915   -0.00572804
     atom    2 type  1   force =     0.02125664   -0.00090483    0.00190356
     atom    3 type  1   force =    -0.00314858    0.00125220    0.00260436
     atom    4 type  1   force =     0.00064400   -0.00447944   -0.00302485
     atom    5 type  1   force =    -0.00095348    0.00177971   -0.00393656
     atom    6 type  1   force =    -0.00317813    0.00227187   -0.00476178
     atom    7 type  1   force =     0.00264362    0.00738832   -0.00125560
     atom    8 type  1   force =     0.00651599   -0.00186715   -0.00360857
     atom    9 type  1   force =    -0.00469679    0.00679456    0.00529190
     atom   10 type  1   force =    -0.00344541   -0.00149940    0.00192453
     atom   11 type  1   force =     0.02282695    0.00639413   -0.00758429
     atom   12 type  1   force =    -0.00422991   -0.00243489   -0.00013269
     atom   13 type  1   force =     0.00389669    0.00108676   -0.00338963
     atom   14 type  1   force =     0.00370135    0.00255667   -0.00035408
     atom   15 type  1   force =    -0.00563939   -0.00325240   -0.00097479
     atom   16 type  1   force =     0.00195261    0.00681495   -0.00301792
     atom   17 type  1   force =    -0.02669190   -0.00189890    0.00447071
     atom   18 type  1   force =     0.00249155   -0.00260848   -0.00289896
     atom   19 type  1   force =     0.03208004    0.00351266    0.00132601
     atom   20 type  1   force =    -0.00231443   -0.00499143    0.00152454
     atom   21 type  1   force =     0.00347208   -0.00490067   -0.00400719
     atom   22 type  1   force =     0.00155655    0.00067630    0.00002956
     atom   23 type  1   force =    -0.00182355   -0.00459079   -0.00135054
     atom   24 type  1   force =    -0.02692002   -0.00395300   -0.00269740
     atom   25 type  1   force =     0.02375167   -0.00047979   -0.00038969
     atom   26 type  1   force =    -0.00239452   -0.00087260    0.00289600
     atom   27 type  1   force =     0.00249004    0.00686683   -0.00407145
     atom   28 type  1   force =    -0.00169792    0.00009297    0.00527543
     atom   29 type  1   force =     0.00062245    0.00338240   -0.00097160
     atom   30 type  1   force =    -0.00296176    0.00444267    0.00132234
     atom   31 type  1   force =    -0.02708205    0.00500258   -0.00539477
     atom   32 type  1   force =    -0.00491044   -0.00419880   -0.00475783
     atom   33 type  1   force =     0.00716621    0.00013196   -0.00497811
     atom   34 type  1   force =     0.02210306   -0.00621699    0.00521599
     atom   35 type  1   force =     0.00221054    0.00265251    0.00489346
     atom   36 type  1   force =    -0.00428878   -0.00312817    0.00351408
     atom   37 type  1   force =    -0.00082560    0.00142316    0.00554350
     atom   38 type  1   force =    -0.00088049   -0.00132698    0.00438273
     atom   39 type  1   force =     0.00102624    0.00023148   -0.00382522
     atom   40 type  1   force =     0.00073657    0.00463980    0.00340701
     atom   41 type  1   force =    -0.03010236   -0.00162343   -0.00147815
     atom   42 type  1   force =    -0.02249385    0.00802267    0.00162134
     atom   43 type  1   force =     0.00039966   -0.00275196   -0.00468753
     atom   44 type  1   force =     0.00343052   -0.00449842   -0.00455894
     atom   45 type  1   force =     0.00044028   -0.00433898   -0.00397513
     atom   46 type  1   force =     0.00250651   -0.00237950    0.00200976
     atom   47 type  1   force =    -0.00572243   -0.00369419   -0.00003243
     atom   48 type  1   force =    -0.02647814    0.00334999    0.00463995
     atom   49 type  1   force =     0.02581909   -0.00044358    0.00069618
     atom   50 type  1   force =     0.00432557    0.00214578    0.00578003
     atom   51 type  1   force =     0.00200755    0.00039267    0.00262931
     atom   52 type  1   force =    -0.00343157   -0.00217752   -0.00240203
     atom   53 type  1   force =    -0.00066632   -0.00378352   -0.00525938
     atom   54 type  1   force =    -0.01886673    0.00074505    0.00883585
     atom   55 type  1   force =     0.00293202    0.00427631    0.00051933
     atom   56 type  1   force =    -0.00144716   -0.00608781   -0.00154297
     atom   57 type  1   force =     0.00159027    0.00357858   -0.00085369
     atom   58 type  1   force =     0.00248069    0.00172077    0.00568874
     atom   59 type  1   force =    -0.00265804   -0.00317979   -0.00127765
     atom   60 type  1   force =    -0.02137487   -0.00307678    0.00715445
     atom   61 type  1   force =     0.02757211   -0.00410280    0.00088939
     atom   62 type  1   force =    -0.00110593    0.00001195    0.00306002
     atom   63 type  1   force =     0.00250851   -0.00116800   -0.00265667
     atom   64 type  1   force =    -0.00412625   -0.00377641    0.00278602

     Total force =     0.112297     Total SCF correction =     0.001408


     Computing stress (Cartesian axis) and pressure

          total   stress  (Ry/bohr**3)                   (kbar)     P=        4.02
  -0.00000503   0.00000468   0.00000429           -0.74        0.69        0.63
   0.00000468   0.00002611  -0.00003281            0.69        3.84       -4.83
   0.00000429  -0.00003281   0.00006091            0.63       -4.83        8.96

 
     init_run     :      0.95s CPU      4.04s WALL (       1 calls)
     electrons    :      0.99s CPU      1.07s WALL (       1 calls)
     forces       :      0.03s CPU      0.04s WALL (       1 calls)
     stress       :      0.15s CPU      0.15s WALL (       1 calls)

     Called by init_run:
     wfcinit      :      0.53s CPU      3.47s WALL (       1 calls)
                                        3.47s GPU  (       1 calls)
     potinit      :      0.14s CPU      0.22s WALL (       1 calls)
     hinit0       :      0.26s CPU      0.28s WALL (       1 calls)

     Called by electrons:
     c_bands      :      0.71s CPU      0.75s WALL (       9 calls)
     sum_band     :      0.16s CPU      0.18s WALL (       9 calls)
     v_of_rho     :      0.08s CPU      0.16s WALL (       9 calls)
     mix_rho      :      0.05s CPU      0.05s WALL (       9 calls)

     Called by c_bands:
     init_us_2    :      0.02s CPU      0.02s WALL (      19 calls)
     init_us_2:gp :      0.02s CPU      0.02s WALL (      19 calls)
     regterg      :      0.64s CPU      0.68s WALL (       9 calls)

     Called by *egterg:
     rdiaghg      :      0.28s CPU      0.90s WALL (      58 calls)
                                        0.89s GPU  (      58 calls)
     h_psi        :      0.79s CPU      3.12s WALL (      60 calls)
                                        3.12s GPU  (      60 calls)
     g_psi        :      0.00s CPU      0.00s WALL (      50 calls)
                                        0.00s GPU  (      50 calls)

     Called by h_psi:
     h_psi:calbec :      0.48s CPU      2.76s WALL (      60 calls)
                                        2.76s GPU  (      60 calls)
     vloc_psi     :      0.27s CPU      0.33s WALL (      60 calls)
                                        0.32s GPU  (      60 calls)
     add_vuspsi   :      0.02s CPU      0.03s WALL (      60 calls)
                                        0.03s GPU  (      60 calls)

     General routines
     calbec       :      0.48s CPU      2.76s WALL (      65 calls)
     fft          :      0.28s CPU      0.38s WALL (      79 calls)
                                        0.10s GPU  (      51 calls)
     ffts         :      0.02s CPU      0.02s WALL (       9 calls)
     fftw         :      0.30s CPU      0.40s WALL (     997 calls)
                                        0.37s GPU  (     997 calls)
 
     Parallel routines
 
     PWSCF        :      2.17s CPU      5.37s WALL

 
   This run was terminated on:  11: 3:51  10May2023            

=------------------------------------------------------------------------------=
   JOB DONE.
=------------------------------------------------------------------------------=
