An instance of this daemon is already running
An instance of this daemon is already running
An instance of this daemon is already running

     Program PWSCF v.7.1 starts on 10May2023 at 11: 2:56 

     This program is part of the open-source Quantum ESPRESSO suite
     for quantum simulation of materials; please cite
         "P. Giannozzi et al., J. Phys.:Condens. Matter 21 395502 (2009);
         "P. Giannozzi et al., J. Phys.:Condens. Matter 29 465901 (2017);
         "P. Giannozzi et al., J. Chem. Phys. 152 154105 (2020);
          URL http://www.quantum-espresso.org", 
     in publications or presentations arising from this work. More details at
     http://www.quantum-espresso.org/quote

     Parallel version (MPI & OpenMP), running on       4 processor cores
     Number of MPI processes:                 4
     Threads/MPI process:                     1

     MPI processes distributed on     1 nodes
     149897 MiB available memory on the printing compute node when the environment starts
 
     Reading input from pw-si-50.in
Warning: card &CELL ignored
Warning: card / ignored

     Current dimensions of program PWSCF are:
     Max number of different atomic species (ntypx) = 10
     Max number of k-points (npk) =  40000
     Max angular momentum in pseudopotentials (lmaxx) =  4

     IMPORTANT: XC functional enforced from input :
     Exchange-correlation= PBE
                           (   1   4   3   4   0   0   0)
     Any further DFT definition will be discarded
     Please, verify this is what you really want


     gamma-point specific algorithms are used
 
     K-points division:     npool     =       2
     R & G space division:  proc/nbgrp/npool/nimage =       2
     Subspace diagonalization in iterative solution of the eigenvalue problem:
     a serial algorithm will be used

     Message from routine divide_et_impera:
     suboptimal parallelization: some nodes have no k-points
 
     Parallelization info
     --------------------
     sticks:   dense  smooth     PW     G-vecs:    dense   smooth      PW
     Min        2023    2023    542                97899    97899   13338
     Max        2026    2026    543                97902    97902   13343
     Sum        4049    4049   1085               195801   195801   26681
 
     Using Slab Decomposition
 


     bravais-lattice index     =            0
     lattice parameter (alat)  =      20.6259  a.u.
     unit-cell volume          =    8826.4265 (a.u.)^3
     number of atoms/cell      =           64
     number of atomic types    =            1
     number of electrons       =       256.00
     number of Kohn-Sham states=          154
     kinetic-energy cutoff     =      30.0000  Ry
     charge density cutoff     =     120.0000  Ry
     scf convergence threshold =      1.0E-06
     mixing beta               =       0.5000
     number of iterations used =            8  plain     mixing
     Exchange-correlation= PBE
                           (   1   4   3   4   0   0   0)

     GPU acceleration is ACTIVE.
     GPU-aware MPI enabled

     Message from routine print_cuda_info:
     High GPU oversubscription detected. Are you sure this is what you want?

     celldm(1)=  20.625858  celldm(2)=   0.000000  celldm(3)=   0.000000
     celldm(4)=   0.000000  celldm(5)=   0.000000  celldm(6)=   0.000000

     crystal axes: (cart. coord. in units of alat)
               a(1) = (   1.000000   0.000000   0.000000 )  
               a(2) = (   0.000000   0.999667   0.000000 )  
               a(3) = (   0.000000   0.000000   1.006221 )  

     reciprocal axes: (cart. coord. in units 2 pi/alat)
               b(1) = (  1.000000  0.000000  0.000000 )  
               b(2) = (  0.000000  1.000333  0.000000 )  
               b(3) = (  0.000000  0.000000  0.993817 )  


     PseudoPot. # 1 for Si read from file:
     /home/ppiaggi/pseudos/Si_ONCV_PBE_sr.upf
     MD5 check sum: 8553c464762ac42b85b1eed164b4d029
     Pseudo is Norm-conserving, Zval =  4.0
     Generated using ONCVPSP code by D. R. Hamann
     Using radial grid of 1510 points,  4 beta functions with: 
                l(1) =   0
                l(2) =   0
                l(3) =   1
                l(4) =   1

     atomic species   valence    mass     pseudopotential
        Si             4.00    28.08500     Si( 1.00)

     No symmetry found



   Cartesian axes

     site n.     atom                  positions (alat units)
         1           Si  tau(   1) = (   0.0008082  -0.0004318  -0.0004685  )
         2           Si  tau(   2) = (   0.0004567   0.2497339   0.2524170  )
         3           Si  tau(   3) = (   0.2472807  -0.0002777   0.2518127  )
         4           Si  tau(   4) = (   0.2473042   0.2496917  -0.0000816  )
         5           Si  tau(   5) = (   0.1245018   0.1249016   0.1269503  )
         6           Si  tau(   6) = (   0.4956858  -0.0004710  -0.0004266  )
         7           Si  tau(   7) = (   0.4960026   0.2495463   0.2530381  )
         8           Si  tau(   8) = (   0.6194415   0.1249235   0.1255024  )
         9           Si  tau(   9) = (   0.7449458  -0.0008426   0.2516203  )
        10           Si  tau(  10) = (   0.7452997   0.2489761  -0.0007666  )
        11           Si  tau(  11) = (   0.0004149   0.4978771   0.0007162  )
        12           Si  tau(  12) = (   0.2487675   0.4980965   0.2522797  )
        13           Si  tau(  13) = (   0.1247526   0.6216783   0.1261484  )
        14           Si  tau(  14) = (   0.3719841   0.3742223   0.1258578  )
        15           Si  tau(  15) = (   0.4965142   0.4985322   0.0006875  )
        16           Si  tau(  16) = (   0.6204826   0.6229103   0.1252827  )
        17           Si  tau(  17) = (   0.8693295   0.3733293   0.1266646  )
        18           Si  tau(  18) = (   0.7444442   0.4977198   0.2524223  )
        19           Si  tau(  19) = (   0.0003345   0.7476424   0.2524935  )
        20           Si  tau(  20) = (   0.2484074   0.7465369  -0.0004077  )
        21           Si  tau(  21) = (   0.3721040   0.8708864   0.1252672  )
        22           Si  tau(  22) = (   0.4970307   0.7469166   0.2527434  )
        23           Si  tau(  23) = (   0.7436482   0.7468257  -0.0004174  )
        24           Si  tau(  24) = (   0.8679665   0.8721251   0.1255972  )
        25           Si  tau(  25) = (   0.0001802  -0.0006751   0.5045014  )
        26           Si  tau(  26) = (   0.2487815   0.2481761   0.5038818  )
        27           Si  tau(  27) = (   0.1237616   0.1240440   0.6301528  )
        28           Si  tau(  28) = (   0.3724718   0.1247581   0.3786033  )
        29           Si  tau(  29) = (   0.4958667  -0.0001718   0.5038730  )
        30           Si  tau(  30) = (   0.6201350   0.1250473   0.6316661  )
        31           Si  tau(  31) = (   0.8678279   0.1253548   0.3786340  )
        32           Si  tau(  32) = (   0.7437178   0.2495838   0.5050506  )
        33           Si  tau(  33) = (   0.1236448   0.3727256   0.3790813  )
        34           Si  tau(  34) = (   0.0005928   0.4988650   0.5055229  )
        35           Si  tau(  35) = (   0.1232716   0.6232199   0.6312080  )
        36           Si  tau(  36) = (   0.6210624   0.3733963   0.3783102  )
        37           Si  tau(  37) = (   0.3721641   0.6225970   0.3787494  )
        38           Si  tau(  38) = (   0.3729753   0.3736927   0.6307617  )
        39           Si  tau(  39) = (   0.4969168   0.4977270   0.5047603  )
        40           Si  tau(  40) = (   0.6209531   0.6221751   0.6314158  )
        41           Si  tau(  41) = (   0.8692575   0.6227477   0.3780974  )
        42           Si  tau(  42) = (   0.8689575   0.3738795   0.6316167  )
        43           Si  tau(  43) = (   0.1241827   0.8719472   0.3786443  )
        44           Si  tau(  44) = (   0.2487125   0.7472674   0.5050458  )
        45           Si  tau(  45) = (   0.6212348   0.8720188   0.3786510  )
        46           Si  tau(  46) = (   0.3726515   0.8716008   0.6304555  )
        47           Si  tau(  47) = (   0.7449675   0.7473322   0.5049669  )
        48           Si  tau(  48) = (   0.8683911   0.8713071   0.6311840  )
        49           Si  tau(  49) = (  -0.0007180   0.2489940   0.7561767  )
        50           Si  tau(  50) = (   0.2481570   0.0005290   0.7567016  )
        51           Si  tau(  51) = (   0.3722868   0.1238083   0.8821626  )
        52           Si  tau(  52) = (   0.4954666   0.2492074   0.7567677  )
        53           Si  tau(  53) = (   0.7448026   0.0003792   0.7575391  )
        54           Si  tau(  54) = (   0.8680958   0.1252845   0.8827353  )
        55           Si  tau(  55) = (   0.1241526   0.3736311   0.8823322  )
        56           Si  tau(  56) = (   0.2488651   0.4979553   0.7568602  )
        57           Si  tau(  57) = (   0.6195757   0.3732020   0.8838191  )
        58           Si  tau(  58) = (   0.3717316   0.6217057   0.8826478  )
        59           Si  tau(  59) = (   0.7445818   0.4982204   0.7571497  )
        60           Si  tau(  60) = (   0.8681931   0.6227986   0.8823787  )
        61           Si  tau(  61) = (   0.0003668   0.7463198   0.7569275  )
        62           Si  tau(  62) = (   0.1237701   0.8712886   0.8829159  )
        63           Si  tau(  63) = (   0.4962273   0.7463712   0.7575011  )
        64           Si  tau(  64) = (   0.6194553   0.8716730   0.8832230  )

     number of k points=     1  Fermi-Dirac smearing, width (Ry)=  0.0100
                       cart. coord. in units 2pi/alat
        k(    1) = (   0.0000000   0.0000000   0.0000000), wk =   2.0000000

     Dense  grid:    97901 G-vectors     FFT dimensions: (  72,  72,  75)

     Estimated max dynamical RAM per process >     156.68 MB

     Estimated total dynamical RAM >     602.82 MB

     Initial potential from superposition of free atoms

     starting charge     255.9608, renormalised to     256.0000
     Starting wfcs are  256 randomized atomic wfcs

     total cpu time spent up to now is        4.2 secs

     Self-consistent Calculation

     iteration #  1     ecut=    30.00 Ry     beta= 0.50
     Davidson diagonalization with overlap
     ethr =  1.00E-02,  avg # of iterations =  3.0

     Threshold (ethr) on eigenvalues was too large:
     Diagonalizing with lowered threshold

     Davidson diagonalization with overlap
     ethr =  6.63E-04,  avg # of iterations =  2.0

     total cpu time spent up to now is        4.4 secs

     total energy              =    -503.96972532 Ry
     estimated scf accuracy    <       1.87527024 Ry

     iteration #  2     ecut=    30.00 Ry     beta= 0.50
     Davidson diagonalization with overlap
     ethr =  7.33E-04,  avg # of iterations =  1.0

     total cpu time spent up to now is        4.5 secs

     total energy              =    -503.95060861 Ry
     estimated scf accuracy    <       0.35021807 Ry

     iteration #  3     ecut=    30.00 Ry     beta= 0.50
     Davidson diagonalization with overlap
     ethr =  1.37E-04,  avg # of iterations =  4.0

     total cpu time spent up to now is        4.6 secs

     total energy              =    -503.97343545 Ry
     estimated scf accuracy    <       0.00803265 Ry

     iteration #  4     ecut=    30.00 Ry     beta= 0.50
     Davidson diagonalization with overlap
     c_bands:  4 eigenvalues not converged
     ethr =  3.14E-06,  avg # of iterations = 20.0

     total cpu time spent up to now is        4.8 secs

     total energy              =    -503.97524596 Ry
     estimated scf accuracy    <       0.00958504 Ry

     iteration #  5     ecut=    30.00 Ry     beta= 0.50
     Davidson diagonalization with overlap
     ethr =  3.14E-06,  avg # of iterations = 18.0

     total cpu time spent up to now is        5.0 secs

     total energy              =    -503.97699402 Ry
     estimated scf accuracy    <       0.00063424 Ry

     iteration #  6     ecut=    30.00 Ry     beta= 0.50
     Davidson diagonalization with overlap
     ethr =  2.48E-07,  avg # of iterations =  2.0

     total cpu time spent up to now is        5.1 secs

     total energy              =    -503.97704150 Ry
     estimated scf accuracy    <       0.00012116 Ry

     iteration #  7     ecut=    30.00 Ry     beta= 0.50
     Davidson diagonalization with overlap
     ethr =  4.73E-08,  avg # of iterations =  5.0

     total cpu time spent up to now is        5.2 secs

     total energy              =    -503.97705582 Ry
     estimated scf accuracy    <       0.00000865 Ry

     iteration #  8     ecut=    30.00 Ry     beta= 0.50
     Davidson diagonalization with overlap
     ethr =  3.38E-09,  avg # of iterations =  4.0

     total cpu time spent up to now is        5.3 secs

     total energy              =    -503.97705902 Ry
     estimated scf accuracy    <       0.00000147 Ry

     iteration #  9     ecut=    30.00 Ry     beta= 0.50
     Davidson diagonalization with overlap
     ethr =  5.75E-10,  avg # of iterations =  4.0

     total cpu time spent up to now is        5.4 secs

     End of self-consistent calculation

          k = 0.0000 0.0000 0.0000 ( 12221 PWs)   bands (ev):

    -5.7873  -4.7615  -4.7522  -4.7376  -4.7114  -4.6952  -4.6665  -3.8478
    -3.8386  -3.8284  -3.8014  -3.7907  -3.7884  -3.7834  -3.7497  -3.7463
    -3.7378  -3.7130  -3.6996  -3.5453  -3.5079  -3.4882  -3.3916  -1.7736
    -1.7486  -1.7414  -1.7173  -1.6924  -1.6625  -1.6089  -1.5987  -1.5818
    -1.5783  -1.5673  -1.5523  -1.5377  -1.5097  -1.5067  -1.5035  -1.4981
    -1.4788  -0.8942  -0.8359  -0.8154  -0.7851   0.5586   0.5684   0.5753
     0.5794   0.5828   0.5950   0.5996   0.6077   0.6187   0.6251   0.6407
     0.6568   2.2309   2.2365   2.2391   2.2472   2.2475   2.2530   2.2541
     2.2592   2.2645   2.2717   2.2772   2.2837   2.3340   2.3495   2.3560
     2.3674   2.3698   2.3760   2.3860   2.3882   2.3958   2.4001   2.4107
     2.4292   2.5257   2.5286   2.5460   2.5564   2.5626   2.5780   3.2108
     3.2212   3.2368   3.2434   3.2841   3.2960   4.1260   4.1366   4.1580
     4.1598   4.1867   4.1972   4.2041   4.2179   4.2311   4.2453   4.2480
     4.2848   4.6766   4.6853   4.6943   4.7016   4.7078   4.7173   4.7276
     4.7414   4.7612   4.7722   4.7937   4.7956   4.8129   4.8247   4.8435
     4.8764   4.8883   4.9236   4.9602   5.0812   5.9906   6.0586   6.1248
     6.7041   6.7274   6.7418   6.7710   6.8286   6.8450   7.1432   7.1507
     7.1738   7.1937   7.2104   7.2243   7.4739   7.4836   7.4886   7.5044
     8.4092   8.4108   8.4148   8.4181   8.4260   8.4319   8.4629   8.4740
     8.5033   8.5082

     the Fermi energy is     6.3594 ev

!    total energy              =    -503.97705878 Ry
     estimated scf accuracy    <       0.00000080 Ry
     smearing contrib. (-TS)   =      -0.04520738 Ry
     internal energy E=F+TS    =    -503.93185141 Ry

     The total energy is F=E-TS. E is the sum of the following terms:
     one-electron contribution =     146.76983279 Ry
     hartree contribution      =      36.62798293 Ry
     xc contribution           =    -153.69762459 Ry
     ewald contribution        =    -533.63204253 Ry

     convergence has been achieved in   9 iterations

     Forces acting on atoms (cartesian axes, Ry/au):

     atom    1 type  1   force =    -0.02506577   -0.00328934    0.00980535
     atom    2 type  1   force =    -0.02459984   -0.00455509    0.00170905
     atom    3 type  1   force =     0.00779870   -0.01004889    0.00233864
     atom    4 type  1   force =     0.00618430   -0.00470190    0.00706409
     atom    5 type  1   force =    -0.00654595   -0.00201191   -0.00397684
     atom    6 type  1   force =     0.00170547   -0.00813661    0.01036235
     atom    7 type  1   force =     0.00183876   -0.00022775   -0.00518611
     atom    8 type  1   force =     0.00404638   -0.00346246    0.00370512
     atom    9 type  1   force =    -0.00129030   -0.00127589    0.00097453
     atom   10 type  1   force =    -0.00210879    0.00229981    0.01586752
     atom   11 type  1   force =    -0.02421934    0.00198068    0.00304916
     atom   12 type  1   force =    -0.00381091   -0.00225494    0.00426381
     atom   13 type  1   force =    -0.00478306    0.00592879    0.00331083
     atom   14 type  1   force =     0.00029241   -0.00374184    0.00296466
     atom   15 type  1   force =    -0.00125843   -0.00100497    0.00560779
     atom   16 type  1   force =     0.00082330   -0.00219743    0.00848094
     atom   17 type  1   force =     0.01808987    0.00001897   -0.00131315
     atom   18 type  1   force =     0.00471033    0.00373898   -0.00280675
     atom   19 type  1   force =    -0.02108458   -0.00064317   -0.00463077
     atom   20 type  1   force =    -0.00259392    0.00064785    0.00861077
     atom   21 type  1   force =    -0.00066345    0.01144123    0.00672774
     atom   22 type  1   force =    -0.00088550    0.00314867   -0.00163807
     atom   23 type  1   force =     0.00683215    0.00487170    0.00802609
     atom   24 type  1   force =     0.02509203    0.00470499    0.00054361
     atom   25 type  1   force =    -0.02518183   -0.00664854   -0.00163377
     atom   26 type  1   force =    -0.00213033    0.00397846    0.00566157
     atom   27 type  1   force =    -0.00176993    0.00087093    0.00089614
     atom   28 type  1   force =    -0.00329575   -0.00632185   -0.00506804
     atom   29 type  1   force =     0.00653803   -0.00788762    0.00414305
     atom   30 type  1   force =    -0.00141733   -0.00513373   -0.00424256
     atom   31 type  1   force =     0.02374066   -0.00522228   -0.00067546
     atom   32 type  1   force =     0.00691126   -0.00080271    0.00184037
     atom   33 type  1   force =     0.00229781    0.00642720   -0.00023264
     atom   34 type  1   force =    -0.02417646   -0.00378558   -0.00427791
     atom   35 type  1   force =     0.00691299   -0.00271111   -0.00076175
     atom   36 type  1   force =    -0.00367045    0.00116538    0.00150058
     atom   37 type  1   force =     0.00169162   -0.00077050    0.00084983
     atom   38 type  1   force =    -0.00584136   -0.00209692   -0.00359700
     atom   39 type  1   force =     0.00145834    0.00289257   -0.00174940
     atom   40 type  1   force =    -0.00162119    0.00248641   -0.00314349
     atom   41 type  1   force =     0.01909440   -0.00005903    0.00263387
     atom   42 type  1   force =     0.01806798    0.00033405   -0.00515843
     atom   43 type  1   force =    -0.00164399    0.00768562    0.00061881
     atom   44 type  1   force =    -0.00365509    0.00103279   -0.00170371
     atom   45 type  1   force =    -0.00186702    0.00826792   -0.00037724
     atom   46 type  1   force =    -0.00120415    0.01040930    0.00341203
     atom   47 type  1   force =     0.00139855   -0.00176300   -0.00157818
     atom   48 type  1   force =     0.02321061    0.01142367    0.00163751
     atom   49 type  1   force =    -0.01647969   -0.00044778    0.00083116
     atom   50 type  1   force =    -0.00179913   -0.01562827   -0.00295218
     atom   51 type  1   force =    -0.00519044    0.00444539   -0.00308004
     atom   52 type  1   force =     0.00454649   -0.00045348    0.00186110
     atom   53 type  1   force =    -0.00083272   -0.01282556   -0.00302615
     atom   54 type  1   force =     0.02854633   -0.00747926   -0.00789207
     atom   55 type  1   force =    -0.00601631   -0.00037432   -0.00860252
     atom   56 type  1   force =    -0.00510261    0.00012182   -0.00519743
     atom   57 type  1   force =     0.00308023    0.00179938   -0.01257604
     atom   58 type  1   force =     0.00269256    0.00217636   -0.00593685
     atom   59 type  1   force =     0.00052907   -0.00392663    0.00138743
     atom   60 type  1   force =     0.02471264   -0.00279301   -0.00271816
     atom   61 type  1   force =    -0.02596035    0.00666904    0.00059468
     atom   62 type  1   force =     0.00132167    0.01018173   -0.01027097
     atom   63 type  1   force =     0.00054390    0.00305182   -0.00475245
     atom   64 type  1   force =     0.00305713    0.01048184   -0.01052406

     Total force =     0.114100     Total SCF correction =     0.001768


     Computing stress (Cartesian axis) and pressure

          total   stress  (Ry/bohr**3)                   (kbar)     P=       10.42
   0.00007899  -0.00001033   0.00001054           11.62       -1.52        1.55
  -0.00001033   0.00008342   0.00002849           -1.52       12.27        4.19
   0.00001054   0.00002849   0.00005000            1.55        4.19        7.36

 
     init_run     :      0.99s CPU      4.17s WALL (       1 calls)
     electrons    :      1.07s CPU      1.21s WALL (       1 calls)
     forces       :      0.03s CPU      0.04s WALL (       1 calls)
     stress       :      0.15s CPU      0.15s WALL (       1 calls)

     Called by init_run:
     wfcinit      :      0.41s CPU      3.45s WALL (       1 calls)
                                        3.45s GPU  (       1 calls)
     potinit      :      0.15s CPU      0.22s WALL (       1 calls)
     hinit0       :      0.40s CPU      0.43s WALL (       1 calls)

     Called by electrons:
     c_bands      :      0.77s CPU      0.85s WALL (      10 calls)
     sum_band     :      0.16s CPU      0.21s WALL (      10 calls)
     v_of_rho     :      0.08s CPU      0.16s WALL (      10 calls)
     mix_rho      :      0.05s CPU      0.07s WALL (      10 calls)

     Called by c_bands:
     init_us_2    :      0.02s CPU      0.03s WALL (      21 calls)
     init_us_2:gp :      0.02s CPU      0.03s WALL (      21 calls)
     regterg      :      0.70s CPU      0.77s WALL (      10 calls)

     Called by *egterg:
     rdiaghg      :      0.35s CPU      0.98s WALL (      72 calls)
                                        0.96s GPU  (      72 calls)
     h_psi        :      0.65s CPU      3.11s WALL (      74 calls)
                                        3.11s GPU  (      74 calls)
     g_psi        :      0.00s CPU      0.00s WALL (      63 calls)
                                        0.00s GPU  (      63 calls)

     Called by h_psi:
     h_psi:calbec :      0.37s CPU      2.77s WALL (      74 calls)
                                        2.77s GPU  (      74 calls)
     vloc_psi     :      0.24s CPU      0.29s WALL (      74 calls)
                                        0.29s GPU  (      74 calls)
     add_vuspsi   :      0.02s CPU      0.04s WALL (      74 calls)
                                        0.04s GPU  (      74 calls)

     General routines
     calbec       :      0.38s CPU      2.78s WALL (      79 calls)
     fft          :      0.42s CPU      0.52s WALL (      87 calls)
                                        0.10s GPU  (      56 calls)
     ffts         :      0.01s CPU      0.02s WALL (      10 calls)
     fftw         :      0.27s CPU      0.40s WALL (    1128 calls)
                                        0.36s GPU  (    1128 calls)
 
     Parallel routines
 
     PWSCF        :      2.28s CPU      5.64s WALL

 
   This run was terminated on:  11: 3: 2  10May2023            

=------------------------------------------------------------------------------=
   JOB DONE.
=------------------------------------------------------------------------------=
