An instance of this daemon is already running

     Program PWSCF v.7.1 starts on 10May2023 at 10:44: 8 

     This program is part of the open-source Quantum ESPRESSO suite
     for quantum simulation of materials; please cite
         "P. Giannozzi et al., J. Phys.:Condens. Matter 21 395502 (2009);
         "P. Giannozzi et al., J. Phys.:Condens. Matter 29 465901 (2017);
         "P. Giannozzi et al., J. Chem. Phys. 152 154105 (2020);
          URL http://www.quantum-espresso.org", 
     in publications or presentations arising from this work. More details at
     http://www.quantum-espresso.org/quote

     Parallel version (MPI & OpenMP), running on       4 processor cores
     Number of MPI processes:                 4
     Threads/MPI process:                     1

     MPI processes distributed on     1 nodes
     753565 MiB available memory on the printing compute node when the environment starts
 
     Reading input from pw-si-41.in
Warning: card &CELL ignored
Warning: card / ignored

     Current dimensions of program PWSCF are:
     Max number of different atomic species (ntypx) = 10
     Max number of k-points (npk) =  40000
     Max angular momentum in pseudopotentials (lmaxx) =  4

     IMPORTANT: XC functional enforced from input :
     Exchange-correlation= PBE
                           (   1   4   3   4   0   0   0)
     Any further DFT definition will be discarded
     Please, verify this is what you really want


     gamma-point specific algorithms are used
 
     K-points division:     npool     =       2
     R & G space division:  proc/nbgrp/npool/nimage =       2
     Subspace diagonalization in iterative solution of the eigenvalue problem:
     a serial algorithm will be used

     Message from routine divide_et_impera:
     suboptimal parallelization: some nodes have no k-points
 
     Parallelization info
     --------------------
     sticks:   dense  smooth     PW     G-vecs:    dense   smooth      PW
     Min        1908    1908    502                89172    89172   12102
     Max        1909    1909    503                89177    89177   12105
     Sum        3817    3817   1005               178349   178349   24207
 
     Using Slab Decomposition
 


     bravais-lattice index     =            0
     lattice parameter (alat)  =      20.0334  a.u.
     unit-cell volume          =    8040.1554 (a.u.)^3
     number of atoms/cell      =           64
     number of atomic types    =            1
     number of electrons       =       256.00
     number of Kohn-Sham states=          154
     kinetic-energy cutoff     =      30.0000  Ry
     charge density cutoff     =     120.0000  Ry
     scf convergence threshold =      1.0E-06
     mixing beta               =       0.5000
     number of iterations used =            8  plain     mixing
     Exchange-correlation= PBE
                           (   1   4   3   4   0   0   0)

     GPU acceleration is ACTIVE.
     GPU-aware MPI enabled

     Message from routine print_cuda_info:
     High GPU oversubscription detected. Are you sure this is what you want?

     celldm(1)=  20.033407  celldm(2)=   0.000000  celldm(3)=   0.000000
     celldm(4)=   0.000000  celldm(5)=   0.000000  celldm(6)=   0.000000

     crystal axes: (cart. coord. in units of alat)
               a(1) = (   1.000000   0.000000   0.000000 )  
               a(2) = (   0.000000   1.000000   0.000000 )  
               a(3) = (   0.000000   0.000000   1.000000 )  

     reciprocal axes: (cart. coord. in units 2 pi/alat)
               b(1) = (  1.000000  0.000000  0.000000 )  
               b(2) = (  0.000000  1.000000  0.000000 )  
               b(3) = (  0.000000  0.000000  1.000000 )  


     PseudoPot. # 1 for Si read from file:
     /home/ppiaggi/pseudos/Si_ONCV_PBE_sr.upf
     MD5 check sum: 8553c464762ac42b85b1eed164b4d029
     Pseudo is Norm-conserving, Zval =  4.0
     Generated using ONCVPSP code by D. R. Hamann
     Using radial grid of 1510 points,  4 beta functions with: 
                l(1) =   0
                l(2) =   0
                l(3) =   1
                l(4) =   1

     atomic species   valence    mass     pseudopotential
        Si             4.00    28.08500     Si( 1.00)

     No symmetry found



   Cartesian axes

     site n.     atom                  positions (alat units)
         1           Si  tau(   1) = (   0.6102910   0.2208880   0.6403570  )
         2           Si  tau(   2) = (   0.8211710   0.3458500   0.9459360  )
         3           Si  tau(   3) = (   0.0413921   0.2998110   0.8733170  )
         4           Si  tau(   4) = (   0.0116539   0.6242600   0.1333770  )
         5           Si  tau(   5) = (   0.2906710   0.2398170   0.8628160  )
         6           Si  tau(   6) = (   0.5310410   0.5313740   0.4650530  )
         7           Si  tau(   7) = (   0.2099510   0.1789500   0.0925971  )
         8           Si  tau(   8) = (   0.6682100   0.1935530   0.8440080  )
         9           Si  tau(   9) = (   0.4062260   0.3915320   0.7476560  )
        10           Si  tau(  10) = (   0.9542930   0.1459190   0.7258320  )
        11           Si  tau(  11) = (   0.8479430   0.6669970   0.3254540  )
        12           Si  tau(  12) = (   0.8322550   0.1981010   0.1094890  )
        13           Si  tau(  13) = (   0.6063010   0.6841530   0.3267870  )
        14           Si  tau(  14) = (   0.6722580   0.0100394   0.0610467  )
        15           Si  tau(  15) = (   0.3416970   0.0063517   0.7516860  )
        16           Si  tau(  16) = (   0.0097115   0.4996920   0.4281750  )
        17           Si  tau(  17) = (   0.4383150   0.9109190   0.5579740  )
        18           Si  tau(  18) = (   0.0090495   0.7275380   0.8753610  )
        19           Si  tau(  19) = (   0.8897610   0.7242160   0.5357480  )
        20           Si  tau(  20) = (   0.6664500   0.5387500   0.7877530  )
        21           Si  tau(  21) = (   0.9715480   0.3328780   0.2945990  )
        22           Si  tau(  22) = (   0.5708290   0.8942170   0.3776950  )
        23           Si  tau(  23) = (   0.7610660   0.9666290   0.8178950  )
        24           Si  tau(  24) = (   0.4382070   0.1183770   0.5264150  )
        25           Si  tau(  25) = (   0.9963080   0.9601390   0.9051740  )
        26           Si  tau(  26) = (   0.1216900   0.3970370   0.0932754  )
        27           Si  tau(  27) = (   0.2223710   0.9626990   0.2894640  )
        28           Si  tau(  28) = (   0.5818350   0.3365160   0.3127130  )
        29           Si  tau(  29) = (   0.3014960   0.7624090   0.4227910  )
        30           Si  tau(  30) = (   0.7844550   0.0865624   0.5659650  )
        31           Si  tau(  31) = (   0.1977400   0.1792850   0.5738080  )
        32           Si  tau(  32) = (   0.2542470   0.3824050   0.5770500  )
        33           Si  tau(  33) = (   0.5845330   0.7571370   0.7556940  )
        34           Si  tau(  34) = (   0.6770610   0.4207000   0.5963840  )
        35           Si  tau(  35) = (   0.4045050   0.7668000   0.1874900  )
        36           Si  tau(  36) = (   0.7075940   0.8642960   0.5745200  )
        37           Si  tau(  37) = (   0.2926040   0.5259750   0.1371050  )
        38           Si  tau(  38) = (   0.1128380   0.1222270   0.3798880  )
        39           Si  tau(  39) = (   0.4281180   0.6410100   0.6221570  )
        40           Si  tau(  40) = (   0.8194800   0.5905200   0.9883940  )
        41           Si  tau(  41) = (   0.0705683   0.4185030   0.7038680  )
        42           Si  tau(  42) = (   0.1327560   0.8161880   0.0977353  )
        43           Si  tau(  43) = (   0.6493520   0.7902940   0.9952930  )
        44           Si  tau(  44) = (   0.7822020   0.4423510   0.2172580  )
        45           Si  tau(  45) = (   0.7574320   0.2019940   0.3768650  )
        46           Si  tau(  46) = (   0.2825190   0.2846970   0.3056500  )
        47           Si  tau(  47) = (   0.8776380   0.5901410   0.7235260  )
        48           Si  tau(  48) = (   0.9112030   0.9153000   0.2832600  )
        49           Si  tau(  49) = (   0.8968240   0.3571520   0.5709890  )
        50           Si  tau(  50) = (   0.1382720   0.9534940   0.7423040  )
        51           Si  tau(  51) = (   0.2387140   0.5362460   0.3861460  )
        52           Si  tau(  52) = (   0.2139350   0.6378000   0.7098710  )
        53           Si  tau(  53) = (   0.0163421   0.0608979   0.1349000  )
        54           Si  tau(  54) = (   0.5923450   0.6070200   0.1033720  )
        55           Si  tau(  55) = (   0.2665920   0.6906010   0.9248290  )
        56           Si  tau(  56) = (   0.4467240   0.9972800   0.1001680  )
        57           Si  tau(  57) = (   0.4485030   0.5506260   0.8987820  )
        58           Si  tau(  58) = (   0.1010330   0.8002950   0.5756530  )
        59           Si  tau(  59) = (   0.4825820   0.2060170   0.9881140  )
        60           Si  tau(  60) = (   0.4122900   0.8669880   0.9088380  )
        61           Si  tau(  61) = (   0.7237540   0.0176199   0.2627190  )
        62           Si  tau(  62) = (   0.9750700   0.9824400   0.4853190  )
        63           Si  tau(  63) = (   0.4756610   0.3924290   0.1263290  )
        64           Si  tau(  64) = (   0.4527550   0.1360170   0.3072080  )

     number of k points=     1  Fermi-Dirac smearing, width (Ry)=  0.0100
                       cart. coord. in units 2pi/alat
        k(    1) = (   0.0000000   0.0000000   0.0000000), wk =   2.0000000

     Dense  grid:    89175 G-vectors     FFT dimensions: (  72,  72,  72)

     Estimated max dynamical RAM per process >     143.47 MB

     Estimated total dynamical RAM >     552.13 MB

     Initial potential from superposition of free atoms

     starting charge     255.9608, renormalised to     256.0000
     Starting wfcs are  256 randomized atomic wfcs

     total cpu time spent up to now is        5.0 secs

     Self-consistent Calculation

     iteration #  1     ecut=    30.00 Ry     beta= 0.50
     Davidson diagonalization with overlap
     ethr =  1.00E-02,  avg # of iterations =  3.0

     Threshold (ethr) on eigenvalues was too large:
     Diagonalizing with lowered threshold

     Davidson diagonalization with overlap
     ethr =  4.70E-04,  avg # of iterations =  4.0

     total cpu time spent up to now is        5.3 secs

     total energy              =    -501.31331480 Ry
     estimated scf accuracy    <       1.43823207 Ry

     iteration #  2     ecut=    30.00 Ry     beta= 0.50
     Davidson diagonalization with overlap
     ethr =  5.62E-04,  avg # of iterations =  4.0

     total cpu time spent up to now is        5.4 secs

     total energy              =    -500.60814834 Ry
     estimated scf accuracy    <       9.38412078 Ry

     iteration #  3     ecut=    30.00 Ry     beta= 0.50
     Davidson diagonalization with overlap
     ethr =  5.62E-04,  avg # of iterations =  4.0

     total cpu time spent up to now is        5.5 secs

     total energy              =    -501.47714676 Ry
     estimated scf accuracy    <       1.53078975 Ry

     iteration #  4     ecut=    30.00 Ry     beta= 0.50
     Davidson diagonalization with overlap
     ethr =  5.62E-04,  avg # of iterations =  2.0

     total cpu time spent up to now is        5.6 secs

     total energy              =    -501.53964866 Ry
     estimated scf accuracy    <       0.99190756 Ry

     iteration #  5     ecut=    30.00 Ry     beta= 0.50
     Davidson diagonalization with overlap
     ethr =  3.87E-04,  avg # of iterations =  2.0

     total cpu time spent up to now is        5.7 secs

     total energy              =    -501.59921891 Ry
     estimated scf accuracy    <       0.69373600 Ry

     iteration #  6     ecut=    30.00 Ry     beta= 0.50
     Davidson diagonalization with overlap
     ethr =  2.71E-04,  avg # of iterations =  1.0

     total cpu time spent up to now is        5.8 secs

     total energy              =    -501.65790698 Ry
     estimated scf accuracy    <       0.02569464 Ry

     iteration #  7     ecut=    30.00 Ry     beta= 0.50
     Davidson diagonalization with overlap
     ethr =  1.00E-05,  avg # of iterations = 17.0

     total cpu time spent up to now is        6.0 secs

     total energy              =    -501.66217188 Ry
     estimated scf accuracy    <       0.04789000 Ry

     iteration #  8     ecut=    30.00 Ry     beta= 0.50
     Davidson diagonalization with overlap
     ethr =  1.00E-05,  avg # of iterations =  3.0

     total cpu time spent up to now is        6.1 secs

     total energy              =    -501.66639533 Ry
     estimated scf accuracy    <       0.01692245 Ry

     iteration #  9     ecut=    30.00 Ry     beta= 0.50
     Davidson diagonalization with overlap
     ethr =  6.61E-06,  avg # of iterations =  2.0

     total cpu time spent up to now is        6.2 secs

     total energy              =    -501.66755827 Ry
     estimated scf accuracy    <       0.00321144 Ry

     iteration # 10     ecut=    30.00 Ry     beta= 0.50
     Davidson diagonalization with overlap
     ethr =  1.25E-06,  avg # of iterations =  2.0

     total cpu time spent up to now is        6.3 secs

     total energy              =    -501.66785282 Ry
     estimated scf accuracy    <       0.00187135 Ry

     iteration # 11     ecut=    30.00 Ry     beta= 0.50
     Davidson diagonalization with overlap
     ethr =  7.31E-07,  avg # of iterations =  2.0

     total cpu time spent up to now is        6.4 secs

     total energy              =    -501.66801357 Ry
     estimated scf accuracy    <       0.00037513 Ry

     iteration # 12     ecut=    30.00 Ry     beta= 0.50
     Davidson diagonalization with overlap
     ethr =  1.47E-07,  avg # of iterations =  2.0

     total cpu time spent up to now is        6.5 secs

     total energy              =    -501.66807345 Ry
     estimated scf accuracy    <       0.00018979 Ry

     iteration # 13     ecut=    30.00 Ry     beta= 0.50
     Davidson diagonalization with overlap
     ethr =  7.41E-08,  avg # of iterations =  2.0

     total cpu time spent up to now is        6.6 secs

     total energy              =    -501.66808377 Ry
     estimated scf accuracy    <       0.00005451 Ry

     iteration # 14     ecut=    30.00 Ry     beta= 0.50
     Davidson diagonalization with overlap
     ethr =  2.13E-08,  avg # of iterations =  2.0

     total cpu time spent up to now is        6.7 secs

     total energy              =    -501.66808494 Ry
     estimated scf accuracy    <       0.00003091 Ry

     iteration # 15     ecut=    30.00 Ry     beta= 0.50
     Davidson diagonalization with overlap
     ethr =  1.21E-08,  avg # of iterations =  2.0

     total cpu time spent up to now is        6.8 secs

     total energy              =    -501.66808857 Ry
     estimated scf accuracy    <       0.00002094 Ry

     iteration # 16     ecut=    30.00 Ry     beta= 0.50
     Davidson diagonalization with overlap
     ethr =  8.18E-09,  avg # of iterations =  2.0

     total cpu time spent up to now is        6.9 secs

     total energy              =    -501.66809006 Ry
     estimated scf accuracy    <       0.00000435 Ry

     iteration # 17     ecut=    30.00 Ry     beta= 0.50
     Davidson diagonalization with overlap
     ethr =  1.70E-09,  avg # of iterations =  2.0

     total cpu time spent up to now is        7.0 secs

     total energy              =    -501.66809050 Ry
     estimated scf accuracy    <       0.00000219 Ry

     iteration # 18     ecut=    30.00 Ry     beta= 0.50
     Davidson diagonalization with overlap
     ethr =  8.56E-10,  avg # of iterations =  2.0

     total cpu time spent up to now is        7.1 secs

     End of self-consistent calculation

          k = 0.0000 0.0000 0.0000 ( 11072 PWs)   bands (ev):

    -5.3226  -4.3879  -4.2857  -4.1294  -4.1092  -3.9765  -3.8616  -3.3635
    -3.3392  -3.1870  -3.1093  -3.0297  -2.9279  -2.8857  -2.8464  -2.7995
    -2.6204  -2.5554  -2.4201  -2.1319  -1.9512  -1.8580  -1.7547  -1.7181
    -1.5642  -1.4560  -1.2302  -0.8402  -0.7416  -0.6932  -0.5464  -0.3548
    -0.2355  -0.1833  -0.0899   0.0139   0.1224   0.2549   0.2838   0.3719
     0.4532   0.5496   0.6129   0.6552   0.7710   0.8027   0.9116   1.0194
     1.0932   1.1571   1.3286   1.3798   1.4756   1.6683   1.7172   1.7842
     1.9078   1.9837   2.0428   2.1229   2.2364   2.4584   2.4810   2.5141
     2.5821   2.6805   2.7268   2.8133   2.8371   2.9244   3.0985   3.1539
     3.2096   3.2650   3.2934   3.4255   3.4597   3.5218   3.6954   3.7416
     3.9040   4.2544   4.3333   4.4076   4.4575   4.5703   4.5911   4.6254
     4.7393   4.8681   4.9222   5.0541   5.1032   5.1144   5.2145   5.2465
     5.3700   5.4278   5.4586   5.4976   5.5189   5.6021   5.6372   5.6829
     5.7828   5.8253   5.8893   5.9607   5.9973   6.0531   6.1828   6.2411
     6.2833   6.3591   6.3995   6.5148   6.5503   6.5688   6.6943   6.7624
     6.8555   6.8769   6.9567   6.9991   7.0423   7.1225   7.1581   7.1670
     7.3017   7.3649   7.3948   7.4771   7.6087   7.6348   7.6933   7.7866
     7.8501   7.9167   7.9462   8.0349   8.0961   8.1866   8.2821   8.2955
     8.4109   8.4368   8.4714   8.5193   8.5789   8.6655   8.7090   8.7667
     8.8497   8.9075

     the Fermi energy is     7.2648 ev

!    total energy              =    -501.66809006 Ry
     estimated scf accuracy    <       0.00000076 Ry
     smearing contrib. (-TS)   =      -0.14096454 Ry
     internal energy E=F+TS    =    -501.52712552 Ry

     The total energy is F=E-TS. E is the sum of the following terms:
     one-electron contribution =     191.00636034 Ry
     hartree contribution      =      23.85611721 Ry
     xc contribution           =    -151.68853732 Ry
     ewald contribution        =    -564.70106575 Ry

     convergence has been achieved in  18 iterations

     Forces acting on atoms (cartesian axes, Ry/au):

     atom    1 type  1   force =    -0.04301185   -0.00774661   -0.01784364
     atom    2 type  1   force =     0.00412249    0.02596410   -0.01003027
     atom    3 type  1   force =     0.00478757   -0.01659689    0.06679900
     atom    4 type  1   force =    -0.02665393   -0.00603055   -0.00465057
     atom    5 type  1   force =    -0.00928196   -0.05260709    0.00972098
     atom    6 type  1   force =     0.02602174   -0.06443805   -0.03117968
     atom    7 type  1   force =     0.01166961    0.00502867    0.00654862
     atom    8 type  1   force =     0.00500671   -0.02150528    0.04971432
     atom    9 type  1   force =     0.01943757    0.00203514   -0.02351652
     atom   10 type  1   force =     0.01086597   -0.02127393   -0.01561607
     atom   11 type  1   force =     0.00499523    0.01532031   -0.01835529
     atom   12 type  1   force =     0.01406365    0.00201673    0.02894430
     atom   13 type  1   force =     0.03349884   -0.00390551   -0.04364727
     atom   14 type  1   force =    -0.02155283   -0.00073729   -0.05261164
     atom   15 type  1   force =     0.02466237    0.04581237    0.00350388
     atom   16 type  1   force =    -0.00021228    0.01677471   -0.00491225
     atom   17 type  1   force =    -0.00747031   -0.07191470    0.00861545
     atom   18 type  1   force =     0.01686995   -0.00020509    0.01661504
     atom   19 type  1   force =    -0.00552515    0.00768966    0.01654624
     atom   20 type  1   force =    -0.00131098    0.00930409    0.02396405
     atom   21 type  1   force =    -0.00018982   -0.04432203   -0.04480414
     atom   22 type  1   force =     0.01863518   -0.00409181    0.01359702
     atom   23 type  1   force =     0.02286876    0.02768628    0.01551636
     atom   24 type  1   force =    -0.02450604    0.06130519    0.00573483
     atom   25 type  1   force =    -0.04833517   -0.00844129    0.03128706
     atom   26 type  1   force =    -0.04886630   -0.01558612    0.01140522
     atom   27 type  1   force =     0.03592708   -0.06251667   -0.02640601
     atom   28 type  1   force =     0.01384311    0.03301729    0.02121745
     atom   29 type  1   force =    -0.00808930    0.03614754    0.01026117
     atom   30 type  1   force =     0.01622903   -0.01975205    0.03187890
     atom   31 type  1   force =     0.02439587   -0.05171288    0.02153950
     atom   32 type  1   force =     0.02214626    0.06092341   -0.02557865
     atom   33 type  1   force =    -0.00891714    0.01449330   -0.00217214
     atom   34 type  1   force =     0.01156713    0.02989630   -0.01101981
     atom   35 type  1   force =    -0.00815433    0.00845095    0.02676493
     atom   36 type  1   force =    -0.00436725    0.00826852    0.01814016
     atom   37 type  1   force =     0.01769405    0.01566624    0.00897474
     atom   38 type  1   force =    -0.03483342    0.05924885   -0.01590306
     atom   39 type  1   force =    -0.02687567    0.01760396    0.01724488
     atom   40 type  1   force =    -0.02368846   -0.05074865   -0.00386509
     atom   41 type  1   force =    -0.01170178    0.09038966   -0.03417352
     atom   42 type  1   force =     0.01736668   -0.00347291   -0.00394898
     atom   43 type  1   force =    -0.00477403    0.03350294   -0.03860956
     atom   44 type  1   force =    -0.01851668   -0.00355971   -0.01006341
     atom   45 type  1   force =     0.02767900    0.03914815   -0.01682738
     atom   46 type  1   force =    -0.01724051   -0.00424978   -0.02338922
     atom   47 type  1   force =     0.03295394   -0.00094533    0.00243347
     atom   48 type  1   force =     0.02389336   -0.05035926    0.00005192
     atom   49 type  1   force =    -0.00602360   -0.00238780   -0.00894970
     atom   50 type  1   force =    -0.04673693    0.00328926   -0.04098683
     atom   51 type  1   force =    -0.00409973   -0.02871768    0.01397442
     atom   52 type  1   force =    -0.01660805   -0.02089123   -0.00287995
     atom   53 type  1   force =    -0.01223723   -0.00304872   -0.02156245
     atom   54 type  1   force =     0.00870873   -0.02307556    0.02681322
     atom   55 type  1   force =    -0.01249626    0.01982750    0.02522317
     atom   56 type  1   force =     0.01097563    0.00221835    0.01242049
     atom   57 type  1   force =     0.02157656   -0.00858377    0.01059341
     atom   58 type  1   force =     0.01535023    0.00846242   -0.00346655
     atom   59 type  1   force =    -0.00206094    0.00494691   -0.01174563
     atom   60 type  1   force =     0.02313027   -0.02970197    0.00525161
     atom   61 type  1   force =    -0.01943792    0.00058017    0.04784949
     atom   62 type  1   force =    -0.00501224   -0.01190554   -0.00505511
     atom   63 type  1   force =    -0.01215834    0.01126455   -0.02272234
     atom   64 type  1   force =     0.00000384   -0.00125177   -0.01265256

     Total force =     0.353426     Total SCF correction =     0.001799


     Computing stress (Cartesian axis) and pressure

          total   stress  (Ry/bohr**3)                   (kbar)     P=      -13.21
  -0.00012106  -0.00000978  -0.00000298          -17.81       -1.44       -0.44
  -0.00000978  -0.00013850  -0.00002257           -1.44      -20.37       -3.32
  -0.00000298  -0.00002257  -0.00000989           -0.44       -3.32       -1.45

 
     init_run     :      1.08s CPU      4.95s WALL (       1 calls)
     electrons    :      1.87s CPU      2.04s WALL (       1 calls)
     forces       :      0.04s CPU      0.04s WALL (       1 calls)
     stress       :      0.15s CPU      0.15s WALL (       1 calls)

     Called by init_run:
     wfcinit      :      0.54s CPU      4.22s WALL (       1 calls)
                                        4.22s GPU  (       1 calls)
     potinit      :      0.05s CPU      0.15s WALL (       1 calls)
     hinit0       :      0.47s CPU      0.50s WALL (       1 calls)

     Called by electrons:
     c_bands      :      1.11s CPU      1.18s WALL (      19 calls)
     sum_band     :      0.38s CPU      0.43s WALL (      19 calls)
     v_of_rho     :      0.18s CPU      0.29s WALL (      19 calls)
     mix_rho      :      0.18s CPU      0.19s WALL (      19 calls)

     Called by c_bands:
     init_us_2    :      0.07s CPU      0.07s WALL (      39 calls)
     init_us_2:gp :      0.07s CPU      0.07s WALL (      39 calls)
     regterg      :      0.94s CPU      1.01s WALL (      19 calls)

     Called by *egterg:
     rdiaghg      :      0.37s CPU      1.13s WALL (      78 calls)
                                        1.12s GPU  (      78 calls)
     h_psi        :      0.93s CPU      3.91s WALL (      80 calls)
                                        3.91s GPU  (      80 calls)
     g_psi        :      0.00s CPU      0.00s WALL (      60 calls)
                                        0.00s GPU  (      60 calls)

     Called by h_psi:
     h_psi:calbec :      0.50s CPU      3.39s WALL (      80 calls)
                                        3.39s GPU  (      80 calls)
     vloc_psi     :      0.39s CPU      0.46s WALL (      80 calls)
                                        0.46s GPU  (      80 calls)
     add_vuspsi   :      0.03s CPU      0.05s WALL (      80 calls)
                                        0.05s GPU  (      80 calls)

     General routines
     calbec       :      0.50s CPU      3.40s WALL (      85 calls)
     fft          :      0.62s CPU      0.76s WALL (     159 calls)
                                        0.14s GPU  (     101 calls)
     ffts         :      0.04s CPU      0.05s WALL (      19 calls)
     fftw         :      0.47s CPU      0.61s WALL (    1989 calls)
                                        0.54s GPU  (    1989 calls)
 
     Parallel routines
 
     PWSCF        :      3.19s CPU      7.27s WALL

 
   This run was terminated on:  10:44:15  10May2023            

=------------------------------------------------------------------------------=
   JOB DONE.
=------------------------------------------------------------------------------=
