An instance of this daemon is already running

     Program PWSCF v.7.1 starts on 10May2023 at 10:50:18 

     This program is part of the open-source Quantum ESPRESSO suite
     for quantum simulation of materials; please cite
         "P. Giannozzi et al., J. Phys.:Condens. Matter 21 395502 (2009);
         "P. Giannozzi et al., J. Phys.:Condens. Matter 29 465901 (2017);
         "P. Giannozzi et al., J. Chem. Phys. 152 154105 (2020);
          URL http://www.quantum-espresso.org", 
     in publications or presentations arising from this work. More details at
     http://www.quantum-espresso.org/quote

     Parallel version (MPI & OpenMP), running on       4 processor cores
     Number of MPI processes:                 4
     Threads/MPI process:                     1

     MPI processes distributed on     1 nodes
     753537 MiB available memory on the printing compute node when the environment starts
 
     Reading input from pw-si-79.in
Warning: card &CELL ignored
Warning: card / ignored

     Current dimensions of program PWSCF are:
     Max number of different atomic species (ntypx) = 10
     Max number of k-points (npk) =  40000
     Max angular momentum in pseudopotentials (lmaxx) =  4

     IMPORTANT: XC functional enforced from input :
     Exchange-correlation= PBE
                           (   1   4   3   4   0   0   0)
     Any further DFT definition will be discarded
     Please, verify this is what you really want


     gamma-point specific algorithms are used
 
     K-points division:     npool     =       2
     R & G space division:  proc/nbgrp/npool/nimage =       2
     Subspace diagonalization in iterative solution of the eigenvalue problem:
     a serial algorithm will be used

     Message from routine divide_et_impera:
     suboptimal parallelization: some nodes have no k-points
 
     Parallelization info
     --------------------
     sticks:   dense  smooth     PW     G-vecs:    dense   smooth      PW
     Min        1900    1900    501                88452    88452   11935
     Max        1901    1901    504                88457    88457   11936
     Sum        3801    3801   1005               176909   176909   23871
 
     Using Slab Decomposition
 


     bravais-lattice index     =            0
     lattice parameter (alat)  =      19.9613  a.u.
     unit-cell volume          =    7953.6898 (a.u.)^3
     number of atoms/cell      =           64
     number of atomic types    =            1
     number of electrons       =       256.00
     number of Kohn-Sham states=          154
     kinetic-energy cutoff     =      30.0000  Ry
     charge density cutoff     =     120.0000  Ry
     scf convergence threshold =      1.0E-06
     mixing beta               =       0.5000
     number of iterations used =            8  plain     mixing
     Exchange-correlation= PBE
                           (   1   4   3   4   0   0   0)

     GPU acceleration is ACTIVE.
     GPU-aware MPI enabled

     Message from routine print_cuda_info:
     High GPU oversubscription detected. Are you sure this is what you want?

     celldm(1)=  19.961333  celldm(2)=   0.000000  celldm(3)=   0.000000
     celldm(4)=   0.000000  celldm(5)=   0.000000  celldm(6)=   0.000000

     crystal axes: (cart. coord. in units of alat)
               a(1) = (   1.000000   0.000000   0.000000 )  
               a(2) = (   0.000000   1.000000   0.000000 )  
               a(3) = (   0.000000   0.000000   1.000000 )  

     reciprocal axes: (cart. coord. in units 2 pi/alat)
               b(1) = (  1.000000  0.000000  0.000000 )  
               b(2) = (  0.000000  1.000000  0.000000 )  
               b(3) = (  0.000000  0.000000  1.000000 )  


     PseudoPot. # 1 for Si read from file:
     /home/ppiaggi/pseudos/Si_ONCV_PBE_sr.upf
     MD5 check sum: 8553c464762ac42b85b1eed164b4d029
     Pseudo is Norm-conserving, Zval =  4.0
     Generated using ONCVPSP code by D. R. Hamann
     Using radial grid of 1510 points,  4 beta functions with: 
                l(1) =   0
                l(2) =   0
                l(3) =   1
                l(4) =   1

     atomic species   valence    mass     pseudopotential
        Si             4.00    28.08500     Si( 1.00)

     No symmetry found



   Cartesian axes

     site n.     atom                  positions (alat units)
         1           Si  tau(   1) = (   0.1111230   0.6783350   0.0938080  )
         2           Si  tau(   2) = (   0.4439200   0.4389360   0.1501620  )
         3           Si  tau(   3) = (   0.7674080   0.1562910   0.5739390  )
         4           Si  tau(   4) = (   0.3343270   0.5907790   0.4342980  )
         5           Si  tau(   5) = (   0.1621530   0.1839070   0.4494800  )
         6           Si  tau(   6) = (   0.3334400   0.2095840   0.0030651  )
         7           Si  tau(   7) = (   0.5073880   0.2051130   0.4723280  )
         8           Si  tau(   8) = (   0.3135210   0.6662280   0.7221290  )
         9           Si  tau(   9) = (   0.7828180   0.4163580   0.6635340  )
        10           Si  tau(  10) = (   0.3046130   0.3506300   0.5065960  )
        11           Si  tau(  11) = (   0.8988190   0.6459330   0.3615090  )
        12           Si  tau(  12) = (   0.9226720   0.0731673   0.0667182  )
        13           Si  tau(  13) = (   0.9726210   0.3159080   0.4861930  )
        14           Si  tau(  14) = (   0.0342482   0.3266440   0.1550510  )
        15           Si  tau(  15) = (   0.4222830   0.0056208   0.1704810  )
        16           Si  tau(  16) = (   0.4723930   0.9128440   0.8305360  )
        17           Si  tau(  17) = (   0.5843430   0.2570200   0.0494399  )
        18           Si  tau(  18) = (   0.6702620   0.7690440   0.7856690  )
        19           Si  tau(  19) = (   0.8884610   0.7638780   0.8888000  )
        20           Si  tau(  20) = (   0.1330810   0.9626500   0.1156220  )
        21           Si  tau(  21) = (   0.9917220   0.5033050   0.9433460  )
        22           Si  tau(  22) = (   0.4060560   0.0402868   0.6602180  )
        23           Si  tau(  23) = (   0.5838270   0.0029879   0.3704560  )
        24           Si  tau(  24) = (   0.6349690   0.7528180   0.0785968  )
        25           Si  tau(  25) = (   0.5797260   0.0459024   0.9972930  )
        26           Si  tau(  26) = (   0.1670330   0.0545592   0.6685740  )
        27           Si  tau(  27) = (   0.4059770   0.7592720   0.0419067  )
        28           Si  tau(  28) = (   0.7420710   0.9540740   0.1586460  )
        29           Si  tau(  29) = (   0.5590070   0.6484340   0.2748000  )
        30           Si  tau(  30) = (   0.7316770   0.3425220   0.8946960  )
        31           Si  tau(  31) = (   0.4076850   0.5553590   0.9571300  )
        32           Si  tau(  32) = (   0.4026640   0.2379960   0.2826430  )
        33           Si  tau(  33) = (   0.8361550   0.9939140   0.4119430  )
        34           Si  tau(  34) = (   0.5937390   0.4207800   0.5209850  )
        35           Si  tau(  35) = (   0.8767970   0.2005170   0.2856500  )
        36           Si  tau(  36) = (   0.6071330   0.5534010   0.9077640  )
        37           Si  tau(  37) = (   0.2172020   0.4651970   0.2272100  )
        38           Si  tau(  38) = (   0.2674590   0.7715050   0.2511990  )
        39           Si  tau(  39) = (   0.9506280   0.5766210   0.7402220  )
        40           Si  tau(  40) = (   0.1151840   0.6149320   0.5947520  )
        41           Si  tau(  41) = (   0.9966110   0.8673810   0.3272420  )
        42           Si  tau(  42) = (   0.7850310   0.5512290   0.1000870  )
        43           Si  tau(  43) = (   0.5712230   0.7805680   0.4434320  )
        44           Si  tau(  44) = (   0.2140030   0.4261150   0.9558370  )
        45           Si  tau(  45) = (   0.7825540   0.7187280   0.5494580  )
        46           Si  tau(  46) = (   0.4969950   0.2283620   0.7965170  )
        47           Si  tau(  47) = (   0.2289450   0.7810780   0.8967100  )
        48           Si  tau(  48) = (   0.5465730   0.6017530   0.6337250  )
        49           Si  tau(  49) = (   0.1707200   0.3852140   0.7094140  )
        50           Si  tau(  50) = (   0.6813830   0.2718930   0.2752210  )
        51           Si  tau(  51) = (   0.8700130   0.9229110   0.6395490  )
        52           Si  tau(  52) = (   0.1753280   0.1773940   0.2049920  )
        53           Si  tau(  53) = (   0.0638383   0.5001720   0.4098910  )
        54           Si  tau(  54) = (   0.3569690   0.8339860   0.5447430  )
        55           Si  tau(  55) = (   0.4329560   0.4138360   0.7134390  )
        56           Si  tau(  56) = (   0.2733330   0.9690210   0.3771510  )
        57           Si  tau(  57) = (   0.0133186   0.2322850   0.7016890  )
        58           Si  tau(  58) = (   0.0091213   0.9571060   0.8471810  )
        59           Si  tau(  59) = (   0.0925767   0.8618830   0.5535220  )
        60           Si  tau(  60) = (   0.9006170   0.7529310   0.1284970  )
        61           Si  tau(  61) = (   0.2447310   0.0124714   0.9222030  )
        62           Si  tau(  62) = (   0.7491980   0.0863088   0.8048850  )
        63           Si  tau(  63) = (   0.9310160   0.2134460   0.9124210  )
        64           Si  tau(  64) = (   0.7085680   0.4895900   0.3226960  )

     number of k points=     1  Fermi-Dirac smearing, width (Ry)=  0.0100
                       cart. coord. in units 2pi/alat
        k(    1) = (   0.0000000   0.0000000   0.0000000), wk =   2.0000000

     Dense  grid:    88455 G-vectors     FFT dimensions: (  72,  72,  72)

     Estimated max dynamical RAM per process >     142.15 MB

     Estimated total dynamical RAM >     547.01 MB

     Initial potential from superposition of free atoms

     starting charge     255.9608, renormalised to     256.0000
     Starting wfcs are  256 randomized atomic wfcs

     total cpu time spent up to now is        5.0 secs

     Self-consistent Calculation

     iteration #  1     ecut=    30.00 Ry     beta= 0.50
     Davidson diagonalization with overlap
     ethr =  1.00E-02,  avg # of iterations =  3.0

     Threshold (ethr) on eigenvalues was too large:
     Diagonalizing with lowered threshold

     Davidson diagonalization with overlap
     ethr =  3.68E-04,  avg # of iterations =  4.0

     total cpu time spent up to now is        5.3 secs

     total energy              =    -501.29219105 Ry
     estimated scf accuracy    <       1.12762826 Ry

     iteration #  2     ecut=    30.00 Ry     beta= 0.50
     Davidson diagonalization with overlap
     ethr =  4.40E-04,  avg # of iterations =  4.0

     total cpu time spent up to now is        5.4 secs

     total energy              =    -500.93325922 Ry
     estimated scf accuracy    <       3.75645599 Ry

     iteration #  3     ecut=    30.00 Ry     beta= 0.50
     Davidson diagonalization with overlap
     ethr =  4.40E-04,  avg # of iterations =  3.0

     total cpu time spent up to now is        5.5 secs

     total energy              =    -501.30499717 Ry
     estimated scf accuracy    <       2.19102588 Ry

     iteration #  4     ecut=    30.00 Ry     beta= 0.50
     Davidson diagonalization with overlap
     ethr =  4.40E-04,  avg # of iterations =  2.0

     total cpu time spent up to now is        5.6 secs

     total energy              =    -501.44592515 Ry
     estimated scf accuracy    <       0.53276357 Ry

     iteration #  5     ecut=    30.00 Ry     beta= 0.50
     Davidson diagonalization with overlap
     ethr =  2.08E-04,  avg # of iterations =  2.0

     total cpu time spent up to now is        5.7 secs

     total energy              =    -501.48196474 Ry
     estimated scf accuracy    <       0.22262193 Ry

     iteration #  6     ecut=    30.00 Ry     beta= 0.50
     Davidson diagonalization with overlap
     ethr =  8.70E-05,  avg # of iterations =  2.0

     total cpu time spent up to now is        5.8 secs

     total energy              =    -501.50432612 Ry
     estimated scf accuracy    <       0.18947072 Ry

     iteration #  7     ecut=    30.00 Ry     beta= 0.50
     Davidson diagonalization with overlap
     ethr =  7.40E-05,  avg # of iterations =  1.0

     total cpu time spent up to now is        5.9 secs

     total energy              =    -501.51766820 Ry
     estimated scf accuracy    <       0.00931852 Ry

     iteration #  8     ecut=    30.00 Ry     beta= 0.50
     Davidson diagonalization with overlap
     c_bands:  1 eigenvalues not converged
     ethr =  3.64E-06,  avg # of iterations = 20.0

     total cpu time spent up to now is        6.1 secs

     total energy              =    -501.51859871 Ry
     estimated scf accuracy    <       0.02497779 Ry

     iteration #  9     ecut=    30.00 Ry     beta= 0.50
     Davidson diagonalization with overlap
     ethr =  3.64E-06,  avg # of iterations =  6.0

     total cpu time spent up to now is        6.2 secs

     total energy              =    -501.52055061 Ry
     estimated scf accuracy    <       0.00205776 Ry

     iteration # 10     ecut=    30.00 Ry     beta= 0.50
     Davidson diagonalization with overlap
     ethr =  8.04E-07,  avg # of iterations =  2.0

     total cpu time spent up to now is        6.3 secs

     total energy              =    -501.52073272 Ry
     estimated scf accuracy    <       0.00077247 Ry

     iteration # 11     ecut=    30.00 Ry     beta= 0.50
     Davidson diagonalization with overlap
     ethr =  3.02E-07,  avg # of iterations =  3.0

     total cpu time spent up to now is        6.4 secs

     total energy              =    -501.52077177 Ry
     estimated scf accuracy    <       0.00045913 Ry

     iteration # 12     ecut=    30.00 Ry     beta= 0.50
     Davidson diagonalization with overlap
     ethr =  1.79E-07,  avg # of iterations =  2.0

     total cpu time spent up to now is        6.5 secs

     total energy              =    -501.52081130 Ry
     estimated scf accuracy    <       0.00036965 Ry

     iteration # 13     ecut=    30.00 Ry     beta= 0.50
     Davidson diagonalization with overlap
     ethr =  1.44E-07,  avg # of iterations =  1.0

     total cpu time spent up to now is        6.6 secs

     total energy              =    -501.52083575 Ry
     estimated scf accuracy    <       0.00004352 Ry

     iteration # 14     ecut=    30.00 Ry     beta= 0.50
     Davidson diagonalization with overlap
     ethr =  1.70E-08,  avg # of iterations =  3.0

     total cpu time spent up to now is        6.7 secs

     total energy              =    -501.52084026 Ry
     estimated scf accuracy    <       0.00004557 Ry

     iteration # 15     ecut=    30.00 Ry     beta= 0.50
     Davidson diagonalization with overlap
     ethr =  1.70E-08,  avg # of iterations =  2.0

     total cpu time spent up to now is        6.8 secs

     total energy              =    -501.52084310 Ry
     estimated scf accuracy    <       0.00000562 Ry

     iteration # 16     ecut=    30.00 Ry     beta= 0.50
     Davidson diagonalization with overlap
     ethr =  2.19E-09,  avg # of iterations =  4.0

     total cpu time spent up to now is        6.9 secs

     total energy              =    -501.52084411 Ry
     estimated scf accuracy    <       0.00000640 Ry

     iteration # 17     ecut=    30.00 Ry     beta= 0.50
     Davidson diagonalization with overlap
     ethr =  2.19E-09,  avg # of iterations =  2.0

     total cpu time spent up to now is        7.0 secs

     total energy              =    -501.52084427 Ry
     estimated scf accuracy    <       0.00000498 Ry

     iteration # 18     ecut=    30.00 Ry     beta= 0.50
     Davidson diagonalization with overlap
     ethr =  1.95E-09,  avg # of iterations =  1.0

     total cpu time spent up to now is        7.1 secs

     End of self-consistent calculation

          k = 0.0000 0.0000 0.0000 ( 11060 PWs)   bands (ev):

    -5.1792  -4.1766  -4.1648  -4.0204  -3.8891  -3.8570  -3.7780  -3.1801
    -3.0598  -2.9687  -2.9142  -2.8684  -2.7564  -2.6587  -2.6076  -2.5353
    -2.4900  -2.3499  -2.3168  -1.8730  -1.6510  -1.6199  -1.5342  -1.4755
    -1.3405  -1.2788  -1.1343  -0.6696  -0.4641  -0.4255  -0.3524  -0.2866
    -0.0614   0.0265   0.2202   0.2542   0.3283   0.4438   0.5772   0.6408
     0.6728   0.7527   0.8014   0.8917   0.9582   1.0196   1.1584   1.2345
     1.2639   1.3445   1.4311   1.4642   1.5807   1.6824   1.8029   1.8413
     1.9425   2.0965   2.1856   2.2108   2.4192   2.5136   2.5882   2.7333
     2.7872   2.8885   2.9289   2.9637   3.0085   3.0239   3.0993   3.2420
     3.2596   3.2803   3.4497   3.5399   3.6183   3.6759   3.7114   3.7913
     3.9565   4.5013   4.5834   4.6576   4.7711   4.8373   4.8595   4.9250
     4.9615   5.0220   5.0887   5.1195   5.2395   5.3217   5.3552   5.5229
     5.5802   5.6354   5.7014   5.7484   5.8432   5.8592   5.8969   6.0223
     6.0553   6.1455   6.1596   6.2126   6.2305   6.2787   6.3209   6.4358
     6.4503   6.5872   6.6057   6.6816   6.7597   6.8189   6.8477   6.9070
     6.9793   7.0339   7.0677   7.0781   7.1424   7.2101   7.2658   7.3069
     7.4236   7.4627   7.4946   7.5310   7.5813   7.6889   7.7425   7.8723
     7.9367   7.9913   8.0308   8.1771   8.1914   8.2373   8.3341   8.3472
     8.4169   8.4743   8.5550   8.6112   8.7619   8.7851   8.8470   8.8778
     8.9456   9.0802

     the Fermi energy is     7.3632 ev

!    total energy              =    -501.52084423 Ry
     estimated scf accuracy    <       0.00000060 Ry
     smearing contrib. (-TS)   =      -0.15499331 Ry
     internal energy E=F+TS    =    -501.36585092 Ry

     The total energy is F=E-TS. E is the sum of the following terms:
     one-electron contribution =     201.84590891 Ry
     hartree contribution      =      19.81730536 Ry
     xc contribution           =    -151.18505093 Ry
     ewald contribution        =    -571.84401426 Ry

     convergence has been achieved in  18 iterations

     Forces acting on atoms (cartesian axes, Ry/au):

     atom    1 type  1   force =     0.00320510   -0.01194580   -0.02063681
     atom    2 type  1   force =     0.01360322   -0.02221805    0.02380518
     atom    3 type  1   force =    -0.00004915    0.00406075    0.01688005
     atom    4 type  1   force =     0.00527444   -0.01785991   -0.02152345
     atom    5 type  1   force =     0.00622887   -0.01811645   -0.01930325
     atom    6 type  1   force =     0.00380486    0.02185032    0.00537056
     atom    7 type  1   force =     0.04592431   -0.02842629    0.02501762
     atom    8 type  1   force =    -0.00223330    0.01111060   -0.03969434
     atom    9 type  1   force =     0.00866815   -0.01361873    0.02075922
     atom   10 type  1   force =     0.01904236    0.02846322    0.01939241
     atom   11 type  1   force =    -0.02196059   -0.00371683   -0.00955596
     atom   12 type  1   force =     0.01555445   -0.04684840    0.06180838
     atom   13 type  1   force =    -0.03493748   -0.03926126   -0.00473897
     atom   14 type  1   force =    -0.02897232    0.04818535   -0.02388479
     atom   15 type  1   force =     0.00586369    0.02086300    0.03547037
     atom   16 type  1   force =     0.02696278   -0.01880061    0.04916097
     atom   17 type  1   force =    -0.00515516    0.04508229    0.02832413
     atom   18 type  1   force =    -0.00117637   -0.02477845    0.01116731
     atom   19 type  1   force =    -0.01164435   -0.00285539   -0.01560041
     atom   20 type  1   force =    -0.01473185    0.00312543    0.02444960
     atom   21 type  1   force =     0.00482056   -0.00233654    0.05875273
     atom   22 type  1   force =    -0.01853239    0.02574934   -0.01549763
     atom   23 type  1   force =     0.03099675   -0.00100444   -0.02303509
     atom   24 type  1   force =    -0.00438791    0.00349252    0.00786884
     atom   25 type  1   force =     0.01177680   -0.05129450   -0.01768298
     atom   26 type  1   force =    -0.00740727   -0.00235622   -0.00255143
     atom   27 type  1   force =     0.00966372    0.02530857    0.02474988
     atom   28 type  1   force =    -0.03226878   -0.03600229   -0.01328782
     atom   29 type  1   force =    -0.02421561   -0.03902762   -0.04541306
     atom   30 type  1   force =    -0.01513988    0.00861105   -0.03167539
     atom   31 type  1   force =    -0.07723538   -0.01288227   -0.00322174
     atom   32 type  1   force =    -0.03777653   -0.01074750   -0.05628032
     atom   33 type  1   force =    -0.04010737    0.03685063   -0.00112716
     atom   34 type  1   force =     0.02229722   -0.01290619    0.01272228
     atom   35 type  1   force =     0.05516823   -0.02234543    0.02296153
     atom   36 type  1   force =     0.09942182    0.02211810   -0.03824701
     atom   37 type  1   force =    -0.02492864    0.02991970    0.00410676
     atom   38 type  1   force =     0.01312443    0.00464601   -0.02483553
     atom   39 type  1   force =    -0.03382909    0.00386312   -0.02249688
     atom   40 type  1   force =     0.02503977    0.01634374    0.02898955
     atom   41 type  1   force =     0.01622524   -0.03725419   -0.00369367
     atom   42 type  1   force =    -0.01033054   -0.00129791   -0.00754752
     atom   43 type  1   force =     0.00291651    0.03289738    0.04169332
     atom   44 type  1   force =     0.01525485   -0.02874738   -0.02342720
     atom   45 type  1   force =    -0.02840030    0.02684823    0.01408846
     atom   46 type  1   force =     0.02071586   -0.05488033    0.03888203
     atom   47 type  1   force =    -0.01144197    0.00422921    0.01702103
     atom   48 type  1   force =    -0.00112026    0.03148781    0.02312628
     atom   49 type  1   force =     0.04026687    0.04454326    0.01525806
     atom   50 type  1   force =    -0.06494453    0.01859691   -0.02983621
     atom   51 type  1   force =     0.00362915   -0.01216471    0.00193501
     atom   52 type  1   force =     0.07099953   -0.04882816    0.02747614
     atom   53 type  1   force =     0.01931881    0.02768738   -0.02019361
     atom   54 type  1   force =     0.01926223    0.00086273    0.01880356
     atom   55 type  1   force =    -0.03206610    0.03230027   -0.01531204
     atom   56 type  1   force =    -0.00872693    0.00091236   -0.00637593
     atom   57 type  1   force =    -0.00893701   -0.03551327   -0.02651166
     atom   58 type  1   force =    -0.00526560    0.00499682   -0.00572401
     atom   59 type  1   force =    -0.00570940    0.00275643   -0.00215289
     atom   60 type  1   force =    -0.00580898   -0.00348554    0.01259220
     atom   61 type  1   force =    -0.00222906   -0.00717872   -0.02455561
     atom   62 type  1   force =     0.00189865    0.01673386   -0.01609555
     atom   63 type  1   force =    -0.03689887    0.04411698   -0.04368283
     atom   64 type  1   force =     0.02163974    0.02008600   -0.01723472

     Total force =     0.370663     Total SCF correction =     0.001589


     Computing stress (Cartesian axis) and pressure

          total   stress  (Ry/bohr**3)                   (kbar)     P=      -29.89
  -0.00018359  -0.00002902   0.00000931          -27.01       -4.27        1.37
  -0.00002902  -0.00019248  -0.00007596           -4.27      -28.31      -11.17
   0.00000931  -0.00007596  -0.00023357            1.37      -11.17      -34.36

 
     init_run     :      1.07s CPU      4.95s WALL (       1 calls)
     electrons    :      1.92s CPU      2.06s WALL (       1 calls)
     forces       :      0.03s CPU      0.04s WALL (       1 calls)
     stress       :      0.15s CPU      0.15s WALL (       1 calls)

     Called by init_run:
     wfcinit      :      0.53s CPU      4.23s WALL (       1 calls)
                                        4.23s GPU  (       1 calls)
     potinit      :      0.05s CPU      0.15s WALL (       1 calls)
     hinit0       :      0.47s CPU      0.50s WALL (       1 calls)

     Called by electrons:
     c_bands      :      1.15s CPU      1.22s WALL (      19 calls)
     sum_band     :      0.37s CPU      0.42s WALL (      19 calls)
     v_of_rho     :      0.18s CPU      0.29s WALL (      19 calls)
     mix_rho      :      0.18s CPU      0.19s WALL (      19 calls)

     Called by c_bands:
     init_us_2    :      0.07s CPU      0.07s WALL (      39 calls)
     init_us_2:gp :      0.07s CPU      0.07s WALL (      39 calls)
     regterg      :      0.98s CPU      1.04s WALL (      19 calls)

     Called by *egterg:
     rdiaghg      :      0.41s CPU      1.17s WALL (      85 calls)
                                        1.15s GPU  (      85 calls)
     h_psi        :      0.93s CPU      3.91s WALL (      87 calls)
                                        3.90s GPU  (      87 calls)
     g_psi        :      0.00s CPU      0.00s WALL (      67 calls)
                                        0.00s GPU  (      67 calls)

     Called by h_psi:
     h_psi:calbec :      0.49s CPU      3.39s WALL (      87 calls)
                                        3.39s GPU  (      87 calls)
     vloc_psi     :      0.38s CPU      0.45s WALL (      87 calls)
                                        0.45s GPU  (      87 calls)
     add_vuspsi   :      0.04s CPU      0.05s WALL (      87 calls)
                                        0.05s GPU  (      87 calls)

     General routines
     calbec       :      0.50s CPU      3.40s WALL (      92 calls)
     fft          :      0.62s CPU      0.75s WALL (     159 calls)
                                        0.14s GPU  (     101 calls)
     ffts         :      0.04s CPU      0.05s WALL (      19 calls)
     fftw         :      0.46s CPU      0.61s WALL (    2005 calls)
                                        0.53s GPU  (    2005 calls)
 
     Parallel routines
 
     PWSCF        :      3.22s CPU      7.29s WALL

 
   This run was terminated on:  10:50:25  10May2023            

=------------------------------------------------------------------------------=
   JOB DONE.
=------------------------------------------------------------------------------=
