An instance of this daemon is already running
An instance of this daemon is already running

     Program PWSCF v.7.1 starts on 10May2023 at 10:51: 6 

     This program is part of the open-source Quantum ESPRESSO suite
     for quantum simulation of materials; please cite
         "P. Giannozzi et al., J. Phys.:Condens. Matter 21 395502 (2009);
         "P. Giannozzi et al., J. Phys.:Condens. Matter 29 465901 (2017);
         "P. Giannozzi et al., J. Chem. Phys. 152 154105 (2020);
          URL http://www.quantum-espresso.org", 
     in publications or presentations arising from this work. More details at
     http://www.quantum-espresso.org/quote

     Parallel version (MPI & OpenMP), running on       4 processor cores
     Number of MPI processes:                 4
     Threads/MPI process:                     1

     MPI processes distributed on     1 nodes
     753550 MiB available memory on the printing compute node when the environment starts
 
     Reading input from pw-si-84.in
Warning: card &CELL ignored
Warning: card / ignored

     Current dimensions of program PWSCF are:
     Max number of different atomic species (ntypx) = 10
     Max number of k-points (npk) =  40000
     Max angular momentum in pseudopotentials (lmaxx) =  4

     IMPORTANT: XC functional enforced from input :
     Exchange-correlation= PBE
                           (   1   4   3   4   0   0   0)
     Any further DFT definition will be discarded
     Please, verify this is what you really want


     gamma-point specific algorithms are used
 
     K-points division:     npool     =       2
     R & G space division:  proc/nbgrp/npool/nimage =       2
     Subspace diagonalization in iterative solution of the eigenvalue problem:
     a serial algorithm will be used

     Message from routine divide_et_impera:
     suboptimal parallelization: some nodes have no k-points
 
     Parallelization info
     --------------------
     sticks:   dense  smooth     PW     G-vecs:    dense   smooth      PW
     Min        1929    1929    504                90087    90087   12201
     Max        1932    1932    505                90092    90092   12204
     Sum        3861    3861   1009               180179   180179   24405
 
     Using Slab Decomposition
 


     bravais-lattice index     =            0
     lattice parameter (alat)  =      20.0976  a.u.
     unit-cell volume          =    8117.7083 (a.u.)^3
     number of atoms/cell      =           64
     number of atomic types    =            1
     number of electrons       =       256.00
     number of Kohn-Sham states=          154
     kinetic-energy cutoff     =      30.0000  Ry
     charge density cutoff     =     120.0000  Ry
     scf convergence threshold =      1.0E-06
     mixing beta               =       0.5000
     number of iterations used =            8  plain     mixing
     Exchange-correlation= PBE
                           (   1   4   3   4   0   0   0)

     GPU acceleration is ACTIVE.
     GPU-aware MPI enabled

     Message from routine print_cuda_info:
     High GPU oversubscription detected. Are you sure this is what you want?

     celldm(1)=  20.097613  celldm(2)=   0.000000  celldm(3)=   0.000000
     celldm(4)=   0.000000  celldm(5)=   0.000000  celldm(6)=   0.000000

     crystal axes: (cart. coord. in units of alat)
               a(1) = (   1.000000   0.000000   0.000000 )  
               a(2) = (   0.000000   1.000000   0.000000 )  
               a(3) = (   0.000000   0.000000   1.000000 )  

     reciprocal axes: (cart. coord. in units 2 pi/alat)
               b(1) = (  1.000000  0.000000  0.000000 )  
               b(2) = (  0.000000  1.000000  0.000000 )  
               b(3) = (  0.000000  0.000000  1.000000 )  


     PseudoPot. # 1 for Si read from file:
     /home/ppiaggi/pseudos/Si_ONCV_PBE_sr.upf
     MD5 check sum: 8553c464762ac42b85b1eed164b4d029
     Pseudo is Norm-conserving, Zval =  4.0
     Generated using ONCVPSP code by D. R. Hamann
     Using radial grid of 1510 points,  4 beta functions with: 
                l(1) =   0
                l(2) =   0
                l(3) =   1
                l(4) =   1

     atomic species   valence    mass     pseudopotential
        Si             4.00    28.08500     Si( 1.00)

     No symmetry found



   Cartesian axes

     site n.     atom                  positions (alat units)
         1           Si  tau(   1) = (   0.1813760   0.8140810   0.2085260  )
         2           Si  tau(   2) = (   0.0122743   0.1646180   0.7004030  )
         3           Si  tau(   3) = (   0.6610790   0.3498570   0.7206910  )
         4           Si  tau(   4) = (   0.1225730   0.2993130   0.5395580  )
         5           Si  tau(   5) = (   0.8530810   0.7994560   0.8960160  )
         6           Si  tau(   6) = (   0.2957700   0.8733760   0.4230620  )
         7           Si  tau(   7) = (   0.0605513   0.3334590   0.1991290  )
         8           Si  tau(   8) = (   0.8607550   0.0060753   0.6688580  )
         9           Si  tau(   9) = (   0.8186340   0.5976370   0.1337220  )
        10           Si  tau(  10) = (   0.2702930   0.3485220   0.2398300  )
        11           Si  tau(  11) = (   0.2800890   0.1692410   0.4071130  )
        12           Si  tau(  12) = (   0.8038240   0.1044600   0.2294400  )
        13           Si  tau(  13) = (   0.3279510   0.5537320   0.9719140  )
        14           Si  tau(  14) = (   0.7157130   0.6006270   0.6044590  )
        15           Si  tau(  15) = (   0.0454376   0.0415321   0.9391280  )
        16           Si  tau(  16) = (   0.6549850   0.9773300   0.4286250  )
        17           Si  tau(  17) = (   0.5348790   0.1718490   0.7901280  )
        18           Si  tau(  18) = (   0.2419420   0.0448265   0.6292000  )
        19           Si  tau(  19) = (   0.1818480   0.2464730   0.9767440  )
        20           Si  tau(  20) = (   0.4198950   0.7330280   0.6046740  )
        21           Si  tau(  21) = (   0.2486190   0.5212900   0.5305800  )
        22           Si  tau(  22) = (   0.5557290   0.7736370   0.3948650  )
        23           Si  tau(  23) = (   0.6938360   0.8087070   0.1269680  )
        24           Si  tau(  24) = (   0.1562930   0.8798240   0.7718300  )
        25           Si  tau(  25) = (   0.9537390   0.4182390   0.0020198  )
        26           Si  tau(  26) = (   0.6790620   0.4062710   0.0775772  )
        27           Si  tau(  27) = (   0.2734240   0.5538870   0.3210170  )
        28           Si  tau(  28) = (   0.5347320   0.4416310   0.2707230  )
        29           Si  tau(  29) = (   0.9697690   0.4669800   0.4364570  )
        30           Si  tau(  30) = (   0.4868350   0.5231910   0.7542230  )
        31           Si  tau(  31) = (   0.0788785   0.6138420   0.0205804  )
        32           Si  tau(  32) = (   0.7255590   0.2230110   0.5386450  )
        33           Si  tau(  33) = (   0.1011560   0.0419700   0.2636340  )
        34           Si  tau(  34) = (   0.8902810   0.9091540   0.2553620  )
        35           Si  tau(  35) = (   0.5555650   0.2017400   0.2756340  )
        36           Si  tau(  36) = (   0.4805910   0.2601480   0.5213750  )
        37           Si  tau(  37) = (   0.9533030   0.7497820   0.3996760  )
        38           Si  tau(  38) = (   0.4476660   0.6559120   0.2302640  )
        39           Si  tau(  39) = (   0.3148260   0.7430090   0.8295880  )
        40           Si  tau(  40) = (   0.9446540   0.2382540   0.3689210  )
        41           Si  tau(  41) = (   0.7243960   0.5947640   0.3623430  )
        42           Si  tau(  42) = (   0.1424860   0.7299440   0.5416850  )
        43           Si  tau(  43) = (   0.5607840   0.6278540   0.0352927  )
        44           Si  tau(  44) = (   0.5046600   0.9112890   0.8175930  )
        45           Si  tau(  45) = (   0.8970630   0.3124600   0.7979550  )
        46           Si  tau(  46) = (   0.4312340   0.9881820   0.2784980  )
        47           Si  tau(  47) = (   0.0679598   0.6252380   0.7874610  )
        48           Si  tau(  48) = (   0.4943950   0.0205880   0.6075360  )
        49           Si  tau(  49) = (   0.9145190   0.4891070   0.6602190  )
        50           Si  tau(  50) = (   0.7708310   0.9850970   0.8719960  )
        51           Si  tau(  51) = (   0.2407540   0.4531950   0.7441360  )
        52           Si  tau(  52) = (   0.2718970   0.0481319   0.0970923  )
        53           Si  tau(  53) = (   0.0361401   0.5935690   0.2405670  )
        54           Si  tau(  54) = (   0.6082140   0.7187030   0.8056790  )
        55           Si  tau(  55) = (   0.4911160   0.4906060   0.5112540  )
        56           Si  tau(  56) = (   0.8489920   0.1586260   0.0117476  )
        57           Si  tau(  57) = (   0.3611500   0.7951320   0.0531975  )
        58           Si  tau(  58) = (   0.8899690   0.7615760   0.6715720  )
        59           Si  tau(  59) = (   0.0315803   0.9861510   0.4921680  )
        60           Si  tau(  60) = (   0.2914940   0.2325100   0.7395390  )
        61           Si  tau(  61) = (   0.9877020   0.8257290   0.0624119  )
        62           Si  tau(  62) = (   0.5828300   0.1799270   0.0322505  )
        63           Si  tau(  63) = (   0.5171380   0.9639490   0.0464594  )
        64           Si  tau(  64) = (   0.3774540   0.3066130   0.0480830  )

     number of k points=     1  Fermi-Dirac smearing, width (Ry)=  0.0100
                       cart. coord. in units 2pi/alat
        k(    1) = (   0.0000000   0.0000000   0.0000000), wk =   2.0000000

     Dense  grid:    90090 G-vectors     FFT dimensions: (  72,  72,  72)

     Estimated max dynamical RAM per process >     144.72 MB

     Estimated total dynamical RAM >     556.89 MB

     Initial potential from superposition of free atoms

     starting charge     255.9608, renormalised to     256.0000
     Starting wfcs are  256 randomized atomic wfcs

     total cpu time spent up to now is        5.0 secs

     Self-consistent Calculation

     iteration #  1     ecut=    30.00 Ry     beta= 0.50
     Davidson diagonalization with overlap
     ethr =  1.00E-02,  avg # of iterations =  3.0

     Threshold (ethr) on eigenvalues was too large:
     Diagonalizing with lowered threshold

     Davidson diagonalization with overlap
     ethr =  3.96E-04,  avg # of iterations =  4.0

     total cpu time spent up to now is        5.3 secs

     total energy              =    -500.98786666 Ry
     estimated scf accuracy    <       1.24765891 Ry

     iteration #  2     ecut=    30.00 Ry     beta= 0.50
     Davidson diagonalization with overlap
     ethr =  4.87E-04,  avg # of iterations =  5.0

     total cpu time spent up to now is        5.4 secs

     total energy              =    -500.30810145 Ry
     estimated scf accuracy    <       9.89950198 Ry

     iteration #  3     ecut=    30.00 Ry     beta= 0.50
     Davidson diagonalization with overlap
     ethr =  4.87E-04,  avg # of iterations =  5.0

     total cpu time spent up to now is        5.5 secs

     total energy              =    -501.12119106 Ry
     estimated scf accuracy    <       1.96739206 Ry

     iteration #  4     ecut=    30.00 Ry     beta= 0.50
     Davidson diagonalization with overlap
     ethr =  4.87E-04,  avg # of iterations =  2.0

     total cpu time spent up to now is        5.6 secs

     total energy              =    -501.24634171 Ry
     estimated scf accuracy    <       0.64249437 Ry

     iteration #  5     ecut=    30.00 Ry     beta= 0.50
     Davidson diagonalization with overlap
     ethr =  2.51E-04,  avg # of iterations =  2.0

     total cpu time spent up to now is        5.7 secs

     total energy              =    -501.26718989 Ry
     estimated scf accuracy    <       0.69817292 Ry

     iteration #  6     ecut=    30.00 Ry     beta= 0.50
     Davidson diagonalization with overlap
     ethr =  2.51E-04,  avg # of iterations =  1.0

     total cpu time spent up to now is        5.8 secs

     total energy              =    -501.32243997 Ry
     estimated scf accuracy    <       0.06890960 Ry

     iteration #  7     ecut=    30.00 Ry     beta= 0.50
     Davidson diagonalization with overlap
     ethr =  2.69E-05,  avg # of iterations = 14.0

     total cpu time spent up to now is        6.0 secs

     total energy              =    -501.32859822 Ry
     estimated scf accuracy    <       0.07950852 Ry

     iteration #  8     ecut=    30.00 Ry     beta= 0.50
     Davidson diagonalization with overlap
     ethr =  2.69E-05,  avg # of iterations =  2.0

     total cpu time spent up to now is        6.1 secs

     total energy              =    -501.33559495 Ry
     estimated scf accuracy    <       0.01195520 Ry

     iteration #  9     ecut=    30.00 Ry     beta= 0.50
     Davidson diagonalization with overlap
     c_bands:  1 eigenvalues not converged
     ethr =  4.67E-06,  avg # of iterations = 20.0

     total cpu time spent up to now is        6.3 secs

     total energy              =    -501.33689187 Ry
     estimated scf accuracy    <       0.00291123 Ry

     iteration # 10     ecut=    30.00 Ry     beta= 0.50
     Davidson diagonalization with overlap
     c_bands:  1 eigenvalues not converged
     ethr =  1.14E-06,  avg # of iterations = 20.0

     total cpu time spent up to now is        6.5 secs

     total energy              =    -501.33702349 Ry
     estimated scf accuracy    <       0.00373689 Ry

     iteration # 11     ecut=    30.00 Ry     beta= 0.50
     Davidson diagonalization with overlap
     ethr =  1.14E-06,  avg # of iterations =  2.0

     total cpu time spent up to now is        6.6 secs

     total energy              =    -501.33729674 Ry
     estimated scf accuracy    <       0.00065610 Ry

     iteration # 12     ecut=    30.00 Ry     beta= 0.50
     Davidson diagonalization with overlap
     ethr =  2.56E-07,  avg # of iterations =  2.0

     total cpu time spent up to now is        6.7 secs

     total energy              =    -501.33735214 Ry
     estimated scf accuracy    <       0.00029458 Ry

     iteration # 13     ecut=    30.00 Ry     beta= 0.50
     Davidson diagonalization with overlap
     ethr =  1.15E-07,  avg # of iterations =  3.0

     total cpu time spent up to now is        6.8 secs

     total energy              =    -501.33737588 Ry
     estimated scf accuracy    <       0.00034407 Ry

     iteration # 14     ecut=    30.00 Ry     beta= 0.50
     Davidson diagonalization with overlap
     ethr =  1.15E-07,  avg # of iterations =  2.0

     total cpu time spent up to now is        6.9 secs

     total energy              =    -501.33739639 Ry
     estimated scf accuracy    <       0.00002306 Ry

     iteration # 15     ecut=    30.00 Ry     beta= 0.50
     Davidson diagonalization with overlap
     ethr =  9.01E-09,  avg # of iterations =  5.0

     total cpu time spent up to now is        7.0 secs

     total energy              =    -501.33739942 Ry
     estimated scf accuracy    <       0.00005948 Ry

     iteration # 16     ecut=    30.00 Ry     beta= 0.50
     Davidson diagonalization with overlap
     ethr =  9.01E-09,  avg # of iterations =  2.0

     total cpu time spent up to now is        7.1 secs

     total energy              =    -501.33740247 Ry
     estimated scf accuracy    <       0.00000734 Ry

     iteration # 17     ecut=    30.00 Ry     beta= 0.50
     Davidson diagonalization with overlap
     ethr =  2.87E-09,  avg # of iterations =  3.0

     total cpu time spent up to now is        7.2 secs

     total energy              =    -501.33740301 Ry
     estimated scf accuracy    <       0.00001342 Ry

     iteration # 18     ecut=    30.00 Ry     beta= 0.50
     Davidson diagonalization with overlap
     ethr =  2.87E-09,  avg # of iterations =  2.0

     total cpu time spent up to now is        7.3 secs

     End of self-consistent calculation

          k = 0.0000 0.0000 0.0000 ( 11288 PWs)   bands (ev):

    -5.3487  -4.4018  -4.3250  -4.2351  -4.1508  -3.8973  -3.7763  -3.4101
    -3.2684  -3.2257  -3.1268  -3.0429  -2.9237  -2.8858  -2.7658  -2.7134
    -2.6762  -2.3878  -2.1654  -2.1064  -1.9010  -1.8328  -1.7463  -1.6306
    -1.5632  -1.2575  -1.0035  -0.7848  -0.7022  -0.6362  -0.4918  -0.3621
    -0.3053  -0.0599   0.0025   0.0867   0.1793   0.2489   0.3656   0.3948
     0.5139   0.5958   0.6835   0.7279   0.7599   0.7944   0.8531   0.9807
     1.0333   1.0695   1.1531   1.2729   1.4241   1.4895   1.6305   1.6703
     1.8155   1.8887   2.0438   2.1745   2.2740   2.3141   2.3844   2.4089
     2.4948   2.6505   2.6758   2.7151   2.7550   2.8663   2.9336   2.9943
     3.1622   3.2359   3.2960   3.3836   3.4052   3.6009   3.7631   3.8406
     3.8905   4.1936   4.4113   4.5070   4.5477   4.5922   4.6696   4.7422
     4.7831   4.8592   4.9253   5.0332   5.1048   5.1647   5.2109   5.2554
     5.4218   5.4323   5.4686   5.5555   5.5813   5.6700   5.6863   5.7612
     5.7662   5.8855   5.9771   6.0460   6.0532   6.0837   6.1664   6.2596
     6.2905   6.3741   6.4265   6.4738   6.5429   6.5614   6.6433   6.6547
     6.7608   6.7625   6.8645   6.9170   6.9564   7.0450   7.0873   7.1261
     7.1953   7.2391   7.2998   7.3579   7.3675   7.4688   7.4909   7.5749
     7.6453   7.7304   7.7623   7.8579   7.8671   7.9159   8.0031   8.0648
     8.1042   8.1488   8.2364   8.3491   8.3503   8.4453   8.4855   8.6047
     8.6316   8.7452

     the Fermi energy is     7.1603 ev

!    total energy              =    -501.33740330 Ry
     estimated scf accuracy    <       0.00000090 Ry
     smearing contrib. (-TS)   =      -0.16200403 Ry
     internal energy E=F+TS    =    -501.17539927 Ry

     The total energy is F=E-TS. E is the sum of the following terms:
     one-electron contribution =     188.18421169 Ry
     hartree contribution      =      24.52404558 Ry
     xc contribution           =    -150.51577970 Ry
     ewald contribution        =    -563.36787685 Ry

     convergence has been achieved in  18 iterations

     Forces acting on atoms (cartesian axes, Ry/au):

     atom    1 type  1   force =     0.00284776    0.02425587    0.01206160
     atom    2 type  1   force =     0.04978764   -0.02963285   -0.00507749
     atom    3 type  1   force =     0.02658342    0.00698664   -0.00964681
     atom    4 type  1   force =    -0.00096301    0.00877696    0.00144321
     atom    5 type  1   force =    -0.02880802   -0.07698182   -0.00478614
     atom    6 type  1   force =    -0.01973254   -0.00548015    0.01038954
     atom    7 type  1   force =    -0.04957732    0.01906728   -0.02709904
     atom    8 type  1   force =    -0.01162579   -0.00591523   -0.03645867
     atom    9 type  1   force =     0.00598685   -0.00951746    0.02725622
     atom   10 type  1   force =     0.04520943   -0.01882320    0.02725634
     atom   11 type  1   force =     0.00928649    0.01976061   -0.01289031
     atom   12 type  1   force =    -0.02973161    0.04718076    0.01738830
     atom   13 type  1   force =     0.00673452   -0.00625729   -0.05308920
     atom   14 type  1   force =     0.01903228    0.00404879    0.00231250
     atom   15 type  1   force =     0.01318312   -0.00976901   -0.02169208
     atom   16 type  1   force =    -0.00646898    0.00905526    0.00538117
     atom   17 type  1   force =    -0.01595934   -0.00359644   -0.00416955
     atom   18 type  1   force =     0.00354435   -0.02683775   -0.02006963
     atom   19 type  1   force =    -0.04027451   -0.03216256   -0.04967067
     atom   20 type  1   force =    -0.00599854   -0.01847520   -0.01436146
     atom   21 type  1   force =     0.00618812    0.00384585    0.02296416
     atom   22 type  1   force =     0.01416753   -0.01412820   -0.00400556
     atom   23 type  1   force =     0.00195701   -0.01862721   -0.00852725
     atom   24 type  1   force =    -0.03169176    0.02384761   -0.01542674
     atom   25 type  1   force =    -0.00478753   -0.01484371    0.00765833
     atom   26 type  1   force =     0.00500230    0.03652189    0.02444736
     atom   27 type  1   force =    -0.00934466   -0.00065720   -0.03303454
     atom   28 type  1   force =     0.02581508    0.00291990    0.00024581
     atom   29 type  1   force =    -0.01710163   -0.01700465    0.01951402
     atom   30 type  1   force =    -0.00843223    0.00694953   -0.00523675
     atom   31 type  1   force =     0.01553155   -0.00806720   -0.03053237
     atom   32 type  1   force =     0.00678748   -0.00202225   -0.00576592
     atom   33 type  1   force =     0.02080864   -0.01374381    0.00779395
     atom   34 type  1   force =     0.00350046   -0.02730257   -0.02616304
     atom   35 type  1   force =     0.01423354   -0.01044266   -0.00187916
     atom   36 type  1   force =    -0.00446003   -0.01255430   -0.00690891
     atom   37 type  1   force =    -0.00628664   -0.03261106    0.01246199
     atom   38 type  1   force =     0.00298899    0.02165270    0.00074812
     atom   39 type  1   force =     0.02347253   -0.01341101    0.00713194
     atom   40 type  1   force =    -0.02310953   -0.00446867    0.00232532
     atom   41 type  1   force =     0.01701623    0.01197890    0.01659406
     atom   42 type  1   force =    -0.01324035    0.02715561    0.00450055
     atom   43 type  1   force =     0.00057465   -0.00869369   -0.01982678
     atom   44 type  1   force =    -0.00737308    0.02081680   -0.00599914
     atom   45 type  1   force =    -0.04928992    0.04112050    0.06657434
     atom   46 type  1   force =    -0.00502010    0.02664542   -0.00380341
     atom   47 type  1   force =     0.01841032   -0.01199824   -0.01042591
     atom   48 type  1   force =    -0.02097314    0.00211025    0.01818913
     atom   49 type  1   force =    -0.00124772    0.02136307   -0.01807850
     atom   50 type  1   force =    -0.05524077    0.08963316    0.00811968
     atom   51 type  1   force =     0.00856977    0.01638661    0.02617666
     atom   52 type  1   force =    -0.00096009   -0.01795560    0.01800924
     atom   53 type  1   force =     0.00246764   -0.00563512    0.02360114
     atom   54 type  1   force =     0.03797325   -0.05326899    0.00054311
     atom   55 type  1   force =    -0.00479108    0.00614673    0.01298920
     atom   56 type  1   force =    -0.00966712   -0.01258846   -0.02748594
     atom   57 type  1   force =    -0.01841645    0.00455674    0.01078317
     atom   58 type  1   force =     0.00041814    0.00006573   -0.01779772
     atom   59 type  1   force =     0.01551598   -0.00472975    0.00879948
     atom   60 type  1   force =     0.01830711    0.00410161    0.03483756
     atom   61 type  1   force =     0.03537078    0.01700234    0.02211307
     atom   62 type  1   force =    -0.01093316    0.01145886   -0.00124710
     atom   63 type  1   force =     0.00143718   -0.01155953   -0.00185531
     atom   64 type  1   force =     0.03279650    0.02435085    0.02240082

     Total force =     0.304339     Total SCF correction =     0.001728


     Computing stress (Cartesian axis) and pressure

          total   stress  (Ry/bohr**3)                   (kbar)     P=      -40.21
  -0.00032236  -0.00001570   0.00002326          -47.42       -2.31        3.42
  -0.00001570  -0.00019185  -0.00002447           -2.31      -28.22       -3.60
   0.00002326  -0.00002447  -0.00030578            3.42       -3.60      -44.98

 
     init_run     :      1.07s CPU      4.93s WALL (       1 calls)
     electrons    :      2.10s CPU      2.27s WALL (       1 calls)
     forces       :      0.04s CPU      0.04s WALL (       1 calls)
     stress       :      0.15s CPU      0.15s WALL (       1 calls)

     Called by init_run:
     wfcinit      :      0.53s CPU      4.21s WALL (       1 calls)
                                        4.21s GPU  (       1 calls)
     potinit      :      0.05s CPU      0.15s WALL (       1 calls)
     hinit0       :      0.46s CPU      0.50s WALL (       1 calls)

     Called by electrons:
     c_bands      :      1.34s CPU      1.41s WALL (      19 calls)
     sum_band     :      0.38s CPU      0.43s WALL (      19 calls)
     v_of_rho     :      0.18s CPU      0.29s WALL (      19 calls)
     mix_rho      :      0.17s CPU      0.19s WALL (      19 calls)

     Called by c_bands:
     init_us_2    :      0.07s CPU      0.07s WALL (      39 calls)
     init_us_2:gp :      0.07s CPU      0.07s WALL (      39 calls)
     regterg      :      1.16s CPU      1.23s WALL (      19 calls)

     Called by *egterg:
     rdiaghg      :      0.52s CPU      1.28s WALL (     117 calls)
                                        1.26s GPU  (     117 calls)
     h_psi        :      0.96s CPU      3.93s WALL (     119 calls)
                                        3.93s GPU  (     119 calls)
     g_psi        :      0.00s CPU      0.00s WALL (      99 calls)
                                        0.00s GPU  (      99 calls)

     Called by h_psi:
     h_psi:calbec :      0.49s CPU      3.38s WALL (     119 calls)
                                        3.38s GPU  (     119 calls)
     vloc_psi     :      0.39s CPU      0.47s WALL (     119 calls)
                                        0.47s GPU  (     119 calls)
     add_vuspsi   :      0.05s CPU      0.07s WALL (     119 calls)
                                        0.07s GPU  (     119 calls)

     General routines
     calbec       :      0.50s CPU      3.38s WALL (     124 calls)
     fft          :      0.62s CPU      0.76s WALL (     159 calls)
                                        0.14s GPU  (     101 calls)
     ffts         :      0.05s CPU      0.05s WALL (      19 calls)
     fftw         :      0.48s CPU      0.63s WALL (    2073 calls)
                                        0.55s GPU  (    2073 calls)
 
     Parallel routines
 
     PWSCF        :      3.39s CPU      7.48s WALL

 
   This run was terminated on:  10:51:14  10May2023            

=------------------------------------------------------------------------------=
   JOB DONE.
=------------------------------------------------------------------------------=
