An instance of this daemon is already running
An instance of this daemon is already running

     Program PWSCF v.7.1 starts on 10May2023 at 10:48: 1 

     This program is part of the open-source Quantum ESPRESSO suite
     for quantum simulation of materials; please cite
         "P. Giannozzi et al., J. Phys.:Condens. Matter 21 395502 (2009);
         "P. Giannozzi et al., J. Phys.:Condens. Matter 29 465901 (2017);
         "P. Giannozzi et al., J. Chem. Phys. 152 154105 (2020);
          URL http://www.quantum-espresso.org", 
     in publications or presentations arising from this work. More details at
     http://www.quantum-espresso.org/quote

     Parallel version (MPI & OpenMP), running on       4 processor cores
     Number of MPI processes:                 4
     Threads/MPI process:                     1

     MPI processes distributed on     1 nodes
     753549 MiB available memory on the printing compute node when the environment starts
 
     Reading input from pw-si-65.in
Warning: card &CELL ignored
Warning: card / ignored

     Current dimensions of program PWSCF are:
     Max number of different atomic species (ntypx) = 10
     Max number of k-points (npk) =  40000
     Max angular momentum in pseudopotentials (lmaxx) =  4

     IMPORTANT: XC functional enforced from input :
     Exchange-correlation= PBE
                           (   1   4   3   4   0   0   0)
     Any further DFT definition will be discarded
     Please, verify this is what you really want


     gamma-point specific algorithms are used
 
     K-points division:     npool     =       2
     R & G space division:  proc/nbgrp/npool/nimage =       2
     Subspace diagonalization in iterative solution of the eigenvalue problem:
     a serial algorithm will be used

     Message from routine divide_et_impera:
     suboptimal parallelization: some nodes have no k-points
 
     Parallelization info
     --------------------
     sticks:   dense  smooth     PW     G-vecs:    dense   smooth      PW
     Min        1904    1904    502                88764    88764   12054
     Max        1905    1905    503                88769    88769   12057
     Sum        3809    3809   1005               177533   177533   24111
 
     Using Slab Decomposition
 


     bravais-lattice index     =            0
     lattice parameter (alat)  =      20.0062  a.u.
     unit-cell volume          =    8007.4966 (a.u.)^3
     number of atoms/cell      =           64
     number of atomic types    =            1
     number of electrons       =       256.00
     number of Kohn-Sham states=          154
     kinetic-energy cutoff     =      30.0000  Ry
     charge density cutoff     =     120.0000  Ry
     scf convergence threshold =      1.0E-06
     mixing beta               =       0.5000
     number of iterations used =            8  plain     mixing
     Exchange-correlation= PBE
                           (   1   4   3   4   0   0   0)

     GPU acceleration is ACTIVE.
     GPU-aware MPI enabled

     Message from routine print_cuda_info:
     High GPU oversubscription detected. Are you sure this is what you want?

     celldm(1)=  20.006245  celldm(2)=   0.000000  celldm(3)=   0.000000
     celldm(4)=   0.000000  celldm(5)=   0.000000  celldm(6)=   0.000000

     crystal axes: (cart. coord. in units of alat)
               a(1) = (   1.000000   0.000000   0.000000 )  
               a(2) = (   0.000000   1.000000   0.000000 )  
               a(3) = (   0.000000   0.000000   1.000000 )  

     reciprocal axes: (cart. coord. in units 2 pi/alat)
               b(1) = (  1.000000  0.000000  0.000000 )  
               b(2) = (  0.000000  1.000000  0.000000 )  
               b(3) = (  0.000000  0.000000  1.000000 )  


     PseudoPot. # 1 for Si read from file:
     /home/ppiaggi/pseudos/Si_ONCV_PBE_sr.upf
     MD5 check sum: 8553c464762ac42b85b1eed164b4d029
     Pseudo is Norm-conserving, Zval =  4.0
     Generated using ONCVPSP code by D. R. Hamann
     Using radial grid of 1510 points,  4 beta functions with: 
                l(1) =   0
                l(2) =   0
                l(3) =   1
                l(4) =   1

     atomic species   valence    mass     pseudopotential
        Si             4.00    28.08500     Si( 1.00)

     No symmetry found



   Cartesian axes

     site n.     atom                  positions (alat units)
         1           Si  tau(   1) = (   0.0379699   0.5369670   0.9033410  )
         2           Si  tau(   2) = (   0.4127490   0.2334940   0.6594130  )
         3           Si  tau(   3) = (   0.8641380   0.0317612   0.2754250  )
         4           Si  tau(   4) = (   0.3696000   0.1146960   0.4493380  )
         5           Si  tau(   5) = (   0.6209580   0.8616560   0.5998610  )
         6           Si  tau(   6) = (   0.7134260   0.6762170   0.1630700  )
         7           Si  tau(   7) = (   0.1447470   0.0538910   0.0204446  )
         8           Si  tau(   8) = (   0.0770009   0.9487960   0.2139230  )
         9           Si  tau(   9) = (   0.2577560   0.5340700   0.0519552  )
        10           Si  tau(  10) = (   0.2897080   0.0235743   0.7818770  )
        11           Si  tau(  11) = (   0.9913790   0.3662740   0.1538320  )
        12           Si  tau(  12) = (   0.8428720   0.2205840   0.0700278  )
        13           Si  tau(  13) = (   0.6303860   0.3044740   0.5948600  )
        14           Si  tau(  14) = (   0.6548170   0.4129230   0.0022210  )
        15           Si  tau(  15) = (   0.9594620   0.0488663   0.8900730  )
        16           Si  tau(  16) = (   0.7601860   0.8101270   0.9691420  )
        17           Si  tau(  17) = (   0.3479910   0.4535700   0.7734780  )
        18           Si  tau(  18) = (   0.7546160   0.6801060   0.5210670  )
        19           Si  tau(  19) = (   0.9323310   0.0671912   0.5486040  )
        20           Si  tau(  20) = (   0.8541240   0.5464180   0.0058415  )
        21           Si  tau(  21) = (   0.9095060   0.8433770   0.7690080  )
        22           Si  tau(  22) = (   0.9746930   0.8222630   0.5284730  )
        23           Si  tau(  23) = (   0.1222010   0.3168100   0.9379920  )
        24           Si  tau(  24) = (   0.4470390   0.1649130   0.8787370  )
        25           Si  tau(  25) = (   0.6771450   0.1283240   0.4014210  )
        26           Si  tau(  26) = (   0.7504470   0.8314380   0.3304570  )
        27           Si  tau(  27) = (   0.8650190   0.3335820   0.5777560  )
        28           Si  tau(  28) = (   0.1887880   0.9150830   0.5181510  )
        29           Si  tau(  29) = (   0.2506770   0.4124730   0.3542190  )
        30           Si  tau(  30) = (   0.3973100   0.7682010   0.3347420  )
        31           Si  tau(  31) = (   0.1083700   0.5822920   0.2129000  )
        32           Si  tau(  32) = (   0.0101003   0.3058000   0.3766730  )
        33           Si  tau(  33) = (   0.5210480   0.9380420   0.3995540  )
        34           Si  tau(  34) = (   0.3472230   0.7093040   0.9052900  )
        35           Si  tau(  35) = (   0.9520680   0.2667040   0.8126250  )
        36           Si  tau(  36) = (   0.5519420   0.7831850   0.8319980  )
        37           Si  tau(  37) = (   0.7376860   0.0219193   0.6647050  )
        38           Si  tau(  38) = (   0.6565080   0.0863499   0.8459930  )
        39           Si  tau(  39) = (   0.3656980   0.8493980   0.6415260  )
        40           Si  tau(  40) = (   0.5645750   0.5544360   0.8099720  )
        41           Si  tau(  41) = (   0.7314590   0.0003393   0.0673108  )
        42           Si  tau(  42) = (   0.7837580   0.6471080   0.7456580  )
        43           Si  tau(  43) = (   0.6365620   0.3134990   0.2102350  )
        44           Si  tau(  44) = (   0.2792000   0.6288370   0.6507250  )
        45           Si  tau(  45) = (   0.1838500   0.7722500   0.3323850  )
        46           Si  tau(  46) = (   0.2227130   0.3375630   0.5724670  )
        47           Si  tau(  47) = (   0.4286710   0.5112360   0.2212440  )
        48           Si  tau(  48) = (   0.2285930   0.2445990   0.1457500  )
        49           Si  tau(  49) = (   0.6606200   0.4968970   0.3343430  )
        50           Si  tau(  50) = (   0.3941960   0.5641240   0.4670140  )
        51           Si  tau(  51) = (   0.1348050   0.7487330   0.8271370  )
        52           Si  tau(  52) = (   0.4258010   0.3355190   0.0033841  )
        53           Si  tau(  53) = (   0.5335270   0.9789870   0.1742260  )
        54           Si  tau(  54) = (   0.1324800   0.1329450   0.6971600  )
        55           Si  tau(  55) = (   0.9565260   0.5040990   0.6903550  )
        56           Si  tau(  56) = (   0.7159720   0.2864640   0.8224100  )
        57           Si  tau(  57) = (   0.1667170   0.1271710   0.3514460  )
        58           Si  tau(  58) = (   0.4560170   0.1667920   0.2030910  )
        59           Si  tau(  59) = (   0.4937010   0.7242450   0.1289100  )
        60           Si  tau(  60) = (   0.3641470   0.9495440   0.0242439  )
        61           Si  tau(  61) = (   0.5832660   0.5134620   0.5872350  )
        62           Si  tau(  62) = (   0.9135340   0.5214940   0.3777430  )
        63           Si  tau(  63) = (   0.0863038   0.6300080   0.5310240  )
        64           Si  tau(  64) = (   0.0055491   0.7634500   0.0724125  )

     number of k points=     1  Fermi-Dirac smearing, width (Ry)=  0.0100
                       cart. coord. in units 2pi/alat
        k(    1) = (   0.0000000   0.0000000   0.0000000), wk =   2.0000000

     Dense  grid:    88767 G-vectors     FFT dimensions: (  72,  72,  72)

     Estimated max dynamical RAM per process >     142.96 MB

     Estimated total dynamical RAM >     550.17 MB

     Initial potential from superposition of free atoms

     starting charge     255.9608, renormalised to     256.0000
     Starting wfcs are  256 randomized atomic wfcs

     total cpu time spent up to now is        5.0 secs

     Self-consistent Calculation

     iteration #  1     ecut=    30.00 Ry     beta= 0.50
     Davidson diagonalization with overlap
     ethr =  1.00E-02,  avg # of iterations =  3.0

     Threshold (ethr) on eigenvalues was too large:
     Diagonalizing with lowered threshold

     Davidson diagonalization with overlap
     ethr =  4.02E-04,  avg # of iterations =  4.0

     total cpu time spent up to now is        5.3 secs

     total energy              =    -501.28183056 Ry
     estimated scf accuracy    <       1.25350659 Ry

     iteration #  2     ecut=    30.00 Ry     beta= 0.50
     Davidson diagonalization with overlap
     ethr =  4.90E-04,  avg # of iterations =  5.0

     total cpu time spent up to now is        5.4 secs

     total energy              =    -500.93640398 Ry
     estimated scf accuracy    <       4.11476029 Ry

     iteration #  3     ecut=    30.00 Ry     beta= 0.50
     Davidson diagonalization with overlap
     ethr =  4.90E-04,  avg # of iterations =  4.0

     total cpu time spent up to now is        5.5 secs

     total energy              =    -501.31697440 Ry
     estimated scf accuracy    <       2.36644477 Ry

     iteration #  4     ecut=    30.00 Ry     beta= 0.50
     Davidson diagonalization with overlap
     ethr =  4.90E-04,  avg # of iterations =  2.0

     total cpu time spent up to now is        5.6 secs

     total energy              =    -501.50197616 Ry
     estimated scf accuracy    <       0.56253895 Ry

     iteration #  5     ecut=    30.00 Ry     beta= 0.50
     Davidson diagonalization with overlap
     ethr =  2.20E-04,  avg # of iterations =  2.0

     total cpu time spent up to now is        5.7 secs

     total energy              =    -501.54007781 Ry
     estimated scf accuracy    <       0.14939109 Ry

     iteration #  6     ecut=    30.00 Ry     beta= 0.50
     Davidson diagonalization with overlap
     ethr =  5.84E-05,  avg # of iterations =  2.0

     total cpu time spent up to now is        5.8 secs

     total energy              =    -501.55513082 Ry
     estimated scf accuracy    <       0.17788565 Ry

     iteration #  7     ecut=    30.00 Ry     beta= 0.50
     Davidson diagonalization with overlap
     ethr =  5.84E-05,  avg # of iterations =  1.0

     total cpu time spent up to now is        5.9 secs

     total energy              =    -501.56892864 Ry
     estimated scf accuracy    <       0.00939862 Ry

     iteration #  8     ecut=    30.00 Ry     beta= 0.50
     Davidson diagonalization with overlap
     c_bands:  3 eigenvalues not converged
     ethr =  3.67E-06,  avg # of iterations = 20.0

     total cpu time spent up to now is        6.1 secs

     total energy              =    -501.57021983 Ry
     estimated scf accuracy    <       0.01742902 Ry

     iteration #  9     ecut=    30.00 Ry     beta= 0.50
     Davidson diagonalization with overlap
     ethr =  3.67E-06,  avg # of iterations =  6.0

     total cpu time spent up to now is        6.2 secs

     total energy              =    -501.57164949 Ry
     estimated scf accuracy    <       0.00333306 Ry

     iteration # 10     ecut=    30.00 Ry     beta= 0.50
     Davidson diagonalization with overlap
     ethr =  1.30E-06,  avg # of iterations =  2.0

     total cpu time spent up to now is        6.3 secs

     total energy              =    -501.57195354 Ry
     estimated scf accuracy    <       0.00047945 Ry

     iteration # 11     ecut=    30.00 Ry     beta= 0.50
     Davidson diagonalization with overlap
     ethr =  1.87E-07,  avg # of iterations =  3.0

     total cpu time spent up to now is        6.4 secs

     total energy              =    -501.57198818 Ry
     estimated scf accuracy    <       0.00022250 Ry

     iteration # 12     ecut=    30.00 Ry     beta= 0.50
     Davidson diagonalization with overlap
     ethr =  8.69E-08,  avg # of iterations =  3.0

     total cpu time spent up to now is        6.5 secs

     total energy              =    -501.57200463 Ry
     estimated scf accuracy    <       0.00043338 Ry

     iteration # 13     ecut=    30.00 Ry     beta= 0.50
     Davidson diagonalization with overlap
     ethr =  8.69E-08,  avg # of iterations =  2.0

     total cpu time spent up to now is        6.6 secs

     total energy              =    -501.57203291 Ry
     estimated scf accuracy    <       0.00003845 Ry

     iteration # 14     ecut=    30.00 Ry     beta= 0.50
     Davidson diagonalization with overlap
     ethr =  1.50E-08,  avg # of iterations =  3.0

     total cpu time spent up to now is        6.7 secs

     total energy              =    -501.57203550 Ry
     estimated scf accuracy    <       0.00004935 Ry

     iteration # 15     ecut=    30.00 Ry     beta= 0.50
     Davidson diagonalization with overlap
     ethr =  1.50E-08,  avg # of iterations =  2.0

     total cpu time spent up to now is        6.8 secs

     total energy              =    -501.57203812 Ry
     estimated scf accuracy    <       0.00000674 Ry

     iteration # 16     ecut=    30.00 Ry     beta= 0.50
     Davidson diagonalization with overlap
     ethr =  2.63E-09,  avg # of iterations =  4.0

     total cpu time spent up to now is        6.9 secs

     total energy              =    -501.57203926 Ry
     estimated scf accuracy    <       0.00001184 Ry

     iteration # 17     ecut=    30.00 Ry     beta= 0.50
     Davidson diagonalization with overlap
     ethr =  2.63E-09,  avg # of iterations =  2.0

     total cpu time spent up to now is        7.0 secs

     End of self-consistent calculation

          k = 0.0000 0.0000 0.0000 ( 11072 PWs)   bands (ev):

    -5.2426  -4.2636  -4.2209  -4.1598  -3.9966  -3.9264  -3.7484  -3.2250
    -3.1503  -3.0662  -2.9982  -2.9356  -2.8892  -2.7778  -2.7238  -2.6769
    -2.5736  -2.4853  -2.2629  -1.9859  -1.7877  -1.7342  -1.6565  -1.6140
    -1.5062  -1.3950  -1.2319  -0.8022  -0.7059  -0.5565  -0.4306  -0.2955
    -0.1718  -0.0284   0.0752   0.1269   0.2344   0.2718   0.3633   0.4940
     0.5565   0.6173   0.7140   0.7983   0.8451   0.9046   0.9865   1.1593
     1.2180   1.3506   1.3832   1.4333   1.5634   1.6069   1.6242   1.8391
     1.9647   1.9863   2.1475   2.2346   2.3377   2.4282   2.4766   2.5696
     2.6208   2.6748   2.7756   2.8729   2.9196   3.0128   3.0541   3.0685
     3.1522   3.1952   3.3969   3.4537   3.5019   3.5688   3.7184   3.8565
     3.9527   4.3921   4.4447   4.5388   4.6095   4.6558   4.7484   4.8521
     4.9835   5.0179   5.0719   5.1552   5.1841   5.3296   5.3523   5.4188
     5.4577   5.5819   5.6247   5.6549   5.6845   5.7446   5.7708   5.8395
     5.9308   5.9618   6.0161   6.0700   6.1058   6.1683   6.2315   6.2925
     6.3181   6.3715   6.4737   6.5373   6.6225   6.6827   6.6937   6.7230
     6.7713   6.8582   6.8774   7.0075   7.0608   7.1258   7.1653   7.2638
     7.2768   7.3578   7.4889   7.5010   7.5400   7.6295   7.7506   7.8022
     7.8676   7.9291   7.9549   8.0241   8.1023   8.1340   8.2167   8.2357
     8.3481   8.4029   8.4466   8.5543   8.6206   8.6716   8.7276   8.8053
     8.8488   8.9019

     the Fermi energy is     7.2785 ev

!    total energy              =    -501.57203958 Ry
     estimated scf accuracy    <       0.00000069 Ry
     smearing contrib. (-TS)   =      -0.13780912 Ry
     internal energy E=F+TS    =    -501.43423046 Ry

     The total energy is F=E-TS. E is the sum of the following terms:
     one-electron contribution =     197.12663851 Ry
     hartree contribution      =      21.29103332 Ry
     xc contribution           =    -151.27462131 Ry
     ewald contribution        =    -568.57728098 Ry

     convergence has been achieved in  17 iterations

     Forces acting on atoms (cartesian axes, Ry/au):

     atom    1 type  1   force =     0.06823594    0.00962504   -0.02143274
     atom    2 type  1   force =     0.01002760    0.00070677   -0.02929783
     atom    3 type  1   force =    -0.00610119   -0.01806019    0.00058606
     atom    4 type  1   force =     0.02006542    0.00315584   -0.00764589
     atom    5 type  1   force =    -0.05763301   -0.07314270   -0.00645498
     atom    6 type  1   force =    -0.00098029   -0.00676659    0.00942145
     atom    7 type  1   force =     0.03286397   -0.00307002    0.01447823
     atom    8 type  1   force =    -0.01849855   -0.00736493   -0.00763969
     atom    9 type  1   force =     0.02193972   -0.00403749   -0.01861936
     atom   10 type  1   force =     0.04015629   -0.06438244    0.03358310
     atom   11 type  1   force =     0.01566090    0.02526040    0.00006046
     atom   12 type  1   force =    -0.02495761   -0.03053455   -0.00557687
     atom   13 type  1   force =     0.01483772   -0.04959152    0.00041047
     atom   14 type  1   force =    -0.00410485    0.02181857   -0.05252213
     atom   15 type  1   force =    -0.00823203   -0.00013359   -0.00320971
     atom   16 type  1   force =     0.02095938   -0.03994850   -0.01751485
     atom   17 type  1   force =     0.00414916   -0.02860272    0.01020388
     atom   18 type  1   force =    -0.02216455    0.00343429   -0.01404054
     atom   19 type  1   force =     0.02049163    0.00205709    0.00412345
     atom   20 type  1   force =    -0.05830539    0.00731372    0.04986951
     atom   21 type  1   force =     0.00348502    0.03625226    0.00756887
     atom   22 type  1   force =    -0.00842799    0.02927924    0.01784470
     atom   23 type  1   force =     0.03844068    0.02185235    0.03504093
     atom   24 type  1   force =     0.01622774   -0.06250070   -0.03666859
     atom   25 type  1   force =    -0.00816115    0.01748032    0.00896358
     atom   26 type  1   force =    -0.00336284    0.00565520    0.00583640
     atom   27 type  1   force =     0.00660161   -0.01301132   -0.01785807
     atom   28 type  1   force =    -0.00289940    0.02060009   -0.00152168
     atom   29 type  1   force =    -0.01309638    0.00236261   -0.02102454
     atom   30 type  1   force =     0.02870390   -0.05350308   -0.00126016
     atom   31 type  1   force =    -0.02532259    0.00971241    0.01415820
     atom   32 type  1   force =     0.01785346   -0.00253488    0.00324540
     atom   33 type  1   force =     0.03014796    0.02247207    0.01196670
     atom   34 type  1   force =     0.01113145    0.00412089    0.04653837
     atom   35 type  1   force =    -0.04621397   -0.02999734   -0.03010495
     atom   36 type  1   force =     0.01488849   -0.00757689   -0.01554723
     atom   37 type  1   force =     0.06280864    0.00517078   -0.02219177
     atom   38 type  1   force =    -0.03249711   -0.01835512    0.07967665
     atom   39 type  1   force =     0.00408464    0.00507162    0.02073434
     atom   40 type  1   force =     0.01608856   -0.00250851    0.01378113
     atom   41 type  1   force =     0.00490080    0.04942326   -0.00630874
     atom   42 type  1   force =     0.00407003   -0.01598943    0.00532935
     atom   43 type  1   force =    -0.00100502   -0.03328570    0.00020327
     atom   44 type  1   force =    -0.01806374    0.03965615    0.00473006
     atom   45 type  1   force =    -0.04744458    0.00573452    0.00157471
     atom   46 type  1   force =     0.00267541   -0.01547624    0.02262379
     atom   47 type  1   force =     0.00248758    0.00442924   -0.00065679
     atom   48 type  1   force =     0.00586810    0.00295447   -0.00141965
     atom   49 type  1   force =     0.01976154    0.03639095    0.00027764
     atom   50 type  1   force =     0.01524478    0.02136884   -0.01403913
     atom   51 type  1   force =    -0.02225699   -0.01507185    0.00876719
     atom   52 type  1   force =    -0.01067477    0.05362570    0.02738359
     atom   53 type  1   force =     0.03870877   -0.07002194   -0.01189164
     atom   54 type  1   force =    -0.08330988    0.04220551   -0.05383266
     atom   55 type  1   force =     0.00180009    0.01979439   -0.01580399
     atom   56 type  1   force =     0.03607880    0.04454595    0.00372741
     atom   57 type  1   force =    -0.01389489   -0.00070430    0.00966339
     atom   58 type  1   force =    -0.03725974    0.09260383    0.03589501
     atom   59 type  1   force =    -0.01174439   -0.01511396    0.00341404
     atom   60 type  1   force =    -0.03142526    0.00272171   -0.05530900
     atom   61 type  1   force =    -0.00182899    0.04862447   -0.03550087
     atom   62 type  1   force =    -0.01171155   -0.00917086    0.00378244
     atom   63 type  1   force =    -0.01444615   -0.00838670    0.01773984
     atom   64 type  1   force =    -0.00542094   -0.01863642   -0.00830954

     Total force =     0.378304     Total SCF correction =     0.001649


     Computing stress (Cartesian axis) and pressure

          total   stress  (Ry/bohr**3)                   (kbar)     P=      -23.31
  -0.00017858  -0.00002342  -0.00001799          -26.27       -3.45       -2.65
  -0.00002342  -0.00005983   0.00009428           -3.45       -8.80       13.87
  -0.00001799   0.00009428  -0.00023687           -2.65       13.87      -34.84

 
     init_run     :      1.06s CPU      4.95s WALL (       1 calls)
     electrons    :      1.84s CPU      2.00s WALL (       1 calls)
     forces       :      0.04s CPU      0.04s WALL (       1 calls)
     stress       :      0.15s CPU      0.15s WALL (       1 calls)

     Called by init_run:
     wfcinit      :      0.53s CPU      4.24s WALL (       1 calls)
                                        4.24s GPU  (       1 calls)
     potinit      :      0.05s CPU      0.15s WALL (       1 calls)
     hinit0       :      0.46s CPU      0.50s WALL (       1 calls)

     Called by electrons:
     c_bands      :      1.12s CPU      1.20s WALL (      18 calls)
     sum_band     :      0.36s CPU      0.40s WALL (      18 calls)
     v_of_rho     :      0.17s CPU      0.28s WALL (      18 calls)
     mix_rho      :      0.17s CPU      0.18s WALL (      18 calls)

     Called by c_bands:
     init_us_2    :      0.07s CPU      0.07s WALL (      37 calls)
     init_us_2:gp :      0.07s CPU      0.07s WALL (      37 calls)
     regterg      :      0.96s CPU      1.04s WALL (      18 calls)

     Called by *egterg:
     rdiaghg      :      0.41s CPU      1.18s WALL (      87 calls)
                                        1.16s GPU  (      87 calls)
     h_psi        :      0.91s CPU      3.90s WALL (      89 calls)
                                        3.90s GPU  (      89 calls)
     g_psi        :      0.00s CPU      0.00s WALL (      70 calls)
                                        0.00s GPU  (      70 calls)

     Called by h_psi:
     h_psi:calbec :      0.49s CPU      3.40s WALL (      89 calls)
                                        3.40s GPU  (      89 calls)
     vloc_psi     :      0.36s CPU      0.44s WALL (      89 calls)
                                        0.44s GPU  (      89 calls)
     add_vuspsi   :      0.03s CPU      0.05s WALL (      89 calls)
                                        0.05s GPU  (      89 calls)

     General routines
     calbec       :      0.50s CPU      3.41s WALL (      94 calls)
     fft          :      0.61s CPU      0.75s WALL (     151 calls)
                                        0.13s GPU  (      96 calls)
     ffts         :      0.04s CPU      0.05s WALL (      18 calls)
     fftw         :      0.44s CPU      0.58s WALL (    1912 calls)
                                        0.51s GPU  (    1912 calls)
 
     Parallel routines
 
     PWSCF        :      3.13s CPU      7.24s WALL

 
   This run was terminated on:  10:48: 9  10May2023            

=------------------------------------------------------------------------------=
   JOB DONE.
=------------------------------------------------------------------------------=
