An instance of this daemon is already running
An instance of this daemon is already running

     Program PWSCF v.7.1 starts on 10May2023 at 10:52:24 

     This program is part of the open-source Quantum ESPRESSO suite
     for quantum simulation of materials; please cite
         "P. Giannozzi et al., J. Phys.:Condens. Matter 21 395502 (2009);
         "P. Giannozzi et al., J. Phys.:Condens. Matter 29 465901 (2017);
         "P. Giannozzi et al., J. Chem. Phys. 152 154105 (2020);
          URL http://www.quantum-espresso.org", 
     in publications or presentations arising from this work. More details at
     http://www.quantum-espresso.org/quote

     Parallel version (MPI & OpenMP), running on       4 processor cores
     Number of MPI processes:                 4
     Threads/MPI process:                     1

     MPI processes distributed on     1 nodes
     753542 MiB available memory on the printing compute node when the environment starts
 
     Reading input from pw-si-92.in
Warning: card &CELL ignored
Warning: card / ignored

     Current dimensions of program PWSCF are:
     Max number of different atomic species (ntypx) = 10
     Max number of k-points (npk) =  40000
     Max angular momentum in pseudopotentials (lmaxx) =  4

     IMPORTANT: XC functional enforced from input :
     Exchange-correlation= PBE
                           (   1   4   3   4   0   0   0)
     Any further DFT definition will be discarded
     Please, verify this is what you really want


     gamma-point specific algorithms are used
 
     K-points division:     npool     =       2
     R & G space division:  proc/nbgrp/npool/nimage =       2
     Subspace diagonalization in iterative solution of the eigenvalue problem:
     a serial algorithm will be used

     Message from routine divide_et_impera:
     suboptimal parallelization: some nodes have no k-points
 
     Parallelization info
     --------------------
     sticks:   dense  smooth     PW     G-vecs:    dense   smooth      PW
     Min        1908    1908    502                89172    89172   12102
     Max        1909    1909    503                89177    89177   12105
     Sum        3817    3817   1005               178349   178349   24207
 
     Using Slab Decomposition
 


     bravais-lattice index     =            0
     lattice parameter (alat)  =      20.0303  a.u.
     unit-cell volume          =    8036.3800 (a.u.)^3
     number of atoms/cell      =           64
     number of atomic types    =            1
     number of electrons       =       256.00
     number of Kohn-Sham states=          154
     kinetic-energy cutoff     =      30.0000  Ry
     charge density cutoff     =     120.0000  Ry
     scf convergence threshold =      1.0E-06
     mixing beta               =       0.5000
     number of iterations used =            8  plain     mixing
     Exchange-correlation= PBE
                           (   1   4   3   4   0   0   0)

     GPU acceleration is ACTIVE.
     GPU-aware MPI enabled

     Message from routine print_cuda_info:
     High GPU oversubscription detected. Are you sure this is what you want?

     celldm(1)=  20.030271  celldm(2)=   0.000000  celldm(3)=   0.000000
     celldm(4)=   0.000000  celldm(5)=   0.000000  celldm(6)=   0.000000

     crystal axes: (cart. coord. in units of alat)
               a(1) = (   1.000000   0.000000   0.000000 )  
               a(2) = (   0.000000   1.000000   0.000000 )  
               a(3) = (   0.000000   0.000000   1.000000 )  

     reciprocal axes: (cart. coord. in units 2 pi/alat)
               b(1) = (  1.000000  0.000000  0.000000 )  
               b(2) = (  0.000000  1.000000  0.000000 )  
               b(3) = (  0.000000  0.000000  1.000000 )  


     PseudoPot. # 1 for Si read from file:
     /home/ppiaggi/pseudos/Si_ONCV_PBE_sr.upf
     MD5 check sum: 8553c464762ac42b85b1eed164b4d029
     Pseudo is Norm-conserving, Zval =  4.0
     Generated using ONCVPSP code by D. R. Hamann
     Using radial grid of 1510 points,  4 beta functions with: 
                l(1) =   0
                l(2) =   0
                l(3) =   1
                l(4) =   1

     atomic species   valence    mass     pseudopotential
        Si             4.00    28.08500     Si( 1.00)

     No symmetry found



   Cartesian axes

     site n.     atom                  positions (alat units)
         1           Si  tau(   1) = (   0.7640150   0.0461885   0.4383050  )
         2           Si  tau(   2) = (   0.5874690   0.0497083   0.0314823  )
         3           Si  tau(   3) = (   0.7582400   0.7068560   0.3934490  )
         4           Si  tau(   4) = (   0.3329990   0.0643655   0.5927620  )
         5           Si  tau(   5) = (   0.4925470   0.8890640   0.9016750  )
         6           Si  tau(   6) = (   0.8763590   0.9267960   0.6852160  )
         7           Si  tau(   7) = (   0.8725060   0.4942680   0.3716130  )
         8           Si  tau(   8) = (   0.7786810   0.2566780   0.3989660  )
         9           Si  tau(   9) = (   0.1480330   0.8101350   0.0372681  )
        10           Si  tau(  10) = (   0.0768441   0.6892860   0.2017980  )
        11           Si  tau(  11) = (   0.1199100   0.7053010   0.4866690  )
        12           Si  tau(  12) = (   0.4540830   0.4110440   0.1395450  )
        13           Si  tau(  13) = (   0.0499884   0.2601330   0.6664750  )
        14           Si  tau(  14) = (   0.5943460   0.2999110   0.7267880  )
        15           Si  tau(  15) = (   0.7928920   0.9866680   0.1562110  )
        16           Si  tau(  16) = (   0.8248410   0.3301250   0.6106910  )
        17           Si  tau(  17) = (   0.0811760   0.0570036   0.6706120  )
        18           Si  tau(  18) = (   0.6364760   0.7081770   0.8373370  )
        19           Si  tau(  19) = (   0.3970780   0.1941120   0.0271390  )
        20           Si  tau(  20) = (   0.1870750   0.5319260   0.3441600  )
        21           Si  tau(  21) = (   0.3084780   0.9186620   0.2083740  )
        22           Si  tau(  22) = (   0.2726870   0.9042700   0.4428380  )
        23           Si  tau(  23) = (   0.8258900   0.7586930   0.9878870  )
        24           Si  tau(  24) = (   0.3513100   0.2389980   0.3615350  )
        25           Si  tau(  25) = (   0.8437310   0.4552060   0.7994300  )
        26           Si  tau(  26) = (   0.4300350   0.5577560   0.8980560  )
        27           Si  tau(  27) = (   0.8485450   0.3194840   0.0656392  )
        28           Si  tau(  28) = (   0.7582480   0.7414540   0.6211960  )
        29           Si  tau(  29) = (   0.1626960   0.4462960   0.6458640  )
        30           Si  tau(  30) = (   0.6433740   0.2709780   0.1808510  )
        31           Si  tau(  31) = (   0.7211810   0.0744635   0.6577190  )
        32           Si  tau(  32) = (   0.6292190   0.5378800   0.6402560  )
        33           Si  tau(  33) = (   0.9595310   0.5808570   0.5894680  )
        34           Si  tau(  34) = (   0.2679680   0.9230930   0.8005690  )
        35           Si  tau(  35) = (   0.1325170   0.1437580   0.4216920  )
        36           Si  tau(  36) = (   0.9422570   0.6873680   0.8083370  )
        37           Si  tau(  37) = (   0.5963620   0.7943530   0.1653650  )
        38           Si  tau(  38) = (   0.9948200   0.2686430   0.8757500  )
        39           Si  tau(  39) = (   0.4798440   0.7855570   0.5193390  )
        40           Si  tau(  40) = (   0.9533450   0.1899410   0.2318710  )
        41           Si  tau(  41) = (   0.9285790   0.8145320   0.2670700  )
        42           Si  tau(  42) = (   0.4706370   0.0772837   0.2660480  )
        43           Si  tau(  43) = (   0.7510170   0.1767710   0.8878210  )
        44           Si  tau(  44) = (   0.9792660   0.9210010   0.4651270  )
        45           Si  tau(  45) = (   0.6097220   0.4324400   0.9466520  )
        46           Si  tau(  46) = (   0.5994630   0.9238690   0.3704860  )
        47           Si  tau(  47) = (   0.3832770   0.7102200   0.0768040  )
        48           Si  tau(  48) = (   0.9033700   0.9673270   0.9134610  )
        49           Si  tau(  49) = (   0.5420990   0.9506030   0.6815210  )
        50           Si  tau(  50) = (   0.3901070   0.3030650   0.6132520  )
        51           Si  tau(  51) = (   0.3718050   0.6125250   0.2571830  )
        52           Si  tau(  52) = (   0.1162080   0.0520974   0.9362260  )
        53           Si  tau(  53) = (   0.2444650   0.7351070   0.6591480  )
        54           Si  tau(  54) = (   0.0750698   0.3784150   0.4143590  )
        55           Si  tau(  55) = (   0.6860210   0.5780330   0.1524660  )
        56           Si  tau(  56) = (   0.1614440   0.0927614   0.1463940  )
        57           Si  tau(  57) = (   0.2853450   0.2340050   0.8039720  )
        58           Si  tau(  58) = (   0.3995070   0.5641800   0.6727000  )
        59           Si  tau(  59) = (   0.8844070   0.5492700   0.0826839  )
        60           Si  tau(  60) = (   0.5452030   0.5846900   0.4047690  )
        61           Si  tau(  61) = (   0.2035550   0.4380670   0.9242270  )
        62           Si  tau(  62) = (   0.2323660   0.3379180   0.1659030  )
        63           Si  tau(  63) = (   0.5634450   0.3514700   0.4032430  )
        64           Si  tau(  64) = (   0.1582550   0.6578100   0.8661790  )

     number of k points=     1  Fermi-Dirac smearing, width (Ry)=  0.0100
                       cart. coord. in units 2pi/alat
        k(    1) = (   0.0000000   0.0000000   0.0000000), wk =   2.0000000

     Dense  grid:    89175 G-vectors     FFT dimensions: (  72,  72,  72)

     Estimated max dynamical RAM per process >     143.44 MB

     Estimated total dynamical RAM >     551.97 MB

     Initial potential from superposition of free atoms

     starting charge     255.9608, renormalised to     256.0000
     Starting wfcs are  256 randomized atomic wfcs

     total cpu time spent up to now is        5.0 secs

     Self-consistent Calculation

     iteration #  1     ecut=    30.00 Ry     beta= 0.50
     Davidson diagonalization with overlap
     ethr =  1.00E-02,  avg # of iterations =  3.0

     Threshold (ethr) on eigenvalues was too large:
     Diagonalizing with lowered threshold

     Davidson diagonalization with overlap
     ethr =  3.90E-04,  avg # of iterations =  4.0

     total cpu time spent up to now is        5.3 secs

     total energy              =    -501.22544233 Ry
     estimated scf accuracy    <       1.20664610 Ry

     iteration #  2     ecut=    30.00 Ry     beta= 0.50
     Davidson diagonalization with overlap
     ethr =  4.71E-04,  avg # of iterations =  4.0

     total cpu time spent up to now is        5.4 secs

     total energy              =    -500.74797744 Ry
     estimated scf accuracy    <       5.53037139 Ry

     iteration #  3     ecut=    30.00 Ry     beta= 0.50
     Davidson diagonalization with overlap
     ethr =  4.71E-04,  avg # of iterations =  4.0

     total cpu time spent up to now is        5.5 secs

     total energy              =    -501.27681048 Ry
     estimated scf accuracy    <       2.21669202 Ry

     iteration #  4     ecut=    30.00 Ry     beta= 0.50
     Davidson diagonalization with overlap
     ethr =  4.71E-04,  avg # of iterations =  2.0

     total cpu time spent up to now is        5.6 secs

     total energy              =    -501.42203371 Ry
     estimated scf accuracy    <       0.45556280 Ry

     iteration #  5     ecut=    30.00 Ry     beta= 0.50
     Davidson diagonalization with overlap
     ethr =  1.78E-04,  avg # of iterations =  2.0

     total cpu time spent up to now is        5.7 secs

     total energy              =    -501.44793928 Ry
     estimated scf accuracy    <       0.32743804 Ry

     iteration #  6     ecut=    30.00 Ry     beta= 0.50
     Davidson diagonalization with overlap
     ethr =  1.28E-04,  avg # of iterations =  2.0

     total cpu time spent up to now is        5.8 secs

     total energy              =    -501.47818925 Ry
     estimated scf accuracy    <       0.12206769 Ry

     iteration #  7     ecut=    30.00 Ry     beta= 0.50
     Davidson diagonalization with overlap
     ethr =  4.77E-05,  avg # of iterations =  2.0

     total cpu time spent up to now is        5.9 secs

     total energy              =    -501.48899002 Ry
     estimated scf accuracy    <       0.01173918 Ry

     iteration #  8     ecut=    30.00 Ry     beta= 0.50
     Davidson diagonalization with overlap
     ethr =  4.59E-06,  avg # of iterations = 16.0

     total cpu time spent up to now is        6.1 secs

     total energy              =    -501.49006434 Ry
     estimated scf accuracy    <       0.02340361 Ry

     iteration #  9     ecut=    30.00 Ry     beta= 0.50
     Davidson diagonalization with overlap
     ethr =  4.59E-06,  avg # of iterations =  2.0

     total cpu time spent up to now is        6.2 secs

     total energy              =    -501.49206656 Ry
     estimated scf accuracy    <       0.00164872 Ry

     iteration # 10     ecut=    30.00 Ry     beta= 0.50
     Davidson diagonalization with overlap
     ethr =  6.44E-07,  avg # of iterations =  3.0

     total cpu time spent up to now is        6.3 secs

     total energy              =    -501.49221719 Ry
     estimated scf accuracy    <       0.00139632 Ry

     iteration # 11     ecut=    30.00 Ry     beta= 0.50
     Davidson diagonalization with overlap
     ethr =  5.45E-07,  avg # of iterations =  2.0

     total cpu time spent up to now is        6.4 secs

     total energy              =    -501.49230649 Ry
     estimated scf accuracy    <       0.00067337 Ry

     iteration # 12     ecut=    30.00 Ry     beta= 0.50
     Davidson diagonalization with overlap
     ethr =  2.63E-07,  avg # of iterations =  2.0

     total cpu time spent up to now is        6.5 secs

     total energy              =    -501.49237140 Ry
     estimated scf accuracy    <       0.00019103 Ry

     iteration # 13     ecut=    30.00 Ry     beta= 0.50
     Davidson diagonalization with overlap
     ethr =  7.46E-08,  avg # of iterations =  2.0

     total cpu time spent up to now is        6.6 secs

     total energy              =    -501.49238664 Ry
     estimated scf accuracy    <       0.00009044 Ry

     iteration # 14     ecut=    30.00 Ry     beta= 0.50
     Davidson diagonalization with overlap
     ethr =  3.53E-08,  avg # of iterations =  2.0

     total cpu time spent up to now is        6.7 secs

     total energy              =    -501.49239358 Ry
     estimated scf accuracy    <       0.00002145 Ry

     iteration # 15     ecut=    30.00 Ry     beta= 0.50
     Davidson diagonalization with overlap
     ethr =  8.38E-09,  avg # of iterations =  2.0

     total cpu time spent up to now is        6.8 secs

     total energy              =    -501.49239421 Ry
     estimated scf accuracy    <       0.00001879 Ry

     iteration # 16     ecut=    30.00 Ry     beta= 0.50
     Davidson diagonalization with overlap
     ethr =  7.34E-09,  avg # of iterations =  2.0

     total cpu time spent up to now is        6.9 secs

     total energy              =    -501.49239561 Ry
     estimated scf accuracy    <       0.00002104 Ry

     iteration # 17     ecut=    30.00 Ry     beta= 0.50
     Davidson diagonalization with overlap
     ethr =  7.34E-09,  avg # of iterations =  1.0

     total cpu time spent up to now is        7.0 secs

     total energy              =    -501.49239666 Ry
     estimated scf accuracy    <       0.00000499 Ry

     iteration # 18     ecut=    30.00 Ry     beta= 0.50
     Davidson diagonalization with overlap
     ethr =  1.95E-09,  avg # of iterations =  2.0

     total cpu time spent up to now is        7.1 secs

     End of self-consistent calculation

          k = 0.0000 0.0000 0.0000 ( 11072 PWs)   bands (ev):

    -5.2464  -4.3249  -4.1591  -4.0941  -3.9754  -3.9326  -3.8181  -3.2337
    -3.1645  -3.0741  -2.9651  -2.9207  -2.8243  -2.8066  -2.7245  -2.6413
    -2.5646  -2.4228  -2.3422  -1.9638  -1.9085  -1.7858  -1.7276  -1.6490
    -1.4081  -1.3366  -1.2450  -0.7707  -0.5786  -0.4465  -0.3643  -0.3339
    -0.2180  -0.0244   0.1377   0.1627   0.2060   0.2933   0.3933   0.4461
     0.5811   0.6056   0.6552   0.7887   0.8537   0.8746   0.9803   1.1196
     1.1546   1.1926   1.4097   1.5039   1.5894   1.6697   1.7487   1.8756
     1.9288   1.9638   2.0011   2.0946   2.2192   2.3188   2.4762   2.5663
     2.6057   2.7251   2.8124   2.8733   2.8900   2.9386   3.0576   3.1222
     3.2168   3.3271   3.3387   3.4064   3.4502   3.5305   3.7050   3.8121
     3.9099   4.2636   4.4460   4.4853   4.5621   4.6824   4.7819   4.8313
     4.9053   4.9834   5.0076   5.1012   5.2181   5.2799   5.3542   5.3879
     5.4479   5.5200   5.5698   5.6670   5.6828   5.7209   5.7798   5.8479
     5.8660   5.9422   5.9682   6.0545   6.1043   6.1890   6.2399   6.2750
     6.3270   6.3938   6.4736   6.5112   6.5498   6.5995   6.7210   6.7718
     6.8353   6.8541   6.9634   6.9954   7.1043   7.1351   7.2088   7.2488
     7.3190   7.3385   7.4054   7.4444   7.5044   7.6087   7.6345   7.7340
     7.7907   7.9157   7.9841   8.0079   8.1184   8.1626   8.2389   8.2920
     8.3548   8.3781   8.4410   8.4880   8.5915   8.6782   8.6827   8.7710
     8.7964   8.8927

     the Fermi energy is     7.2739 ev

!    total energy              =    -501.49239661 Ry
     estimated scf accuracy    <       0.00000096 Ry
     smearing contrib. (-TS)   =      -0.15296718 Ry
     internal energy E=F+TS    =    -501.33942943 Ry

     The total energy is F=E-TS. E is the sum of the following terms:
     one-electron contribution =     196.80577449 Ry
     hartree contribution      =      21.21629175 Ry
     xc contribution           =    -151.01397046 Ry
     ewald contribution        =    -568.34752521 Ry

     convergence has been achieved in  18 iterations

     Forces acting on atoms (cartesian axes, Ry/au):

     atom    1 type  1   force =     0.04029978   -0.01867927    0.01785520
     atom    2 type  1   force =     0.00173297    0.02973670    0.00355220
     atom    3 type  1   force =    -0.01115391   -0.00209448   -0.00122464
     atom    4 type  1   force =    -0.01792116    0.00150233    0.00658090
     atom    5 type  1   force =    -0.01033074   -0.01879060   -0.02776455
     atom    6 type  1   force =     0.04630520   -0.03253340    0.00000113
     atom    7 type  1   force =     0.01780295   -0.01731537    0.02838364
     atom    8 type  1   force =    -0.00712286    0.05727513   -0.02721346
     atom    9 type  1   force =     0.04254772    0.01871985   -0.00948997
     atom   10 type  1   force =     0.00601773   -0.09664466   -0.01616248
     atom   11 type  1   force =    -0.01650809    0.02945996   -0.01180417
     atom   12 type  1   force =     0.01414674   -0.00496855   -0.00172539
     atom   13 type  1   force =    -0.04217044    0.04784266   -0.04443227
     atom   14 type  1   force =     0.02808020    0.01298946    0.01490269
     atom   15 type  1   force =     0.01506330   -0.01255174   -0.01034325
     atom   16 type  1   force =     0.01600707    0.00521090   -0.00615811
     atom   17 type  1   force =     0.04209595   -0.06480054   -0.01016749
     atom   18 type  1   force =    -0.00379110    0.00385844   -0.00593553
     atom   19 type  1   force =    -0.00778718    0.00366733   -0.01209659
     atom   20 type  1   force =     0.04127395    0.11147843   -0.05503634
     atom   21 type  1   force =    -0.02197509    0.01737091    0.01547709
     atom   22 type  1   force =     0.01785362   -0.02687552   -0.01993966
     atom   23 type  1   force =    -0.02964341   -0.00010935   -0.01143150
     atom   24 type  1   force =    -0.00081152    0.00545228    0.01045167
     atom   25 type  1   force =    -0.01163485    0.01085848    0.01323184
     atom   26 type  1   force =    -0.02158445   -0.00223154    0.01339274
     atom   27 type  1   force =    -0.00243735   -0.01197267   -0.01595410
     atom   28 type  1   force =     0.00701201   -0.01520945    0.01027231
     atom   29 type  1   force =     0.02188784    0.01163621   -0.00601805
     atom   30 type  1   force =    -0.01611332    0.01491136    0.01303277
     atom   31 type  1   force =    -0.01916642    0.05197748    0.00834289
     atom   32 type  1   force =     0.00337641   -0.00217361    0.01189045
     atom   33 type  1   force =    -0.02077768   -0.01097406   -0.00253775
     atom   34 type  1   force =     0.01149009   -0.00221841   -0.00189108
     atom   35 type  1   force =     0.01298271    0.00293381    0.01924672
     atom   36 type  1   force =    -0.00430047   -0.02151905   -0.02627673
     atom   37 type  1   force =     0.00322252    0.01141218   -0.00122068
     atom   38 type  1   force =    -0.01741378    0.01472949    0.03532755
     atom   39 type  1   force =    -0.00857230    0.01907302    0.00096698
     atom   40 type  1   force =     0.00119935   -0.02266929    0.00053546
     atom   41 type  1   force =    -0.08905914    0.05012530    0.03400641
     atom   42 type  1   force =     0.00075053   -0.01796947   -0.02317013
     atom   43 type  1   force =    -0.00846350   -0.01256492    0.00194575
     atom   44 type  1   force =    -0.00733708    0.01151196    0.00682903
     atom   45 type  1   force =     0.03394786    0.01090139   -0.00186585
     atom   46 type  1   force =    -0.01592172   -0.03102409   -0.03078753
     atom   47 type  1   force =     0.00875220    0.07481261   -0.08693742
     atom   48 type  1   force =     0.00079176    0.00290972    0.01331084
     atom   49 type  1   force =    -0.04436816   -0.03293819   -0.00126500
     atom   50 type  1   force =     0.00187744    0.00277708   -0.01235382
     atom   51 type  1   force =     0.02829819   -0.06811846    0.07295553
     atom   52 type  1   force =    -0.01358965   -0.02231941   -0.03946241
     atom   53 type  1   force =     0.03820671    0.00560987    0.05690111
     atom   54 type  1   force =    -0.06224589   -0.08634716    0.04266263
     atom   55 type  1   force =    -0.05012145   -0.00220893    0.00463338
     atom   56 type  1   force =     0.01259953    0.01733108    0.02690591
     atom   57 type  1   force =    -0.01197166    0.00334615    0.03867300
     atom   58 type  1   force =    -0.00434001   -0.00007240    0.00572648
     atom   59 type  1   force =     0.05345909    0.01954907    0.01045365
     atom   60 type  1   force =     0.01867008    0.01897495    0.02386962
     atom   61 type  1   force =     0.01454067   -0.00751931   -0.00771600
     atom   62 type  1   force =     0.01533534   -0.02747385   -0.00094136
     atom   63 type  1   force =    -0.02064382    0.00694175   -0.01424467
     atom   64 type  1   force =     0.00165070   -0.01399958   -0.01874960

     Total force =     0.387827     Total SCF correction =     0.001934


     Computing stress (Cartesian axis) and pressure

          total   stress  (Ry/bohr**3)                   (kbar)     P=      -28.44
  -0.00022587   0.00002127  -0.00008823          -33.23        3.13      -12.98
   0.00002127  -0.00017981  -0.00011322            3.13      -26.45      -16.66
  -0.00008823  -0.00011322  -0.00017430          -12.98      -16.66      -25.64

 
     init_run     :      1.07s CPU      4.94s WALL (       1 calls)
     electrons    :      1.90s CPU      2.05s WALL (       1 calls)
     forces       :      0.04s CPU      0.04s WALL (       1 calls)
     stress       :      0.15s CPU      0.15s WALL (       1 calls)

     Called by init_run:
     wfcinit      :      0.53s CPU      4.22s WALL (       1 calls)
                                        4.22s GPU  (       1 calls)
     potinit      :      0.05s CPU      0.15s WALL (       1 calls)
     hinit0       :      0.47s CPU      0.50s WALL (       1 calls)

     Called by electrons:
     c_bands      :      1.14s CPU      1.20s WALL (      19 calls)
     sum_band     :      0.37s CPU      0.42s WALL (      19 calls)
     v_of_rho     :      0.17s CPU      0.29s WALL (      19 calls)
     mix_rho      :      0.18s CPU      0.19s WALL (      19 calls)

     Called by c_bands:
     init_us_2    :      0.07s CPU      0.07s WALL (      39 calls)
     init_us_2:gp :      0.07s CPU      0.07s WALL (      39 calls)
     regterg      :      0.97s CPU      1.03s WALL (      19 calls)

     Called by *egterg:
     rdiaghg      :      0.40s CPU      1.15s WALL (      77 calls)
                                        1.14s GPU  (      77 calls)
     h_psi        :      0.93s CPU      3.90s WALL (      79 calls)
                                        3.90s GPU  (      79 calls)
     g_psi        :      0.00s CPU      0.00s WALL (      59 calls)
                                        0.00s GPU  (      59 calls)

     Called by h_psi:
     h_psi:calbec :      0.50s CPU      3.39s WALL (      79 calls)
                                        3.39s GPU  (      79 calls)
     vloc_psi     :      0.38s CPU      0.46s WALL (      79 calls)
                                        0.45s GPU  (      79 calls)
     add_vuspsi   :      0.03s CPU      0.05s WALL (      79 calls)
                                        0.05s GPU  (      79 calls)

     General routines
     calbec       :      0.50s CPU      3.39s WALL (      84 calls)
     fft          :      0.61s CPU      0.76s WALL (     159 calls)
                                        0.14s GPU  (     101 calls)
     ffts         :      0.05s CPU      0.05s WALL (      19 calls)
     fftw         :      0.47s CPU      0.61s WALL (    1989 calls)
                                        0.54s GPU  (    1989 calls)
 
     Parallel routines
 
     PWSCF        :      3.21s CPU      7.27s WALL

 
   This run was terminated on:  10:52:31  10May2023            

=------------------------------------------------------------------------------=
   JOB DONE.
=------------------------------------------------------------------------------=
