An instance of this daemon is already running

     Program PWSCF v.7.1 starts on 10May2023 at 10:44:27 

     This program is part of the open-source Quantum ESPRESSO suite
     for quantum simulation of materials; please cite
         "P. Giannozzi et al., J. Phys.:Condens. Matter 21 395502 (2009);
         "P. Giannozzi et al., J. Phys.:Condens. Matter 29 465901 (2017);
         "P. Giannozzi et al., J. Chem. Phys. 152 154105 (2020);
          URL http://www.quantum-espresso.org", 
     in publications or presentations arising from this work. More details at
     http://www.quantum-espresso.org/quote

     Parallel version (MPI & OpenMP), running on       4 processor cores
     Number of MPI processes:                 4
     Threads/MPI process:                     1

     MPI processes distributed on     1 nodes
     753557 MiB available memory on the printing compute node when the environment starts
 
     Reading input from pw-si-43.in
Warning: card &CELL ignored
Warning: card / ignored

     Current dimensions of program PWSCF are:
     Max number of different atomic species (ntypx) = 10
     Max number of k-points (npk) =  40000
     Max angular momentum in pseudopotentials (lmaxx) =  4

     IMPORTANT: XC functional enforced from input :
     Exchange-correlation= PBE
                           (   1   4   3   4   0   0   0)
     Any further DFT definition will be discarded
     Please, verify this is what you really want


     gamma-point specific algorithms are used
 
     K-points division:     npool     =       2
     R & G space division:  proc/nbgrp/npool/nimage =       2
     Subspace diagonalization in iterative solution of the eigenvalue problem:
     a serial algorithm will be used

     Message from routine divide_et_impera:
     suboptimal parallelization: some nodes have no k-points
 
     Parallelization info
     --------------------
     sticks:   dense  smooth     PW     G-vecs:    dense   smooth      PW
     Min        1916    1916    502                89532    89532   12150
     Max        1917    1917    503                89537    89537   12153
     Sum        3833    3833   1005               179069   179069   24303
 
     Using Slab Decomposition
 


     bravais-lattice index     =            0
     lattice parameter (alat)  =      20.0546  a.u.
     unit-cell volume          =    8065.7338 (a.u.)^3
     number of atoms/cell      =           64
     number of atomic types    =            1
     number of electrons       =       256.00
     number of Kohn-Sham states=          154
     kinetic-energy cutoff     =      30.0000  Ry
     charge density cutoff     =     120.0000  Ry
     scf convergence threshold =      1.0E-06
     mixing beta               =       0.5000
     number of iterations used =            8  plain     mixing
     Exchange-correlation= PBE
                           (   1   4   3   4   0   0   0)

     GPU acceleration is ACTIVE.
     GPU-aware MPI enabled

     Message from routine print_cuda_info:
     High GPU oversubscription detected. Are you sure this is what you want?

     celldm(1)=  20.054629  celldm(2)=   0.000000  celldm(3)=   0.000000
     celldm(4)=   0.000000  celldm(5)=   0.000000  celldm(6)=   0.000000

     crystal axes: (cart. coord. in units of alat)
               a(1) = (   1.000000   0.000000   0.000000 )  
               a(2) = (   0.000000   1.000000   0.000000 )  
               a(3) = (   0.000000   0.000000   1.000000 )  

     reciprocal axes: (cart. coord. in units 2 pi/alat)
               b(1) = (  1.000000  0.000000  0.000000 )  
               b(2) = (  0.000000  1.000000  0.000000 )  
               b(3) = (  0.000000  0.000000  1.000000 )  


     PseudoPot. # 1 for Si read from file:
     /home/ppiaggi/pseudos/Si_ONCV_PBE_sr.upf
     MD5 check sum: 8553c464762ac42b85b1eed164b4d029
     Pseudo is Norm-conserving, Zval =  4.0
     Generated using ONCVPSP code by D. R. Hamann
     Using radial grid of 1510 points,  4 beta functions with: 
                l(1) =   0
                l(2) =   0
                l(3) =   1
                l(4) =   1

     atomic species   valence    mass     pseudopotential
        Si             4.00    28.08500     Si( 1.00)

     No symmetry found



   Cartesian axes

     site n.     atom                  positions (alat units)
         1           Si  tau(   1) = (   0.7581590   0.5676740   0.2443420  )
         2           Si  tau(   2) = (   0.3590670   0.1616650   0.1428620  )
         3           Si  tau(   3) = (   0.2647160   0.3598210   0.1000650  )
         4           Si  tau(   4) = (   0.4518170   0.3767160   0.4910660  )
         5           Si  tau(   5) = (   0.5049850   0.1889800   0.3085310  )
         6           Si  tau(   6) = (   0.7753520   0.5006030   0.9558060  )
         7           Si  tau(   7) = (   0.1436670   0.3238420   0.9481850  )
         8           Si  tau(   8) = (   0.4927350   0.6722950   0.6033110  )
         9           Si  tau(   9) = (   0.7411190   0.4673950   0.6670130  )
        10           Si  tau(  10) = (   0.1720180   0.4057010   0.2965520  )
        11           Si  tau(  11) = (   0.9529380   0.8949530   0.3679540  )
        12           Si  tau(  12) = (   0.8844630   0.6872490   0.8724990  )
        13           Si  tau(  13) = (   0.6370740   0.5066070   0.4904670  )
        14           Si  tau(  14) = (   0.6861120   0.0160781   0.8974300  )
        15           Si  tau(  15) = (   0.1790460   0.3133710   0.4641780  )
        16           Si  tau(  16) = (   0.7023470   0.7035310   0.7336270  )
        17           Si  tau(  17) = (   0.9299680   0.7632140   0.1843320  )
        18           Si  tau(  18) = (   0.5304620   0.5540960   0.9432850  )
        19           Si  tau(  19) = (   0.1776190   0.6443650   0.7644900  )
        20           Si  tau(  20) = (   0.2088450   0.8041250   0.5894190  )
        21           Si  tau(  21) = (   0.8827360   0.1079490   0.0849341  )
        22           Si  tau(  22) = (   0.2468710   0.1031950   0.4654960  )
        23           Si  tau(  23) = (   0.1345490   0.6141050   0.2713410  )
        24           Si  tau(  24) = (   0.7247090   0.3448020   0.3553830  )
        25           Si  tau(  25) = (   0.9407570   0.0255478   0.7750830  )
        26           Si  tau(  26) = (   0.5950880   0.4422340   0.1694480  )
        27           Si  tau(  27) = (   0.9957310   0.1103050   0.2896520  )
        28           Si  tau(  28) = (   0.4200370   0.7082630   0.3905550  )
        29           Si  tau(  29) = (   0.7330590   0.0563193   0.2499600  )
        30           Si  tau(  30) = (   0.9437350   0.5482330   0.4269640  )
        31           Si  tau(  31) = (   0.7443770   0.7309170   0.4369490  )
        32           Si  tau(  32) = (   0.1889140   0.9221850   0.0201434  )
        33           Si  tau(  33) = (   0.8961380   0.8771670   0.5818420  )
        34           Si  tau(  34) = (   0.9101430   0.3097770   0.0033076  )
        35           Si  tau(  35) = (   0.1517790   0.0882179   0.8878190  )
        36           Si  tau(  36) = (   0.9425960   0.3667180   0.2735160  )
        37           Si  tau(  37) = (   0.9816850   0.6935990   0.6480440  )
        38           Si  tau(  38) = (   0.5710470   0.3356050   0.8244560  )
        39           Si  tau(  39) = (   0.1285080   0.9942670   0.6235140  )
        40           Si  tau(  40) = (   0.6567530   0.2497420   0.0790920  )
        41           Si  tau(  41) = (   0.4319760   0.5185020   0.2824620  )
        42           Si  tau(  42) = (   0.5972880   0.1909980   0.6088850  )
        43           Si  tau(  43) = (   0.7653030   0.1628960   0.4893790  )
        44           Si  tau(  44) = (   0.0116606   0.5648810   0.0694388  )
        45           Si  tau(  45) = (   0.3441370   0.5737670   0.0437009  )
        46           Si  tau(  46) = (   0.1665020   0.7082400   0.9698010  )
        47           Si  tau(  47) = (   0.2116160   0.0074594   0.2351850  )
        48           Si  tau(  48) = (   0.3302910   0.3144350   0.6758930  )
        49           Si  tau(  49) = (   0.4383530   0.8812960   0.6771560  )
        50           Si  tau(  50) = (   0.4903960   0.0219279   0.4930440  )
        51           Si  tau(  51) = (   0.7085430   0.8304750   0.1651390  )
        52           Si  tau(  52) = (   0.6034590   0.7672400   0.9583350  )
        53           Si  tau(  53) = (   0.5824780   0.8571380   0.3661090  )
        54           Si  tau(  54) = (   0.9656720   0.4269220   0.6014660  )
        55           Si  tau(  55) = (   0.1517860   0.4224670   0.7645250  )
        56           Si  tau(  56) = (   0.2074130   0.8012960   0.3537570  )
        57           Si  tau(  57) = (   0.9716190   0.1951390   0.5413330  )
        58           Si  tau(  58) = (   0.8303000   0.2188970   0.7809090  )
        59           Si  tau(  59) = (   0.9373470   0.8908650   0.9817770  )
        60           Si  tau(  60) = (   0.6820110   0.9235260   0.6768120  )
        61           Si  tau(  61) = (   0.4278120   0.8709170   0.9098540  )
        62           Si  tau(  62) = (   0.4020100   0.5213330   0.7482970  )
        63           Si  tau(  63) = (   0.4943100   0.1273180   0.9324330  )
        64           Si  tau(  64) = (   0.3382250   0.1195520   0.7692940  )

     number of k points=     1  Fermi-Dirac smearing, width (Ry)=  0.0100
                       cart. coord. in units 2pi/alat
        k(    1) = (   0.0000000   0.0000000   0.0000000), wk =   2.0000000

     Dense  grid:    89535 G-vectors     FFT dimensions: (  72,  72,  72)

     Estimated max dynamical RAM per process >     143.90 MB

     Estimated total dynamical RAM >     553.75 MB

     Initial potential from superposition of free atoms

     starting charge     255.9608, renormalised to     256.0000
     Starting wfcs are  256 randomized atomic wfcs

     total cpu time spent up to now is        5.1 secs

     Self-consistent Calculation

     iteration #  1     ecut=    30.00 Ry     beta= 0.50
     Davidson diagonalization with overlap
     ethr =  1.00E-02,  avg # of iterations =  3.0

     Threshold (ethr) on eigenvalues was too large:
     Diagonalizing with lowered threshold

     Davidson diagonalization with overlap
     ethr =  4.37E-04,  avg # of iterations =  4.0

     total cpu time spent up to now is        5.3 secs

     total energy              =    -501.26565844 Ry
     estimated scf accuracy    <       1.32639146 Ry

     iteration #  2     ecut=    30.00 Ry     beta= 0.50
     Davidson diagonalization with overlap
     ethr =  5.18E-04,  avg # of iterations =  4.0

     total cpu time spent up to now is        5.5 secs

     total energy              =    -500.72643449 Ry
     estimated scf accuracy    <       6.02815243 Ry

     iteration #  3     ecut=    30.00 Ry     beta= 0.50
     Davidson diagonalization with overlap
     ethr =  5.18E-04,  avg # of iterations =  4.0

     total cpu time spent up to now is        5.6 secs

     total energy              =    -501.31320679 Ry
     estimated scf accuracy    <       2.07362005 Ry

     iteration #  4     ecut=    30.00 Ry     beta= 0.50
     Davidson diagonalization with overlap
     ethr =  5.18E-04,  avg # of iterations =  2.0

     total cpu time spent up to now is        5.7 secs

     total energy              =    -501.43762729 Ry
     estimated scf accuracy    <       0.59429532 Ry

     iteration #  5     ecut=    30.00 Ry     beta= 0.50
     Davidson diagonalization with overlap
     ethr =  2.32E-04,  avg # of iterations =  2.0

     total cpu time spent up to now is        5.8 secs

     total energy              =    -501.47793736 Ry
     estimated scf accuracy    <       0.30481765 Ry

     iteration #  6     ecut=    30.00 Ry     beta= 0.50
     Davidson diagonalization with overlap
     ethr =  1.19E-04,  avg # of iterations =  2.0

     total cpu time spent up to now is        5.9 secs

     total energy              =    -501.51027905 Ry
     estimated scf accuracy    <       0.08894959 Ry

     iteration #  7     ecut=    30.00 Ry     beta= 0.50
     Davidson diagonalization with overlap
     ethr =  3.47E-05,  avg # of iterations =  2.0

     total cpu time spent up to now is        5.9 secs

     total energy              =    -501.51860085 Ry
     estimated scf accuracy    <       0.00905094 Ry

     iteration #  8     ecut=    30.00 Ry     beta= 0.50
     Davidson diagonalization with overlap
     c_bands:  1 eigenvalues not converged
     ethr =  3.54E-06,  avg # of iterations = 20.0

     total cpu time spent up to now is        6.1 secs

     total energy              =    -501.51918402 Ry
     estimated scf accuracy    <       0.01996354 Ry

     iteration #  9     ecut=    30.00 Ry     beta= 0.50
     Davidson diagonalization with overlap
     ethr =  3.54E-06,  avg # of iterations =  3.0

     total cpu time spent up to now is        6.3 secs

     total energy              =    -501.52098185 Ry
     estimated scf accuracy    <       0.00217489 Ry

     iteration # 10     ecut=    30.00 Ry     beta= 0.50
     Davidson diagonalization with overlap
     ethr =  8.50E-07,  avg # of iterations =  2.0

     total cpu time spent up to now is        6.4 secs

     total energy              =    -501.52113062 Ry
     estimated scf accuracy    <       0.00111975 Ry

     iteration # 11     ecut=    30.00 Ry     beta= 0.50
     Davidson diagonalization with overlap
     ethr =  4.37E-07,  avg # of iterations =  2.0

     total cpu time spent up to now is        6.4 secs

     total energy              =    -501.52120762 Ry
     estimated scf accuracy    <       0.00078058 Ry

     iteration # 12     ecut=    30.00 Ry     beta= 0.50
     Davidson diagonalization with overlap
     ethr =  3.05E-07,  avg # of iterations =  2.0

     total cpu time spent up to now is        6.5 secs

     total energy              =    -501.52127733 Ry
     estimated scf accuracy    <       0.00014843 Ry

     iteration # 13     ecut=    30.00 Ry     beta= 0.50
     Davidson diagonalization with overlap
     ethr =  5.80E-08,  avg # of iterations =  2.0

     total cpu time spent up to now is        6.6 secs

     total energy              =    -501.52129166 Ry
     estimated scf accuracy    <       0.00007332 Ry

     iteration # 14     ecut=    30.00 Ry     beta= 0.50
     Davidson diagonalization with overlap
     ethr =  2.86E-08,  avg # of iterations =  2.0

     total cpu time spent up to now is        6.7 secs

     total energy              =    -501.52129792 Ry
     estimated scf accuracy    <       0.00001466 Ry

     iteration # 15     ecut=    30.00 Ry     beta= 0.50
     Davidson diagonalization with overlap
     ethr =  5.73E-09,  avg # of iterations =  2.0

     total cpu time spent up to now is        6.8 secs

     total energy              =    -501.52129869 Ry
     estimated scf accuracy    <       0.00000877 Ry

     iteration # 16     ecut=    30.00 Ry     beta= 0.50
     Davidson diagonalization with overlap
     ethr =  3.43E-09,  avg # of iterations =  3.0

     total cpu time spent up to now is        6.9 secs

     total energy              =    -501.52129854 Ry
     estimated scf accuracy    <       0.00002576 Ry

     iteration # 17     ecut=    30.00 Ry     beta= 0.50
     Davidson diagonalization with overlap
     ethr =  3.43E-09,  avg # of iterations =  2.0

     total cpu time spent up to now is        7.0 secs

     total energy              =    -501.52130021 Ry
     estimated scf accuracy    <       0.00000331 Ry

     iteration # 18     ecut=    30.00 Ry     beta= 0.50
     Davidson diagonalization with overlap
     ethr =  1.29E-09,  avg # of iterations =  2.0

     total cpu time spent up to now is        7.1 secs

     total energy              =    -501.52130051 Ry
     estimated scf accuracy    <       0.00000104 Ry

     iteration # 19     ecut=    30.00 Ry     beta= 0.50
     Davidson diagonalization with overlap
     ethr =  4.04E-10,  avg # of iterations =  2.0

     total cpu time spent up to now is        7.2 secs

     End of self-consistent calculation

          k = 0.0000 0.0000 0.0000 ( 11168 PWs)   bands (ev):

    -5.4025  -4.4454  -4.3838  -4.2917  -4.1711  -4.0862  -3.8141  -3.5254
    -3.4060  -3.2405  -3.2090  -3.1378  -2.9943  -2.9517  -2.8620  -2.7895
    -2.7443  -2.6592  -2.4204  -2.1931  -2.0905  -1.9502  -1.8774  -1.7188
    -1.5922  -1.4464  -1.3757  -1.1820  -0.8787  -0.7247  -0.6133  -0.4108
    -0.2004  -0.1695  -0.0802  -0.0528   0.0121   0.1175   0.1876   0.2583
     0.4029   0.4375   0.4876   0.5931   0.7137   0.8635   0.9170   0.9977
     1.1086   1.1566   1.2251   1.3432   1.3818   1.5182   1.6333   1.7498
     1.8696   1.9261   2.0033   2.1475   2.2304   2.3175   2.4046   2.4216
     2.5150   2.5708   2.6528   2.7352   2.8463   2.8854   2.9543   2.9753
     3.0877   3.1175   3.1934   3.3264   3.4292   3.4892   3.6534   3.7872
     3.8528   4.0279   4.1457   4.2635   4.4023   4.5990   4.6409   4.6906
     4.7199   4.8330   4.9001   4.9496   5.0001   5.1576   5.1885   5.2246
     5.2578   5.2976   5.3901   5.4919   5.5691   5.6091   5.6560   5.7300
     5.8347   5.8786   5.9239   5.9465   6.0009   6.0968   6.1105   6.2289
     6.2483   6.2930   6.4103   6.4640   6.5371   6.5652   6.6026   6.6738
     6.7419   6.7868   6.8762   6.9205   6.9680   7.0532   7.0683   7.1428
     7.1939   7.2604   7.3355   7.4907   7.5528   7.5599   7.6026   7.7026
     7.7816   7.8746   7.9040   7.9859   7.9951   8.0921   8.1323   8.1966
     8.2774   8.3390   8.4209   8.5010   8.5230   8.5787   8.6516   8.7609
     8.8378   8.8505

     the Fermi energy is     7.1932 ev

!    total energy              =    -501.52130036 Ry
     estimated scf accuracy    <       0.00000036 Ry
     smearing contrib. (-TS)   =      -0.13822705 Ry
     internal energy E=F+TS    =    -501.38307332 Ry

     The total energy is F=E-TS. E is the sum of the following terms:
     one-electron contribution =     181.49439542 Ry
     hartree contribution      =      28.17364208 Ry
     xc contribution           =    -151.85893359 Ry
     ewald contribution        =    -559.19217723 Ry

     convergence has been achieved in  19 iterations

     Forces acting on atoms (cartesian axes, Ry/au):

     atom    1 type  1   force =     0.05653750    0.04118261    0.01763821
     atom    2 type  1   force =     0.03598544   -0.00253003   -0.02547581
     atom    3 type  1   force =     0.09474654    0.03865934    0.08774758
     atom    4 type  1   force =    -0.00405722   -0.02740304   -0.04687931
     atom    5 type  1   force =     0.03151731    0.01920036    0.01410193
     atom    6 type  1   force =    -0.00176978   -0.01009235    0.00443195
     atom    7 type  1   force =    -0.13259263   -0.07114227   -0.04991477
     atom    8 type  1   force =     0.01501480   -0.01478673   -0.01496338
     atom    9 type  1   force =     0.05112881   -0.00172323    0.08687404
     atom   10 type  1   force =    -0.00171243    0.06844223   -0.15124272
     atom   11 type  1   force =     0.01369592    0.02808869   -0.01823333
     atom   12 type  1   force =    -0.00197821    0.00802675   -0.02454967
     atom   13 type  1   force =    -0.02433897    0.04471312   -0.04579845
     atom   14 type  1   force =     0.03831833   -0.00443267   -0.02219442
     atom   15 type  1   force =     0.00393330   -0.10642605    0.18511939
     atom   16 type  1   force =    -0.00867519   -0.01287196    0.01962386
     atom   17 type  1   force =    -0.02497144   -0.01423392   -0.01988619
     atom   18 type  1   force =     0.04471726   -0.02196956   -0.01929641
     atom   19 type  1   force =     0.01506117   -0.00322566   -0.02805767
     atom   20 type  1   force =     0.03982696   -0.05418194   -0.01196671
     atom   21 type  1   force =    -0.02492528   -0.02313383    0.01944432
     atom   22 type  1   force =     0.03414624   -0.02513077   -0.01614711
     atom   23 type  1   force =    -0.05774698    0.00585839   -0.01568921
     atom   24 type  1   force =     0.00942304   -0.01509798   -0.00940552
     atom   25 type  1   force =     0.04535819   -0.00663541    0.00407058
     atom   26 type  1   force =     0.01920954   -0.02558728   -0.04029249
     atom   27 type  1   force =     0.02192652   -0.01867089    0.00358603
     atom   28 type  1   force =    -0.01789903    0.00957495    0.01021420
     atom   29 type  1   force =    -0.01506865   -0.00254098    0.00620310
     atom   30 type  1   force =    -0.00666477    0.04693359   -0.03519495
     atom   31 type  1   force =     0.04305893   -0.05788364    0.02915338
     atom   32 type  1   force =     0.00870887   -0.02181619    0.03429975
     atom   33 type  1   force =    -0.03927226    0.02975855   -0.00141275
     atom   34 type  1   force =     0.00692791    0.03124656   -0.02908151
     atom   35 type  1   force =    -0.03499584    0.04116393   -0.05918973
     atom   36 type  1   force =    -0.02607075   -0.01912390   -0.02323868
     atom   37 type  1   force =     0.00811809   -0.05396258    0.02543624
     atom   38 type  1   force =     0.01907455    0.01504787   -0.02210279
     atom   39 type  1   force =    -0.04913309    0.08130379    0.03001332
     atom   40 type  1   force =    -0.00261603   -0.03268200    0.00559570
     atom   41 type  1   force =    -0.05756249   -0.00426371    0.01474970
     atom   42 type  1   force =    -0.05010122   -0.00621588    0.04396762
     atom   43 type  1   force =     0.02149826   -0.01313315   -0.06148462
     atom   44 type  1   force =    -0.00514229    0.01853281    0.03593290
     atom   45 type  1   force =    -0.03521491   -0.01763817    0.05164064
     atom   46 type  1   force =     0.01631409   -0.01736382    0.02355160
     atom   47 type  1   force =    -0.02999246   -0.00108669    0.00604866
     atom   48 type  1   force =    -0.00545237    0.04227664   -0.03302890
     atom   49 type  1   force =    -0.01806014    0.01194449    0.01281087
     atom   50 type  1   force =    -0.02775893    0.01855233   -0.00145041
     atom   51 type  1   force =    -0.00307342    0.01512435   -0.00094311
     atom   52 type  1   force =     0.05039260   -0.02666385    0.00708331
     atom   53 type  1   force =    -0.01572787    0.02131501   -0.02805537
     atom   54 type  1   force =     0.00534130   -0.05152011    0.05743348
     atom   55 type  1   force =    -0.02257252    0.03336864   -0.06788989
     atom   56 type  1   force =     0.02193721    0.02190135    0.03329693
     atom   57 type  1   force =     0.05207971    0.02016500    0.00653437
     atom   58 type  1   force =    -0.01701439    0.01749112    0.01364080
     atom   59 type  1   force =     0.00156585    0.00468602   -0.00708672
     atom   60 type  1   force =     0.00772509    0.01674876    0.01368879
     atom   61 type  1   force =    -0.05258544    0.04911985   -0.02984682
     atom   62 type  1   force =    -0.00091906    0.01001083    0.02581158
     atom   63 type  1   force =    -0.02773654    0.01219938    0.03696900
     atom   64 type  1   force =     0.01011326   -0.03746706   -0.00671440

     Total force =     0.520623     Total SCF correction =     0.001210


     Computing stress (Cartesian axis) and pressure

          total   stress  (Ry/bohr**3)                   (kbar)     P=       -7.60
  -0.00000702   0.00000531   0.00004543           -1.03        0.78        6.68
   0.00000531  -0.00004204  -0.00005038            0.78       -6.18       -7.41
   0.00004543  -0.00005038  -0.00010601            6.68       -7.41      -15.59

 
     init_run     :      1.11s CPU      4.99s WALL (       1 calls)
     electrons    :      2.00s CPU      2.14s WALL (       1 calls)
     forces       :      0.04s CPU      0.04s WALL (       1 calls)
     stress       :      0.15s CPU      0.15s WALL (       1 calls)

     Called by init_run:
     wfcinit      :      0.57s CPU      4.27s WALL (       1 calls)
                                        4.27s GPU  (       1 calls)
     potinit      :      0.05s CPU      0.16s WALL (       1 calls)
     hinit0       :      0.47s CPU      0.50s WALL (       1 calls)

     Called by electrons:
     c_bands      :      1.18s CPU      1.25s WALL (      20 calls)
     sum_band     :      0.40s CPU      0.44s WALL (      20 calls)
     v_of_rho     :      0.19s CPU      0.30s WALL (      20 calls)
     mix_rho      :      0.19s CPU      0.21s WALL (      20 calls)

     Called by c_bands:
     init_us_2    :      0.08s CPU      0.08s WALL (      41 calls)
     init_us_2:gp :      0.07s CPU      0.08s WALL (      41 calls)
     regterg      :      1.01s CPU      1.07s WALL (      20 calls)

     Called by *egterg:
     rdiaghg      :      0.40s CPU      1.15s WALL (      86 calls)
                                        1.14s GPU  (      86 calls)
     h_psi        :      0.99s CPU      3.98s WALL (      88 calls)
                                        3.97s GPU  (      88 calls)
     g_psi        :      0.00s CPU      0.00s WALL (      67 calls)
                                        0.00s GPU  (      67 calls)

     Called by h_psi:
     h_psi:calbec :      0.53s CPU      3.44s WALL (      88 calls)
                                        3.44s GPU  (      88 calls)
     vloc_psi     :      0.40s CPU      0.48s WALL (      88 calls)
                                        0.47s GPU  (      88 calls)
     add_vuspsi   :      0.04s CPU      0.05s WALL (      88 calls)
                                        0.05s GPU  (      88 calls)

     General routines
     calbec       :      0.54s CPU      3.44s WALL (      93 calls)
     fft          :      0.63s CPU      0.77s WALL (     167 calls)
                                        0.14s GPU  (     106 calls)
     ffts         :      0.05s CPU      0.05s WALL (      20 calls)
     fftw         :      0.49s CPU      0.63s WALL (    2098 calls)
                                        0.56s GPU  (    2098 calls)
 
     Parallel routines
 
     PWSCF        :      3.34s CPU      7.42s WALL

 
   This run was terminated on:  10:44:35  10May2023            

=------------------------------------------------------------------------------=
   JOB DONE.
=------------------------------------------------------------------------------=
