An instance of this daemon is already running
An instance of this daemon is already running

     Program PWSCF v.7.1 starts on 10May2023 at 10:53: 3 

     This program is part of the open-source Quantum ESPRESSO suite
     for quantum simulation of materials; please cite
         "P. Giannozzi et al., J. Phys.:Condens. Matter 21 395502 (2009);
         "P. Giannozzi et al., J. Phys.:Condens. Matter 29 465901 (2017);
         "P. Giannozzi et al., J. Chem. Phys. 152 154105 (2020);
          URL http://www.quantum-espresso.org", 
     in publications or presentations arising from this work. More details at
     http://www.quantum-espresso.org/quote

     Parallel version (MPI & OpenMP), running on       4 processor cores
     Number of MPI processes:                 4
     Threads/MPI process:                     1

     MPI processes distributed on     1 nodes
     753531 MiB available memory on the printing compute node when the environment starts
 
     Reading input from pw-si-96.in
Warning: card &CELL ignored
Warning: card / ignored

     Current dimensions of program PWSCF are:
     Max number of different atomic species (ntypx) = 10
     Max number of k-points (npk) =  40000
     Max angular momentum in pseudopotentials (lmaxx) =  4

     IMPORTANT: XC functional enforced from input :
     Exchange-correlation= PBE
                           (   1   4   3   4   0   0   0)
     Any further DFT definition will be discarded
     Please, verify this is what you really want


     gamma-point specific algorithms are used
 
     K-points division:     npool     =       2
     R & G space division:  proc/nbgrp/npool/nimage =       2
     Subspace diagonalization in iterative solution of the eigenvalue problem:
     a serial algorithm will be used

     Message from routine divide_et_impera:
     suboptimal parallelization: some nodes have no k-points
 
     Parallelization info
     --------------------
     sticks:   dense  smooth     PW     G-vecs:    dense   smooth      PW
     Min        1942    1942    516                90833    90833   12416
     Max        1943    1943    517                90834    90834   12421
     Sum        3885    3885   1033               181667   181667   24837
 
     Using Slab Decomposition
 


     bravais-lattice index     =            0
     lattice parameter (alat)  =      20.1536  a.u.
     unit-cell volume          =    8185.7067 (a.u.)^3
     number of atoms/cell      =           64
     number of atomic types    =            1
     number of electrons       =       256.00
     number of Kohn-Sham states=          154
     kinetic-energy cutoff     =      30.0000  Ry
     charge density cutoff     =     120.0000  Ry
     scf convergence threshold =      1.0E-06
     mixing beta               =       0.5000
     number of iterations used =            8  plain     mixing
     Exchange-correlation= PBE
                           (   1   4   3   4   0   0   0)

     GPU acceleration is ACTIVE.
     GPU-aware MPI enabled

     Message from routine print_cuda_info:
     High GPU oversubscription detected. Are you sure this is what you want?

     celldm(1)=  20.153573  celldm(2)=   0.000000  celldm(3)=   0.000000
     celldm(4)=   0.000000  celldm(5)=   0.000000  celldm(6)=   0.000000

     crystal axes: (cart. coord. in units of alat)
               a(1) = (   1.000000   0.000000   0.000000 )  
               a(2) = (   0.000000   1.000000   0.000000 )  
               a(3) = (   0.000000   0.000000   1.000000 )  

     reciprocal axes: (cart. coord. in units 2 pi/alat)
               b(1) = (  1.000000  0.000000  0.000000 )  
               b(2) = (  0.000000  1.000000  0.000000 )  
               b(3) = (  0.000000  0.000000  1.000000 )  


     PseudoPot. # 1 for Si read from file:
     /home/ppiaggi/pseudos/Si_ONCV_PBE_sr.upf
     MD5 check sum: 8553c464762ac42b85b1eed164b4d029
     Pseudo is Norm-conserving, Zval =  4.0
     Generated using ONCVPSP code by D. R. Hamann
     Using radial grid of 1510 points,  4 beta functions with: 
                l(1) =   0
                l(2) =   0
                l(3) =   1
                l(4) =   1

     atomic species   valence    mass     pseudopotential
        Si             4.00    28.08500     Si( 1.00)

     No symmetry found



   Cartesian axes

     site n.     atom                  positions (alat units)
         1           Si  tau(   1) = (   0.2410490   0.1971190   0.8091290  )
         2           Si  tau(   2) = (   0.7036260   0.1086600   0.4599440  )
         3           Si  tau(   3) = (   0.3889000   0.8370090   0.8396370  )
         4           Si  tau(   4) = (   0.8181650   0.9302240   0.7898350  )
         5           Si  tau(   5) = (   0.8279320   0.1150600   0.2585560  )
         6           Si  tau(   6) = (   0.9140560   0.6261630   0.4697130  )
         7           Si  tau(   7) = (   0.0110296   0.5045730   0.6472430  )
         8           Si  tau(   8) = (   0.5841050   0.5909960   0.9930640  )
         9           Si  tau(   9) = (   0.1764010   0.7570070   0.3801000  )
        10           Si  tau(  10) = (   0.3841990   0.6402540   0.8998950  )
        11           Si  tau(  11) = (   0.6863220   0.0392087   0.1071390  )
        12           Si  tau(  12) = (   0.0150369   0.1552280   0.0253114  )
        13           Si  tau(  13) = (   0.8907370   0.6018980   0.8181170  )
        14           Si  tau(  14) = (   0.9089970   0.7215450   0.1805620  )
        15           Si  tau(  15) = (   0.6954110   0.9307760   0.5852930  )
        16           Si  tau(  16) = (   0.6743830   0.7204320   0.8085320  )
        17           Si  tau(  17) = (   0.3711120   0.1379390   0.5889180  )
        18           Si  tau(  18) = (   0.0314236   0.0028975   0.2032490  )
        19           Si  tau(  19) = (   0.4295010   0.3604350   0.9060370  )
        20           Si  tau(  20) = (   0.5969220   0.6739020   0.5972350  )
        21           Si  tau(  21) = (   0.3081800   0.3885160   0.6546420  )
        22           Si  tau(  22) = (   0.9221430   0.8225780   0.3833530  )
        23           Si  tau(  23) = (   0.5632420   0.6867860   0.2160200  )
        24           Si  tau(  24) = (   0.1866560   0.0055004   0.9235010  )
        25           Si  tau(  25) = (   0.4688360   0.8862310   0.6216360  )
        26           Si  tau(  26) = (   0.6866770   0.6095480   0.4121140  )
        27           Si  tau(  27) = (   0.4903830   0.1446370   0.7825590  )
        28           Si  tau(  28) = (   0.5432590   0.4816120   0.7102800  )
        29           Si  tau(  29) = (   0.2152230   0.2479700   0.3914900  )
        30           Si  tau(  30) = (   0.4941370   0.1137980   0.1871880  )
        31           Si  tau(  31) = (   0.9805600   0.8008050   0.8882750  )
        32           Si  tau(  32) = (   0.3701430   0.9828010   0.0776048  )
        33           Si  tau(  33) = (   0.0316624   0.2875050   0.2427310  )
        34           Si  tau(  34) = (   0.0804984   0.8032450   0.1031130  )
        35           Si  tau(  35) = (   0.6628830   0.2745510   0.7525220  )
        36           Si  tau(  36) = (   0.8729090   0.4670280   0.2230480  )
        37           Si  tau(  37) = (   0.0972892   0.2710540   0.5958000  )
        38           Si  tau(  38) = (   0.2971380   0.5006710   0.4520070  )
        39           Si  tau(  39) = (   0.9687270   0.3329890   0.8130400  )
        40           Si  tau(  40) = (   0.8813520   0.3687750   0.4555630  )
        41           Si  tau(  41) = (   0.3431060   0.6956390   0.5593390  )
        42           Si  tau(  42) = (   0.8690410   0.1775630   0.6251190  )
        43           Si  tau(  43) = (   0.3756170   0.7748140   0.1884280  )
        44           Si  tau(  44) = (   0.4787410   0.2495590   0.4082370  )
        45           Si  tau(  45) = (   0.6911420   0.8755560   0.3397720  )
        46           Si  tau(  46) = (   0.2690510   0.3940210   0.1815550  )
        47           Si  tau(  47) = (   0.4638130   0.4695420   0.3044880  )
        48           Si  tau(  48) = (   0.1632820   0.8355530   0.7235740  )
        49           Si  tau(  49) = (   0.7478380   0.4312820   0.9076040  )
        50           Si  tau(  50) = (   0.9574500   0.9743740   0.5677380  )
        51           Si  tau(  51) = (   0.0079925   0.5311570   0.0223298  )
        52           Si  tau(  52) = (   0.6620730   0.3758420   0.5111570  )
        53           Si  tau(  53) = (   0.1904440   0.9696650   0.5242940  )
        54           Si  tau(  54) = (   0.2295220   0.0491377   0.3123960  )
        55           Si  tau(  55) = (   0.1040320   0.5326290   0.3181610  )
        56           Si  tau(  56) = (   0.4328200   0.9193720   0.3688600  )
        57           Si  tau(  57) = (   0.5005980   0.3212350   0.1250310  )
        58           Si  tau(  58) = (   0.5681280   0.9389090   0.8830370  )
        59           Si  tau(  59) = (   0.7270890   0.8000760   0.0769189  )
        60           Si  tau(  60) = (   0.1525990   0.3416750   0.9867240  )
        61           Si  tau(  61) = (   0.8246230   0.1274030   0.8980900  )
        62           Si  tau(  62) = (   0.2202920   0.5979480   0.7329230  )
        63           Si  tau(  63) = (   0.7390110   0.3293370   0.1212540  )
        64           Si  tau(  64) = (   0.2427170   0.6187000   0.0768673  )

     number of k points=     1  Fermi-Dirac smearing, width (Ry)=  0.0100
                       cart. coord. in units 2pi/alat
        k(    1) = (   0.0000000   0.0000000   0.0000000), wk =   2.0000000

     Dense  grid:    90834 G-vectors     FFT dimensions: (  72,  72,  72)

     Estimated max dynamical RAM per process >     145.80 MB

     Estimated total dynamical RAM >     561.00 MB

     Initial potential from superposition of free atoms

     starting charge     255.9608, renormalised to     256.0000
     Starting wfcs are  256 randomized atomic wfcs

     total cpu time spent up to now is        5.0 secs

     Self-consistent Calculation

     iteration #  1     ecut=    30.00 Ry     beta= 0.50
     Davidson diagonalization with overlap
     ethr =  1.00E-02,  avg # of iterations =  3.0

     Threshold (ethr) on eigenvalues was too large:
     Diagonalizing with lowered threshold

     Davidson diagonalization with overlap
     ethr =  3.43E-04,  avg # of iterations =  5.0

     total cpu time spent up to now is        5.3 secs

     total energy              =    -501.32277844 Ry
     estimated scf accuracy    <       1.04722914 Ry

     iteration #  2     ecut=    30.00 Ry     beta= 0.50
     Davidson diagonalization with overlap
     ethr =  4.09E-04,  avg # of iterations =  3.0

     total cpu time spent up to now is        5.4 secs

     total energy              =    -501.07848026 Ry
     estimated scf accuracy    <       2.35035398 Ry

     iteration #  3     ecut=    30.00 Ry     beta= 0.50
     Davidson diagonalization with overlap
     ethr =  4.09E-04,  avg # of iterations =  3.0

     total cpu time spent up to now is        5.5 secs

     total energy              =    -501.27926110 Ry
     estimated scf accuracy    <       2.39214178 Ry

     iteration #  4     ecut=    30.00 Ry     beta= 0.50
     Davidson diagonalization with overlap
     ethr =  4.09E-04,  avg # of iterations =  2.0

     total cpu time spent up to now is        5.6 secs

     total energy              =    -501.44718309 Ry
     estimated scf accuracy    <       0.44126101 Ry

     iteration #  5     ecut=    30.00 Ry     beta= 0.50
     Davidson diagonalization with overlap
     ethr =  1.72E-04,  avg # of iterations =  2.0

     total cpu time spent up to now is        5.7 secs

     total energy              =    -501.47249877 Ry
     estimated scf accuracy    <       0.27994929 Ry

     iteration #  6     ecut=    30.00 Ry     beta= 0.50
     Davidson diagonalization with overlap
     ethr =  1.09E-04,  avg # of iterations =  2.0

     total cpu time spent up to now is        5.8 secs

     total energy              =    -501.49977936 Ry
     estimated scf accuracy    <       0.10538602 Ry

     iteration #  7     ecut=    30.00 Ry     beta= 0.50
     Davidson diagonalization with overlap
     ethr =  4.12E-05,  avg # of iterations =  2.0

     total cpu time spent up to now is        5.9 secs

     total energy              =    -501.50859917 Ry
     estimated scf accuracy    <       0.01242437 Ry

     iteration #  8     ecut=    30.00 Ry     beta= 0.50
     Davidson diagonalization with overlap
     ethr =  4.85E-06,  avg # of iterations = 16.0

     total cpu time spent up to now is        6.1 secs

     total energy              =    -501.50958010 Ry
     estimated scf accuracy    <       0.02258660 Ry

     iteration #  9     ecut=    30.00 Ry     beta= 0.50
     Davidson diagonalization with overlap
     ethr =  4.85E-06,  avg # of iterations =  2.0

     total cpu time spent up to now is        6.2 secs

     total energy              =    -501.51140584 Ry
     estimated scf accuracy    <       0.00206159 Ry

     iteration # 10     ecut=    30.00 Ry     beta= 0.50
     Davidson diagonalization with overlap
     ethr =  8.05E-07,  avg # of iterations =  4.0

     total cpu time spent up to now is        6.3 secs

     total energy              =    -501.51152230 Ry
     estimated scf accuracy    <       0.00312940 Ry

     iteration # 11     ecut=    30.00 Ry     beta= 0.50
     Davidson diagonalization with overlap
     ethr =  8.05E-07,  avg # of iterations =  2.0

     total cpu time spent up to now is        6.4 secs

     total energy              =    -501.51173765 Ry
     estimated scf accuracy    <       0.00035571 Ry

     iteration # 12     ecut=    30.00 Ry     beta= 0.50
     Davidson diagonalization with overlap
     ethr =  1.39E-07,  avg # of iterations =  3.0

     total cpu time spent up to now is        6.6 secs

     total energy              =    -501.51178164 Ry
     estimated scf accuracy    <       0.00018250 Ry

     iteration # 13     ecut=    30.00 Ry     beta= 0.50
     Davidson diagonalization with overlap
     ethr =  7.13E-08,  avg # of iterations =  3.0

     total cpu time spent up to now is        6.7 secs

     total energy              =    -501.51179452 Ry
     estimated scf accuracy    <       0.00018531 Ry

     iteration # 14     ecut=    30.00 Ry     beta= 0.50
     Davidson diagonalization with overlap
     ethr =  7.13E-08,  avg # of iterations =  2.0

     total cpu time spent up to now is        6.7 secs

     total energy              =    -501.51180667 Ry
     estimated scf accuracy    <       0.00002331 Ry

     iteration # 15     ecut=    30.00 Ry     beta= 0.50
     Davidson diagonalization with overlap
     ethr =  9.10E-09,  avg # of iterations =  4.0

     total cpu time spent up to now is        6.9 secs

     total energy              =    -501.51180717 Ry
     estimated scf accuracy    <       0.00002524 Ry

     iteration # 16     ecut=    30.00 Ry     beta= 0.50
     Davidson diagonalization with overlap
     ethr =  9.10E-09,  avg # of iterations =  3.0

     total cpu time spent up to now is        7.0 secs

     total energy              =    -501.51180896 Ry
     estimated scf accuracy    <       0.00002007 Ry

     iteration # 17     ecut=    30.00 Ry     beta= 0.50
     Davidson diagonalization with overlap
     ethr =  7.84E-09,  avg # of iterations =  2.0

     total cpu time spent up to now is        7.1 secs

     total energy              =    -501.51180994 Ry
     estimated scf accuracy    <       0.00000460 Ry

     iteration # 18     ecut=    30.00 Ry     beta= 0.50
     Davidson diagonalization with overlap
     ethr =  1.80E-09,  avg # of iterations =  2.0

     total cpu time spent up to now is        7.2 secs

     total energy              =    -501.51181056 Ry
     estimated scf accuracy    <       0.00000274 Ry

     iteration # 19     ecut=    30.00 Ry     beta= 0.50
     Davidson diagonalization with overlap
     ethr =  1.07E-09,  avg # of iterations =  1.0

     total cpu time spent up to now is        7.2 secs

     End of self-consistent calculation

          k = 0.0000 0.0000 0.0000 ( 11372 PWs)   bands (ev):

    -5.3315  -4.4419  -4.3062  -4.1880  -4.1027  -4.0033  -3.9467  -3.4208
    -3.2754  -3.2246  -3.1447  -3.0773  -3.0038  -2.9735  -2.8903  -2.7824
    -2.6914  -2.6732  -2.5111  -2.2228  -2.0100  -1.9261  -1.7858  -1.7572
    -1.7160  -1.5359  -1.3456  -0.8872  -0.7825  -0.6069  -0.5207  -0.4215
    -0.3605  -0.1152   0.0098   0.0569   0.1336   0.1945   0.2207   0.2828
     0.3456   0.4213   0.5137   0.6050   0.6534   0.7177   0.8042   0.8419
     0.9449   1.0241   1.0873   1.2201   1.2402   1.3791   1.4774   1.5832
     1.6141   1.7904   1.9083   2.0005   2.1386   2.2049   2.3538   2.4394
     2.4957   2.5140   2.6112   2.7279   2.7963   2.8680   2.8900   3.0330
     3.0442   3.1606   3.2102   3.2535   3.3013   3.4037   3.5191   3.6279
     3.7509   4.2600   4.3394   4.3900   4.4511   4.4837   4.5606   4.6466
     4.7277   4.7526   4.8509   4.8654   4.9375   5.0298   5.0811   5.1842
     5.2061   5.2529   5.3315   5.3767   5.4231   5.4514   5.5553   5.5998
     5.6989   5.7309   5.7925   5.8453   5.9190   5.9690   5.9995   6.1575
     6.1667   6.2337   6.2440   6.3456   6.3690   6.4448   6.4876   6.5220
     6.6190   6.7293   6.7834   6.8560   6.9606   7.0074   7.0367   7.1135
     7.2066   7.2391   7.2713   7.3018   7.3508   7.4192   7.5412   7.6015
     7.6125   7.6367   7.6842   7.7624   7.8117   7.8727   7.9633   8.0166
     8.0914   8.1469   8.2215   8.2772   8.2990   8.3743   8.4749   8.5782
     8.6299   8.6989

     the Fermi energy is     7.1313 ev

!    total energy              =    -501.51181006 Ry
     estimated scf accuracy    <       0.00000082 Ry
     smearing contrib. (-TS)   =      -0.15228993 Ry
     internal energy E=F+TS    =    -501.35952013 Ry

     The total energy is F=E-TS. E is the sum of the following terms:
     one-electron contribution =     190.82082295 Ry
     hartree contribution      =      22.29364442 Ry
     xc contribution           =    -150.58270354 Ry
     ewald contribution        =    -563.89128396 Ry

     convergence has been achieved in  19 iterations

     Forces acting on atoms (cartesian axes, Ry/au):

     atom    1 type  1   force =     0.03202594    0.03003475   -0.00656699
     atom    2 type  1   force =     0.01233945    0.03002259   -0.02430608
     atom    3 type  1   force =    -0.05415591    0.04460057   -0.03324096
     atom    4 type  1   force =    -0.01315223   -0.00141988   -0.03723630
     atom    5 type  1   force =     0.02137432    0.01586310    0.02592651
     atom    6 type  1   force =     0.00784858   -0.07065437    0.00128173
     atom    7 type  1   force =     0.01111068    0.00094496    0.00859606
     atom    8 type  1   force =     0.02279069   -0.00626871   -0.01844469
     atom    9 type  1   force =     0.01405535   -0.00820660   -0.00229513
     atom   10 type  1   force =    -0.02632858   -0.07281280    0.01104270
     atom   11 type  1   force =     0.00877642   -0.02292532   -0.04218172
     atom   12 type  1   force =     0.02218514   -0.00304225    0.00431319
     atom   13 type  1   force =    -0.00853008   -0.01648103    0.02590220
     atom   14 type  1   force =    -0.06818455   -0.06424372    0.02512159
     atom   15 type  1   force =     0.00090283   -0.02220742    0.01897313
     atom   16 type  1   force =     0.01710405    0.00264004    0.00658783
     atom   17 type  1   force =    -0.00700479   -0.00298612    0.01056419
     atom   18 type  1   force =     0.00559461    0.00170984    0.00488398
     atom   19 type  1   force =    -0.00408689   -0.01088133   -0.02138287
     atom   20 type  1   force =    -0.04592330    0.02203020    0.05033770
     atom   21 type  1   force =     0.01248952    0.01335641   -0.00220618
     atom   22 type  1   force =    -0.00641114    0.04365093   -0.00609038
     atom   23 type  1   force =     0.05923305   -0.03175156    0.00903644
     atom   24 type  1   force =     0.00721136   -0.00467093    0.01286385
     atom   25 type  1   force =    -0.00149934   -0.01713078   -0.00715722
     atom   26 type  1   force =     0.02192422   -0.02136917   -0.02384488
     atom   27 type  1   force =    -0.01970391   -0.02833151    0.01910985
     atom   28 type  1   force =    -0.03215324   -0.02452409   -0.00453597
     atom   29 type  1   force =    -0.00745627    0.03402136    0.00030550
     atom   30 type  1   force =     0.02240440    0.00918206    0.05047385
     atom   31 type  1   force =     0.03590280   -0.01137899   -0.00326132
     atom   32 type  1   force =    -0.05368345   -0.05450450   -0.04345083
     atom   33 type  1   force =    -0.02743021    0.01074095    0.00743462
     atom   34 type  1   force =     0.05988753    0.02337448   -0.05350850
     atom   35 type  1   force =     0.03033146    0.01879119   -0.00764015
     atom   36 type  1   force =     0.03341151    0.01788516    0.01540902
     atom   37 type  1   force =    -0.00152873    0.01970354    0.01361904
     atom   38 type  1   force =     0.01126434   -0.01202171    0.00205474
     atom   39 type  1   force =    -0.00114400    0.00328901   -0.00583313
     atom   40 type  1   force =     0.00652801    0.00190268   -0.00124509
     atom   41 type  1   force =     0.00440219    0.00539846   -0.01308522
     atom   42 type  1   force =    -0.00395143    0.01923861   -0.00198755
     atom   43 type  1   force =    -0.06514803    0.03808091    0.00827407
     atom   44 type  1   force =     0.01810697   -0.02185190    0.01062488
     atom   45 type  1   force =     0.00286312   -0.00440871   -0.00365769
     atom   46 type  1   force =    -0.01296343    0.03969959    0.01055429
     atom   47 type  1   force =     0.01320105    0.00217540   -0.00002481
     atom   48 type  1   force =     0.00256369   -0.00272165    0.02680341
     atom   49 type  1   force =    -0.00047522   -0.00144841    0.01224590
     atom   50 type  1   force =     0.00364882   -0.00106640    0.00950654
     atom   51 type  1   force =     0.00870950    0.00020057   -0.01669679
     atom   52 type  1   force =    -0.02531312    0.01042269    0.01456906
     atom   53 type  1   force =    -0.00938302    0.00020333    0.02371523
     atom   54 type  1   force =     0.01171787   -0.03525041   -0.02022477
     atom   55 type  1   force =     0.01819579    0.02292250   -0.00140167
     atom   56 type  1   force =    -0.01063686    0.00364303   -0.01332825
     atom   57 type  1   force =     0.01341697    0.02503604   -0.01899596
     atom   58 type  1   force =     0.02880575    0.06701013    0.02213378
     atom   59 type  1   force =    -0.01883679    0.00693343    0.00615639
     atom   60 type  1   force =    -0.02265009   -0.01438530   -0.02670402
     atom   61 type  1   force =    -0.02365147    0.02184876    0.02327205
     atom   62 type  1   force =     0.00524275   -0.00989397   -0.01936173
     atom   63 type  1   force =    -0.01488874   -0.01508385   -0.03594060
     atom   64 type  1   force =    -0.02129592    0.00736615    0.02414414

     Total force =     0.335024     Total SCF correction =     0.001856


     Computing stress (Cartesian axis) and pressure

          total   stress  (Ry/bohr**3)                   (kbar)     P=      -38.76
  -0.00022834   0.00001447  -0.00003061          -33.59        2.13       -4.50
   0.00001447  -0.00020685   0.00000857            2.13      -30.43        1.26
  -0.00003061   0.00000857  -0.00035534           -4.50        1.26      -52.27

 
     init_run     :      1.11s CPU      4.97s WALL (       1 calls)
     electrons    :      2.02s CPU      2.19s WALL (       1 calls)
     forces       :      0.03s CPU      0.04s WALL (       1 calls)
     stress       :      0.15s CPU      0.16s WALL (       1 calls)

     Called by init_run:
     wfcinit      :      0.57s CPU      4.25s WALL (       1 calls)
                                        4.25s GPU  (       1 calls)
     potinit      :      0.05s CPU      0.15s WALL (       1 calls)
     hinit0       :      0.47s CPU      0.50s WALL (       1 calls)

     Called by electrons:
     c_bands      :      1.20s CPU      1.29s WALL (      20 calls)
     sum_band     :      0.40s CPU      0.44s WALL (      20 calls)
     v_of_rho     :      0.18s CPU      0.30s WALL (      20 calls)
     mix_rho      :      0.19s CPU      0.21s WALL (      20 calls)

     Called by c_bands:
     init_us_2    :      0.07s CPU      0.08s WALL (      41 calls)
     init_us_2:gp :      0.07s CPU      0.07s WALL (      41 calls)
     regterg      :      1.03s CPU      1.11s WALL (      20 calls)

     Called by *egterg:
     rdiaghg      :      0.44s CPU      1.20s WALL (      85 calls)
                                        1.18s GPU  (      85 calls)
     h_psi        :      0.96s CPU      3.94s WALL (      87 calls)
                                        3.94s GPU  (      87 calls)
     g_psi        :      0.00s CPU      0.00s WALL (      66 calls)
                                        0.00s GPU  (      66 calls)

     Called by h_psi:
     h_psi:calbec :      0.52s CPU      3.41s WALL (      87 calls)
                                        3.41s GPU  (      87 calls)
     vloc_psi     :      0.39s CPU      0.47s WALL (      87 calls)
                                        0.47s GPU  (      87 calls)
     add_vuspsi   :      0.03s CPU      0.05s WALL (      87 calls)
                                        0.05s GPU  (      87 calls)

     General routines
     calbec       :      0.52s CPU      3.41s WALL (      92 calls)
     fft          :      0.62s CPU      0.77s WALL (     167 calls)
                                        0.14s GPU  (     106 calls)
     ffts         :      0.05s CPU      0.05s WALL (      20 calls)
     fftw         :      0.48s CPU      0.63s WALL (    2100 calls)
                                        0.55s GPU  (    2100 calls)
 
     Parallel routines
 
     PWSCF        :      3.36s CPU      7.44s WALL

 
   This run was terminated on:  10:53:10  10May2023            

=------------------------------------------------------------------------------=
   JOB DONE.
=------------------------------------------------------------------------------=
