An instance of this daemon is already running
An instance of this daemon is already running

     Program PWSCF v.7.1 starts on 10May2023 at 10:53:13 

     This program is part of the open-source Quantum ESPRESSO suite
     for quantum simulation of materials; please cite
         "P. Giannozzi et al., J. Phys.:Condens. Matter 21 395502 (2009);
         "P. Giannozzi et al., J. Phys.:Condens. Matter 29 465901 (2017);
         "P. Giannozzi et al., J. Chem. Phys. 152 154105 (2020);
          URL http://www.quantum-espresso.org", 
     in publications or presentations arising from this work. More details at
     http://www.quantum-espresso.org/quote

     Parallel version (MPI & OpenMP), running on       4 processor cores
     Number of MPI processes:                 4
     Threads/MPI process:                     1

     MPI processes distributed on     1 nodes
     753533 MiB available memory on the printing compute node when the environment starts
 
     Reading input from pw-si-97.in
Warning: card &CELL ignored
Warning: card / ignored

     Current dimensions of program PWSCF are:
     Max number of different atomic species (ntypx) = 10
     Max number of k-points (npk) =  40000
     Max angular momentum in pseudopotentials (lmaxx) =  4

     IMPORTANT: XC functional enforced from input :
     Exchange-correlation= PBE
                           (   1   4   3   4   0   0   0)
     Any further DFT definition will be discarded
     Please, verify this is what you really want


     gamma-point specific algorithms are used
 
     K-points division:     npool     =       2
     R & G space division:  proc/nbgrp/npool/nimage =       2
     Subspace diagonalization in iterative solution of the eigenvalue problem:
     a serial algorithm will be used

     Message from routine divide_et_impera:
     suboptimal parallelization: some nodes have no k-points
 
     Parallelization info
     --------------------
     sticks:   dense  smooth     PW     G-vecs:    dense   smooth      PW
     Min        1929    1929    504                90123    90123   12201
     Max        1932    1932    505                90128    90128   12204
     Sum        3861    3861   1009               180251   180251   24405
 
     Using Slab Decomposition
 


     bravais-lattice index     =            0
     lattice parameter (alat)  =      20.1059  a.u.
     unit-cell volume          =    8127.7205 (a.u.)^3
     number of atoms/cell      =           64
     number of atomic types    =            1
     number of electrons       =       256.00
     number of Kohn-Sham states=          154
     kinetic-energy cutoff     =      30.0000  Ry
     charge density cutoff     =     120.0000  Ry
     scf convergence threshold =      1.0E-06
     mixing beta               =       0.5000
     number of iterations used =            8  plain     mixing
     Exchange-correlation= PBE
                           (   1   4   3   4   0   0   0)

     GPU acceleration is ACTIVE.
     GPU-aware MPI enabled

     Message from routine print_cuda_info:
     High GPU oversubscription detected. Are you sure this is what you want?

     celldm(1)=  20.105872  celldm(2)=   0.000000  celldm(3)=   0.000000
     celldm(4)=   0.000000  celldm(5)=   0.000000  celldm(6)=   0.000000

     crystal axes: (cart. coord. in units of alat)
               a(1) = (   1.000000   0.000000   0.000000 )  
               a(2) = (   0.000000   1.000000   0.000000 )  
               a(3) = (   0.000000   0.000000   1.000000 )  

     reciprocal axes: (cart. coord. in units 2 pi/alat)
               b(1) = (  1.000000  0.000000  0.000000 )  
               b(2) = (  0.000000  1.000000  0.000000 )  
               b(3) = (  0.000000  0.000000  1.000000 )  


     PseudoPot. # 1 for Si read from file:
     /home/ppiaggi/pseudos/Si_ONCV_PBE_sr.upf
     MD5 check sum: 8553c464762ac42b85b1eed164b4d029
     Pseudo is Norm-conserving, Zval =  4.0
     Generated using ONCVPSP code by D. R. Hamann
     Using radial grid of 1510 points,  4 beta functions with: 
                l(1) =   0
                l(2) =   0
                l(3) =   1
                l(4) =   1

     atomic species   valence    mass     pseudopotential
        Si             4.00    28.08500     Si( 1.00)

     No symmetry found



   Cartesian axes

     site n.     atom                  positions (alat units)
         1           Si  tau(   1) = (   0.0700872   0.0947233   0.3736380  )
         2           Si  tau(   2) = (   0.1100160   0.4435750   0.3280150  )
         3           Si  tau(   3) = (   0.3303890   0.3636940   0.6206790  )
         4           Si  tau(   4) = (   0.7661360   0.0224533   0.5390190  )
         5           Si  tau(   5) = (   0.8571750   0.3631900   0.2238880  )
         6           Si  tau(   6) = (   0.0519765   0.8031430   0.2088820  )
         7           Si  tau(   7) = (   0.1967990   0.6283290   0.8087870  )
         8           Si  tau(   8) = (   0.2425540   0.2522650   0.3480610  )
         9           Si  tau(   9) = (   0.2677360   0.8673820   0.2463420  )
        10           Si  tau(  10) = (   0.4241430   0.7379480   0.2092150  )
        11           Si  tau(  11) = (   0.6244670   0.0720462   0.0491569  )
        12           Si  tau(  12) = (   0.7627240   0.3527800   0.5048330  )
        13           Si  tau(  13) = (   0.9299330   0.6673350   0.5421200  )
        14           Si  tau(  14) = (   0.9157920   0.9489060   0.0643376  )
        15           Si  tau(  15) = (   0.0635555   0.5086310   0.6254860  )
        16           Si  tau(  16) = (   0.4841250   0.5474660   0.5116060  )
        17           Si  tau(  17) = (   0.2078190   0.1452750   0.8531420  )
        18           Si  tau(  18) = (   0.1124480   0.8990590   0.5375800  )
        19           Si  tau(  19) = (   0.7600590   0.8198730   0.2040970  )
        20           Si  tau(  20) = (   0.4852730   0.3690330   0.3292360  )
        21           Si  tau(  21) = (   0.9702700   0.4354220   0.8667820  )
        22           Si  tau(  22) = (   0.9042710   0.8289810   0.4090020  )
        23           Si  tau(  23) = (   0.5862750   0.9265030   0.8777060  )
        24           Si  tau(  24) = (   0.2462850   0.0634045   0.1898470  )
        25           Si  tau(  25) = (   0.0552015   0.7667630   0.7523940  )
        26           Si  tau(  26) = (   0.2301740   0.5813040   0.4526170  )
        27           Si  tau(  27) = (   0.7728380   0.7098830   0.7008340  )
        28           Si  tau(  28) = (   0.5044710   0.5740070   0.8624010  )
        29           Si  tau(  29) = (   0.6202900   0.9967520   0.2430220  )
        30           Si  tau(  30) = (   0.6036920   0.7275430   0.3637700  )
        31           Si  tau(  31) = (   0.9363030   0.5951010   0.2595410  )
        32           Si  tau(  32) = (   0.3037180   0.7901660   0.4892750  )
        33           Si  tau(  33) = (   0.5441890   0.7285810   0.0016976  )
        34           Si  tau(  34) = (   0.6476540   0.4463880   0.1914250  )
        35           Si  tau(  35) = (   0.0282923   0.3527780   0.0512926  )
        36           Si  tau(  36) = (   0.0991166   0.1483870   0.0447698  )
        37           Si  tau(  37) = (   0.6365350   0.4973130   0.6571290  )
        38           Si  tau(  38) = (   0.4351310   0.1526780   0.8800390  )
        39           Si  tau(  39) = (   0.7184470   0.6539210   0.0975966  )
        40           Si  tau(  40) = (   0.9757250   0.3059660   0.4516870  )
        41           Si  tau(  41) = (   0.7407230   0.5622610   0.3920380  )
        42           Si  tau(  42) = (   0.6386800   0.3876970   0.9578050  )
        43           Si  tau(  43) = (   0.4701220   0.9000330   0.7044480  )
        44           Si  tau(  44) = (   0.0332192   0.2769940   0.6755290  )
        45           Si  tau(  45) = (   0.4644800   0.9638190   0.3949960  )
        46           Si  tau(  46) = (   0.6429280   0.8393460   0.5790500  )
        47           Si  tau(  47) = (   0.2305280   0.3842610   0.8313200  )
        48           Si  tau(  48) = (   0.2410880   0.9751140   0.6973230  )
        49           Si  tau(  49) = (   0.4194310   0.2036570   0.1296870  )
        50           Si  tau(  50) = (   0.1460330   0.5568960   0.0505175  )
        51           Si  tau(  51) = (   0.7872640   0.9154190   0.8063960  )
        52           Si  tau(  52) = (   0.5068600   0.1069940   0.5868340  )
        53           Si  tau(  53) = (   0.8027110   0.2229120   0.9747470  )
        54           Si  tau(  54) = (   0.7442380   0.1929880   0.7041810  )
        55           Si  tau(  55) = (   0.9531630   0.7083590   0.9811790  )
        56           Si  tau(  56) = (   0.2832720   0.1597810   0.5591170  )
        57           Si  tau(  57) = (   0.3391630   0.5258890   0.2151820  )
        58           Si  tau(  58) = (   0.3813660   0.4072780   0.0080314  )
        59           Si  tau(  59) = (   0.9220270   0.1075960   0.8410890  )
        60           Si  tau(  60) = (   0.3945240   0.6998540   0.6997170  )
        61           Si  tau(  61) = (   0.8573790   0.1268190   0.2624020  )
        62           Si  tau(  62) = (   0.5182250   0.2906160   0.7199500  )
        63           Si  tau(  63) = (   0.7930500   0.5541790   0.8687610  )
        64           Si  tau(  64) = (   0.6396650   0.2012040   0.4066490  )

     number of k points=     1  Fermi-Dirac smearing, width (Ry)=  0.0100
                       cart. coord. in units 2pi/alat
        k(    1) = (   0.0000000   0.0000000   0.0000000), wk =   2.0000000

     Dense  grid:    90126 G-vectors     FFT dimensions: (  72,  72,  72)

     Estimated max dynamical RAM per process >     144.86 MB

     Estimated total dynamical RAM >     557.46 MB

     Initial potential from superposition of free atoms

     starting charge     255.9608, renormalised to     256.0000
     Starting wfcs are  256 randomized atomic wfcs

     total cpu time spent up to now is        5.0 secs

     Self-consistent Calculation

     iteration #  1     ecut=    30.00 Ry     beta= 0.50
     Davidson diagonalization with overlap
     ethr =  1.00E-02,  avg # of iterations =  3.0

     Threshold (ethr) on eigenvalues was too large:
     Diagonalizing with lowered threshold

     Davidson diagonalization with overlap
     ethr =  4.43E-04,  avg # of iterations =  4.0

     total cpu time spent up to now is        5.3 secs

     total energy              =    -501.28398033 Ry
     estimated scf accuracy    <       1.39207164 Ry

     iteration #  2     ecut=    30.00 Ry     beta= 0.50
     Davidson diagonalization with overlap
     ethr =  5.44E-04,  avg # of iterations =  5.0

     total cpu time spent up to now is        5.4 secs

     total energy              =    -500.65810763 Ry
     estimated scf accuracy    <       7.75986756 Ry

     iteration #  3     ecut=    30.00 Ry     beta= 0.50
     Davidson diagonalization with overlap
     ethr =  5.44E-04,  avg # of iterations =  4.0

     total cpu time spent up to now is        5.5 secs

     total energy              =    -501.42070269 Ry
     estimated scf accuracy    <       1.83249564 Ry

     iteration #  4     ecut=    30.00 Ry     beta= 0.50
     Davidson diagonalization with overlap
     ethr =  5.44E-04,  avg # of iterations =  2.0

     total cpu time spent up to now is        5.6 secs

     total energy              =    -501.53142180 Ry
     estimated scf accuracy    <       0.53646722 Ry

     iteration #  5     ecut=    30.00 Ry     beta= 0.50
     Davidson diagonalization with overlap
     ethr =  2.10E-04,  avg # of iterations =  2.0

     total cpu time spent up to now is        5.7 secs

     total energy              =    -501.55647165 Ry
     estimated scf accuracy    <       0.49904659 Ry

     iteration #  6     ecut=    30.00 Ry     beta= 0.50
     Davidson diagonalization with overlap
     ethr =  1.95E-04,  avg # of iterations =  2.0

     total cpu time spent up to now is        5.8 secs

     total energy              =    -501.59963551 Ry
     estimated scf accuracy    <       0.10400568 Ry

     iteration #  7     ecut=    30.00 Ry     beta= 0.50
     Davidson diagonalization with overlap
     ethr =  4.06E-05,  avg # of iterations = 17.0

     total cpu time spent up to now is        6.0 secs

     total energy              =    -501.61064940 Ry
     estimated scf accuracy    <       0.02234926 Ry

     iteration #  8     ecut=    30.00 Ry     beta= 0.50
     Davidson diagonalization with overlap
     ethr =  8.73E-06,  avg # of iterations =  9.0

     total cpu time spent up to now is        6.1 secs

     total energy              =    -501.61302920 Ry
     estimated scf accuracy    <       0.01914122 Ry

     iteration #  9     ecut=    30.00 Ry     beta= 0.50
     Davidson diagonalization with overlap
     ethr =  7.48E-06,  avg # of iterations =  2.0

     total cpu time spent up to now is        6.2 secs

     total energy              =    -501.61450776 Ry
     estimated scf accuracy    <       0.00198825 Ry

     iteration # 10     ecut=    30.00 Ry     beta= 0.50
     Davidson diagonalization with overlap
     ethr =  7.77E-07,  avg # of iterations = 11.0

     total cpu time spent up to now is        6.4 secs

     total energy              =    -501.61481138 Ry
     estimated scf accuracy    <       0.00139637 Ry

     iteration # 11     ecut=    30.00 Ry     beta= 0.50
     Davidson diagonalization with overlap
     ethr =  5.45E-07,  avg # of iterations =  3.0

     total cpu time spent up to now is        6.5 secs

     total energy              =    -501.61492794 Ry
     estimated scf accuracy    <       0.00061255 Ry

     iteration # 12     ecut=    30.00 Ry     beta= 0.50
     Davidson diagonalization with overlap
     ethr =  2.39E-07,  avg # of iterations =  2.0

     total cpu time spent up to now is        6.6 secs

     total energy              =    -501.61498427 Ry
     estimated scf accuracy    <       0.00016632 Ry

     iteration # 13     ecut=    30.00 Ry     beta= 0.50
     Davidson diagonalization with overlap
     ethr =  6.50E-08,  avg # of iterations =  3.0

     total cpu time spent up to now is        6.7 secs

     total energy              =    -501.61499710 Ry
     estimated scf accuracy    <       0.00017844 Ry

     iteration # 14     ecut=    30.00 Ry     beta= 0.50
     Davidson diagonalization with overlap
     ethr =  6.50E-08,  avg # of iterations =  2.0

     total cpu time spent up to now is        6.8 secs

     total energy              =    -501.61500745 Ry
     estimated scf accuracy    <       0.00003532 Ry

     iteration # 15     ecut=    30.00 Ry     beta= 0.50
     Davidson diagonalization with overlap
     ethr =  1.38E-08,  avg # of iterations =  2.0

     total cpu time spent up to now is        6.9 secs

     total energy              =    -501.61501072 Ry
     estimated scf accuracy    <       0.00001750 Ry

     iteration # 16     ecut=    30.00 Ry     beta= 0.50
     Davidson diagonalization with overlap
     ethr =  6.84E-09,  avg # of iterations =  3.0

     total cpu time spent up to now is        7.0 secs

     total energy              =    -501.61501094 Ry
     estimated scf accuracy    <       0.00003761 Ry

     iteration # 17     ecut=    30.00 Ry     beta= 0.50
     Davidson diagonalization with overlap
     ethr =  6.84E-09,  avg # of iterations =  2.0

     total cpu time spent up to now is        7.1 secs

     total energy              =    -501.61501348 Ry
     estimated scf accuracy    <       0.00000251 Ry

     iteration # 18     ecut=    30.00 Ry     beta= 0.50
     Davidson diagonalization with overlap
     ethr =  9.81E-10,  avg # of iterations =  2.0

     total cpu time spent up to now is        7.2 secs

     End of self-consistent calculation

          k = 0.0000 0.0000 0.0000 ( 11324 PWs)   bands (ev):

    -5.4593  -4.5694  -4.5261  -4.3097  -4.1688  -4.0972  -3.9712  -3.5498
    -3.3914  -3.3044  -3.2189  -3.1791  -3.0916  -3.0370  -2.9534  -2.7753
    -2.6904  -2.6053  -2.5058  -2.1791  -2.0882  -2.0189  -1.9602  -1.8793
    -1.6669  -1.5138  -1.0764  -0.9227  -0.8922  -0.7590  -0.6885  -0.5613
    -0.3756  -0.2672  -0.2096  -0.0630  -0.0404   0.0757   0.1125   0.2738
     0.4236   0.4615   0.5248   0.5889   0.6050   0.6733   0.8647   0.8986
     1.1077   1.1315   1.1631   1.2560   1.3358   1.3743   1.4501   1.6653
     1.6853   1.8801   1.9379   1.9859   2.0579   2.1875   2.3195   2.4253
     2.4395   2.5248   2.6917   2.7310   2.7815   2.8278   2.9030   3.0351
     3.0918   3.1619   3.2291   3.2894   3.4011   3.5676   3.6643   3.7200
     3.9930   4.1773   4.2546   4.3702   4.4607   4.5143   4.5431   4.6223
     4.6830   4.7094   4.8258   4.9448   4.9828   5.0192   5.0932   5.1719
     5.2210   5.2535   5.3754   5.4566   5.5379   5.5727   5.6100   5.6302
     5.6767   5.7300   5.7580   5.8423   5.8956   5.9525   6.0343   6.0657
     6.1247   6.1867   6.2522   6.2769   6.2905   6.3140   6.4371   6.5024
     6.6481   6.7277   6.7846   6.8060   6.8489   6.9333   6.9564   7.0309
     7.1037   7.1787   7.3045   7.3263   7.3805   7.4977   7.5690   7.6227
     7.7017   7.8267   7.8454   7.9106   7.9988   8.0128   8.0366   8.1171
     8.2117   8.2442   8.3035   8.3617   8.4551   8.5664   8.6306   8.6576
     8.7255   8.7506

     the Fermi energy is     7.0920 ev

!    total energy              =    -501.61501322 Ry
     estimated scf accuracy    <       0.00000097 Ry
     smearing contrib. (-TS)   =      -0.13288215 Ry
     internal energy E=F+TS    =    -501.48213107 Ry

     The total energy is F=E-TS. E is the sum of the following terms:
     one-electron contribution =     171.90574523 Ry
     hartree contribution      =      32.19792365 Ry
     xc contribution           =    -151.51700179 Ry
     ewald contribution        =    -554.06879816 Ry

     convergence has been achieved in  18 iterations

     Forces acting on atoms (cartesian axes, Ry/au):

     atom    1 type  1   force =    -0.00306345   -0.00479403    0.01512566
     atom    2 type  1   force =     0.00284312    0.00559040   -0.01593804
     atom    3 type  1   force =    -0.00218483    0.05091500    0.01799699
     atom    4 type  1   force =    -0.00447792    0.00050557    0.00365763
     atom    5 type  1   force =     0.00963569   -0.02903590   -0.02654734
     atom    6 type  1   force =    -0.01849322   -0.00466678   -0.00334870
     atom    7 type  1   force =     0.05208751   -0.06049370    0.00510985
     atom    8 type  1   force =     0.02089690   -0.00473163    0.00596440
     atom    9 type  1   force =    -0.04663702   -0.01724824    0.06352715
     atom   10 type  1   force =     0.08503989   -0.07034206   -0.03688965
     atom   11 type  1   force =    -0.00539232    0.05035886   -0.05818496
     atom   12 type  1   force =     0.01294367    0.02823529    0.02260324
     atom   13 type  1   force =    -0.02195948   -0.03211761    0.05265210
     atom   14 type  1   force =    -0.00341261   -0.01363848    0.02073889
     atom   15 type  1   force =     0.03677557    0.02084155    0.01334534
     atom   16 type  1   force =    -0.04821203    0.00537546   -0.01229249
     atom   17 type  1   force =     0.00541432    0.01221038   -0.02632320
     atom   18 type  1   force =    -0.03546809    0.00649243   -0.02508185
     atom   19 type  1   force =     0.03643697    0.10490848    0.06664609
     atom   20 type  1   force =    -0.02158241   -0.01070354   -0.02119988
     atom   21 type  1   force =     0.02642369   -0.01535142   -0.08547817
     atom   22 type  1   force =     0.01537172    0.05428467   -0.04055900
     atom   23 type  1   force =    -0.00801018   -0.00384276    0.08781168
     atom   24 type  1   force =    -0.01043489    0.08436067   -0.00156109
     atom   25 type  1   force =    -0.05709549    0.04916018   -0.02059214
     atom   26 type  1   force =     0.01931486   -0.01516413    0.03087756
     atom   27 type  1   force =     0.01364747   -0.02314416    0.00544545
     atom   28 type  1   force =    -0.01905958   -0.05313341   -0.03084313
     atom   29 type  1   force =     0.03063881   -0.00203151    0.05578106
     atom   30 type  1   force =    -0.04708152    0.02720974    0.02491609
     atom   31 type  1   force =     0.02053891    0.00270402   -0.00667196
     atom   32 type  1   force =    -0.00237068    0.00312128   -0.02538367
     atom   33 type  1   force =    -0.02999336    0.06145132    0.02185786
     atom   34 type  1   force =     0.02108813    0.01046579   -0.02608130
     atom   35 type  1   force =    -0.00390528    0.01600155    0.06900513
     atom   36 type  1   force =    -0.01739776   -0.04770609   -0.00936160
     atom   37 type  1   force =    -0.00221002   -0.00865996    0.03020220
     atom   38 type  1   force =    -0.00331710    0.00512973    0.01825988
     atom   39 type  1   force =     0.02713411   -0.11274349   -0.04565289
     atom   40 type  1   force =    -0.00573127   -0.01446653    0.00307808
     atom   41 type  1   force =     0.03692486   -0.03851990    0.00851806
     atom   42 type  1   force =     0.00632120    0.00558202    0.00080362
     atom   43 type  1   force =    -0.04482825    0.05022291   -0.03038459
     atom   44 type  1   force =     0.01127166    0.00259455    0.03226560
     atom   45 type  1   force =    -0.02109526   -0.01918961    0.02434283
     atom   46 type  1   force =    -0.01624675   -0.00697553   -0.05053327
     atom   47 type  1   force =     0.00656562   -0.01307537   -0.01169257
     atom   48 type  1   force =     0.02102844    0.02248151    0.02627523
     atom   49 type  1   force =     0.02071799    0.01805232   -0.01597858
     atom   50 type  1   force =    -0.00817542    0.00630678    0.00191063
     atom   51 type  1   force =     0.05321656    0.00733888   -0.01093359
     atom   52 type  1   force =     0.01037576   -0.03429969   -0.03380483
     atom   53 type  1   force =    -0.05327425    0.02054953    0.04481386
     atom   54 type  1   force =    -0.00814630   -0.00626083   -0.02229483
     atom   55 type  1   force =     0.00815922    0.00078238   -0.00113231
     atom   56 type  1   force =    -0.01020648   -0.01333597   -0.03089407
     atom   57 type  1   force =    -0.00375580   -0.00854215   -0.03088995
     atom   58 type  1   force =     0.00818831    0.00897136    0.00123352
     atom   59 type  1   force =     0.00555598   -0.02860017   -0.03048785
     atom   60 type  1   force =    -0.02630374   -0.05220218   -0.01821446
     atom   61 type  1   force =    -0.00687503    0.01220824   -0.00121790
     atom   62 type  1   force =     0.04744545    0.00718076    0.03215216
     atom   63 type  1   force =    -0.03710635    0.03337197    0.01438396
     atom   64 type  1   force =    -0.01849827   -0.02994877   -0.01485194

     Total force =     0.441060     Total SCF correction =     0.001976


     Computing stress (Cartesian axis) and pressure

          total   stress  (Ry/bohr**3)                   (kbar)     P=      -14.97
  -0.00003756  -0.00004240   0.00009434           -5.53       -6.24       13.88
  -0.00004240  -0.00009403   0.00005104           -6.24      -13.83        7.51
   0.00009434   0.00005104  -0.00017378           13.88        7.51      -25.56

 
     init_run     :      1.07s CPU      4.95s WALL (       1 calls)
     electrons    :      2.01s CPU      2.15s WALL (       1 calls)
     forces       :      0.04s CPU      0.04s WALL (       1 calls)
     stress       :      0.15s CPU      0.16s WALL (       1 calls)

     Called by init_run:
     wfcinit      :      0.53s CPU      4.23s WALL (       1 calls)
                                        4.23s GPU  (       1 calls)
     potinit      :      0.06s CPU      0.15s WALL (       1 calls)
     hinit0       :      0.47s CPU      0.50s WALL (       1 calls)

     Called by electrons:
     c_bands      :      1.22s CPU      1.29s WALL (      19 calls)
     sum_band     :      0.38s CPU      0.43s WALL (      19 calls)
     v_of_rho     :      0.19s CPU      0.29s WALL (      19 calls)
     mix_rho      :      0.18s CPU      0.19s WALL (      19 calls)

     Called by c_bands:
     init_us_2    :      0.07s CPU      0.07s WALL (      39 calls)
     init_us_2:gp :      0.07s CPU      0.07s WALL (      39 calls)
     regterg      :      1.05s CPU      1.11s WALL (      19 calls)

     Called by *egterg:
     rdiaghg      :      0.44s CPU      1.20s WALL (      98 calls)
                                        1.18s GPU  (      98 calls)
     h_psi        :      0.95s CPU      3.93s WALL (     100 calls)
                                        3.92s GPU  (     100 calls)
     g_psi        :      0.00s CPU      0.00s WALL (      80 calls)
                                        0.00s GPU  (      80 calls)

     Called by h_psi:
     h_psi:calbec :      0.50s CPU      3.40s WALL (     100 calls)
                                        3.40s GPU  (     100 calls)
     vloc_psi     :      0.39s CPU      0.46s WALL (     100 calls)
                                        0.46s GPU  (     100 calls)
     add_vuspsi   :      0.04s CPU      0.06s WALL (     100 calls)
                                        0.06s GPU  (     100 calls)

     General routines
     calbec       :      0.50s CPU      3.40s WALL (     105 calls)
     fft          :      0.64s CPU      0.76s WALL (     159 calls)
                                        0.14s GPU  (     101 calls)
     ffts         :      0.05s CPU      0.05s WALL (      19 calls)
     fftw         :      0.47s CPU      0.62s WALL (    2031 calls)
                                        0.54s GPU  (    2031 calls)
 
     Parallel routines
 
     PWSCF        :      3.31s CPU      7.39s WALL

 
   This run was terminated on:  10:53:20  10May2023            

=------------------------------------------------------------------------------=
   JOB DONE.
=------------------------------------------------------------------------------=
