An instance of this daemon is already running
An instance of this daemon is already running

     Program PWSCF v.7.1 starts on 10May2023 at 10:45:46 

     This program is part of the open-source Quantum ESPRESSO suite
     for quantum simulation of materials; please cite
         "P. Giannozzi et al., J. Phys.:Condens. Matter 21 395502 (2009);
         "P. Giannozzi et al., J. Phys.:Condens. Matter 29 465901 (2017);
         "P. Giannozzi et al., J. Chem. Phys. 152 154105 (2020);
          URL http://www.quantum-espresso.org", 
     in publications or presentations arising from this work. More details at
     http://www.quantum-espresso.org/quote

     Parallel version (MPI & OpenMP), running on       4 processor cores
     Number of MPI processes:                 4
     Threads/MPI process:                     1

     MPI processes distributed on     1 nodes
     753565 MiB available memory on the printing compute node when the environment starts
 
     Reading input from pw-si-51.in
Warning: card &CELL ignored
Warning: card / ignored

     Current dimensions of program PWSCF are:
     Max number of different atomic species (ntypx) = 10
     Max number of k-points (npk) =  40000
     Max angular momentum in pseudopotentials (lmaxx) =  4

     IMPORTANT: XC functional enforced from input :
     Exchange-correlation= PBE
                           (   1   4   3   4   0   0   0)
     Any further DFT definition will be discarded
     Please, verify this is what you really want


     gamma-point specific algorithms are used
 
     K-points division:     npool     =       2
     R & G space division:  proc/nbgrp/npool/nimage =       2
     Subspace diagonalization in iterative solution of the eigenvalue problem:
     a serial algorithm will be used

     Message from routine divide_et_impera:
     suboptimal parallelization: some nodes have no k-points
 
     Parallelization info
     --------------------
     sticks:   dense  smooth     PW     G-vecs:    dense   smooth      PW
     Min        1900    1900    501                88285    88285   11935
     Max        1901    1901    504                88288    88288   11936
     Sum        3801    3801   1005               176573   176573   23871
 
     Using Slab Decomposition
 


     bravais-lattice index     =            0
     lattice parameter (alat)  =      19.9588  a.u.
     unit-cell volume          =    7950.6642 (a.u.)^3
     number of atoms/cell      =           64
     number of atomic types    =            1
     number of electrons       =       256.00
     number of Kohn-Sham states=          154
     kinetic-energy cutoff     =      30.0000  Ry
     charge density cutoff     =     120.0000  Ry
     scf convergence threshold =      1.0E-06
     mixing beta               =       0.5000
     number of iterations used =            8  plain     mixing
     Exchange-correlation= PBE
                           (   1   4   3   4   0   0   0)

     GPU acceleration is ACTIVE.
     GPU-aware MPI enabled

     Message from routine print_cuda_info:
     High GPU oversubscription detected. Are you sure this is what you want?

     celldm(1)=  19.958802  celldm(2)=   0.000000  celldm(3)=   0.000000
     celldm(4)=   0.000000  celldm(5)=   0.000000  celldm(6)=   0.000000

     crystal axes: (cart. coord. in units of alat)
               a(1) = (   1.000000   0.000000   0.000000 )  
               a(2) = (   0.000000   1.000000   0.000000 )  
               a(3) = (   0.000000   0.000000   1.000000 )  

     reciprocal axes: (cart. coord. in units 2 pi/alat)
               b(1) = (  1.000000  0.000000  0.000000 )  
               b(2) = (  0.000000  1.000000  0.000000 )  
               b(3) = (  0.000000  0.000000  1.000000 )  


     PseudoPot. # 1 for Si read from file:
     /home/ppiaggi/pseudos/Si_ONCV_PBE_sr.upf
     MD5 check sum: 8553c464762ac42b85b1eed164b4d029
     Pseudo is Norm-conserving, Zval =  4.0
     Generated using ONCVPSP code by D. R. Hamann
     Using radial grid of 1510 points,  4 beta functions with: 
                l(1) =   0
                l(2) =   0
                l(3) =   1
                l(4) =   1

     atomic species   valence    mass     pseudopotential
        Si             4.00    28.08500     Si( 1.00)

     No symmetry found



   Cartesian axes

     site n.     atom                  positions (alat units)
         1           Si  tau(   1) = (   0.5241930   0.9022230   0.6577280  )
         2           Si  tau(   2) = (   0.7131520   0.1920890   0.8852090  )
         3           Si  tau(   3) = (   0.7821280   0.4937730   0.0690604  )
         4           Si  tau(   4) = (   0.3148000   0.1258370   0.6627980  )
         5           Si  tau(   5) = (   0.9729690   0.7850100   0.5047400  )
         6           Si  tau(   6) = (   0.2989840   0.5987270   0.7194700  )
         7           Si  tau(   7) = (   0.7122340   0.0615581   0.7219880  )
         8           Si  tau(   8) = (   0.9053690   0.9907060   0.6201080  )
         9           Si  tau(   9) = (   0.1433940   0.8254320   0.7840990  )
        10           Si  tau(  10) = (   0.6046760   0.3298940   0.6760380  )
        11           Si  tau(  11) = (   0.1579140   0.1446320   0.8777600  )
        12           Si  tau(  12) = (   0.5727030   0.1630380   0.3574630  )
        13           Si  tau(  13) = (   0.3011570   0.0356867   0.0978799  )
        14           Si  tau(  14) = (   0.0271184   0.0343171   0.2890570  )
        15           Si  tau(  15) = (   0.2252110   0.1265010   0.4447490  )
        16           Si  tau(  16) = (   0.8967650   0.9500530   0.0340096  )
        17           Si  tau(  17) = (   0.9820580   0.2747010   0.1998880  )
        18           Si  tau(  18) = (   0.2799010   0.8262260   0.9623160  )
        19           Si  tau(  19) = (   0.5261000   0.8418760   0.0593024  )
        20           Si  tau(  20) = (   0.7026960   0.8865580   0.8778110  )
        21           Si  tau(  21) = (   0.4463710   0.0079384   0.8537700  )
        22           Si  tau(  22) = (   0.4611830   0.4910420   0.5708410  )
        23           Si  tau(  23) = (   0.3889490   0.0152196   0.2971280  )
        24           Si  tau(  24) = (   0.7112030   0.7563690   0.3110030  )
        25           Si  tau(  25) = (   0.0126189   0.4476200   0.9913200  )
        26           Si  tau(  26) = (   0.1966280   0.3323540   0.7014440  )
        27           Si  tau(  27) = (   0.0963167   0.8754560   0.1489760  )
        28           Si  tau(  28) = (   0.0483842   0.4170300   0.3767580  )
        29           Si  tau(  29) = (   0.9724250   0.3840200   0.6537930  )
        30           Si  tau(  30) = (   0.2776760   0.8747980   0.6253670  )
        31           Si  tau(  31) = (   0.1950640   0.8371030   0.4076510  )
        32           Si  tau(  32) = (   0.7659460   0.6982180   0.7872550  )
        33           Si  tau(  33) = (   0.5131230   0.1547920   0.5804430  )
        34           Si  tau(  34) = (   0.9440170   0.2602500   0.8729640  )
        35           Si  tau(  35) = (   0.8065770   0.9704040   0.3942740  )
        36           Si  tau(  36) = (   0.0082677   0.1932850   0.5294590  )
        37           Si  tau(  37) = (   0.2740110   0.6163660   0.0452257  )
        38           Si  tau(  38) = (   0.6907770   0.4926660   0.3316680  )
        39           Si  tau(  39) = (   0.0127199   0.9810410   0.8397500  )
        40           Si  tau(  40) = (   0.5293060   0.2030130   0.9999390  )
        41           Si  tau(  41) = (   0.5483000   0.7065360   0.5467150  )
        42           Si  tau(  42) = (   0.4627740   0.7183570   0.8113020  )
        43           Si  tau(  43) = (   0.6562370   0.9973460   0.2023560  )
        44           Si  tau(  44) = (   0.2032920   0.2379080   0.0969850  )
        45           Si  tau(  45) = (   0.2339850   0.4768050   0.5017610  )
        46           Si  tau(  46) = (   0.0650331   0.6577400   0.1455490  )
        47           Si  tau(  47) = (   0.8178520   0.2181600   0.3879250  )
        48           Si  tau(  48) = (   0.7395640   0.6483750   0.5434880  )
        49           Si  tau(  49) = (   0.7783230   0.7318100   0.1061750  )
        50           Si  tau(  50) = (   0.4554160   0.3738990   0.8569420  )
        51           Si  tau(  51) = (   0.0461122   0.6357030   0.6510780  )
        52           Si  tau(  52) = (   0.9516010   0.6961390   0.8953620  )
        53           Si  tau(  53) = (   0.9357200   0.6099090   0.3296610  )
        54           Si  tau(  54) = (   0.2438740   0.4563890   0.8843620  )
        55           Si  tau(  55) = (   0.5117620   0.6329660   0.0922801  )
        56           Si  tau(  56) = (   0.2310770   0.6311170   0.3166940  )
        57           Si  tau(  57) = (   0.4564060   0.7890560   0.3420270  )
        58           Si  tau(  58) = (   0.8191680   0.1424300   0.1087620  )
        59           Si  tau(  59) = (   0.7787560   0.4125380   0.5255250  )
        60           Si  tau(  60) = (   0.6606620   0.3061190   0.1635360  )
        61           Si  tau(  61) = (   0.4633100   0.5579600   0.3062710  )
        62           Si  tau(  62) = (   0.6184740   0.5552090   0.8791020  )
        63           Si  tau(  63) = (   0.3756710   0.3045350   0.3720420  )
        64           Si  tau(  64) = (   0.3837750   0.3640900   0.1314930  )

     number of k points=     1  Fermi-Dirac smearing, width (Ry)=  0.0100
                       cart. coord. in units 2pi/alat
        k(    1) = (   0.0000000   0.0000000   0.0000000), wk =   2.0000000

     Dense  grid:    88287 G-vectors     FFT dimensions: (  72,  72,  72)

     Estimated max dynamical RAM per process >     142.08 MB

     Estimated total dynamical RAM >     546.75 MB

     Initial potential from superposition of free atoms

     starting charge     255.9608, renormalised to     256.0000
     Starting wfcs are  256 randomized atomic wfcs

     total cpu time spent up to now is        5.1 secs

     Self-consistent Calculation

     iteration #  1     ecut=    30.00 Ry     beta= 0.50
     Davidson diagonalization with overlap
     ethr =  1.00E-02,  avg # of iterations =  3.0

     Threshold (ethr) on eigenvalues was too large:
     Diagonalizing with lowered threshold

     Davidson diagonalization with overlap
     ethr =  3.46E-04,  avg # of iterations =  5.0

     total cpu time spent up to now is        5.3 secs

     total energy              =    -501.36252098 Ry
     estimated scf accuracy    <       1.07876446 Ry

     iteration #  2     ecut=    30.00 Ry     beta= 0.50
     Davidson diagonalization with overlap
     ethr =  4.21E-04,  avg # of iterations =  3.0

     total cpu time spent up to now is        5.5 secs

     total energy              =    -501.13417624 Ry
     estimated scf accuracy    <       2.03719963 Ry

     iteration #  3     ecut=    30.00 Ry     beta= 0.50
     Davidson diagonalization with overlap
     ethr =  4.21E-04,  avg # of iterations =  3.0

     total cpu time spent up to now is        5.6 secs

     total energy              =    -501.26827023 Ry
     estimated scf accuracy    <       2.92731239 Ry

     iteration #  4     ecut=    30.00 Ry     beta= 0.50
     Davidson diagonalization with overlap
     ethr =  4.21E-04,  avg # of iterations =  2.0

     total cpu time spent up to now is        5.6 secs

     total energy              =    -501.46176946 Ry
     estimated scf accuracy    <       0.59635789 Ry

     iteration #  5     ecut=    30.00 Ry     beta= 0.50
     Davidson diagonalization with overlap
     ethr =  2.33E-04,  avg # of iterations =  2.0

     total cpu time spent up to now is        5.7 secs

     total energy              =    -501.50773454 Ry
     estimated scf accuracy    <       0.18868713 Ry

     iteration #  6     ecut=    30.00 Ry     beta= 0.50
     Davidson diagonalization with overlap
     ethr =  7.37E-05,  avg # of iterations =  2.0

     total cpu time spent up to now is        5.8 secs

     total energy              =    -501.52854535 Ry
     estimated scf accuracy    <       0.13392316 Ry

     iteration #  7     ecut=    30.00 Ry     beta= 0.50
     Davidson diagonalization with overlap
     ethr =  5.23E-05,  avg # of iterations =  1.0

     total cpu time spent up to now is        5.9 secs

     total energy              =    -501.53909391 Ry
     estimated scf accuracy    <       0.00916946 Ry

     iteration #  8     ecut=    30.00 Ry     beta= 0.50
     Davidson diagonalization with overlap
     ethr =  3.58E-06,  avg # of iterations = 11.0

     total cpu time spent up to now is        6.1 secs

     total energy              =    -501.53977002 Ry
     estimated scf accuracy    <       0.02061158 Ry

     iteration #  9     ecut=    30.00 Ry     beta= 0.50
     Davidson diagonalization with overlap
     ethr =  3.58E-06,  avg # of iterations =  2.0

     total cpu time spent up to now is        6.2 secs

     total energy              =    -501.54151082 Ry
     estimated scf accuracy    <       0.00226419 Ry

     iteration # 10     ecut=    30.00 Ry     beta= 0.50
     Davidson diagonalization with overlap
     ethr =  8.84E-07,  avg # of iterations =  2.0

     total cpu time spent up to now is        6.3 secs

     total energy              =    -501.54169145 Ry
     estimated scf accuracy    <       0.00084936 Ry

     iteration # 11     ecut=    30.00 Ry     beta= 0.50
     Davidson diagonalization with overlap
     ethr =  3.32E-07,  avg # of iterations =  2.0

     total cpu time spent up to now is        6.4 secs

     total energy              =    -501.54173656 Ry
     estimated scf accuracy    <       0.00074611 Ry

     iteration # 12     ecut=    30.00 Ry     beta= 0.50
     Davidson diagonalization with overlap
     ethr =  2.91E-07,  avg # of iterations =  2.0

     total cpu time spent up to now is        6.5 secs

     total energy              =    -501.54179562 Ry
     estimated scf accuracy    <       0.00015347 Ry

     iteration # 13     ecut=    30.00 Ry     beta= 0.50
     Davidson diagonalization with overlap
     ethr =  5.99E-08,  avg # of iterations =  2.0

     total cpu time spent up to now is        6.6 secs

     total energy              =    -501.54180606 Ry
     estimated scf accuracy    <       0.00013608 Ry

     iteration # 14     ecut=    30.00 Ry     beta= 0.50
     Davidson diagonalization with overlap
     ethr =  5.32E-08,  avg # of iterations =  1.0

     total cpu time spent up to now is        6.6 secs

     total energy              =    -501.54181623 Ry
     estimated scf accuracy    <       0.00002690 Ry

     iteration # 15     ecut=    30.00 Ry     beta= 0.50
     Davidson diagonalization with overlap
     ethr =  1.05E-08,  avg # of iterations =  2.0

     total cpu time spent up to now is        6.7 secs

     total energy              =    -501.54181775 Ry
     estimated scf accuracy    <       0.00001023 Ry

     iteration # 16     ecut=    30.00 Ry     beta= 0.50
     Davidson diagonalization with overlap
     ethr =  4.00E-09,  avg # of iterations =  3.0

     total cpu time spent up to now is        6.8 secs

     total energy              =    -501.54181911 Ry
     estimated scf accuracy    <       0.00001174 Ry

     iteration # 17     ecut=    30.00 Ry     beta= 0.50
     Davidson diagonalization with overlap
     ethr =  4.00E-09,  avg # of iterations =  2.0

     total cpu time spent up to now is        6.9 secs

     total energy              =    -501.54181952 Ry
     estimated scf accuracy    <       0.00000587 Ry

     iteration # 18     ecut=    30.00 Ry     beta= 0.50
     Davidson diagonalization with overlap
     ethr =  2.29E-09,  avg # of iterations =  2.0

     total cpu time spent up to now is        7.0 secs

     End of self-consistent calculation

          k = 0.0000 0.0000 0.0000 ( 11060 PWs)   bands (ev):

    -5.2342  -4.2529  -4.1898  -4.0878  -4.0392  -3.8378  -3.7162  -3.2106
    -3.1221  -3.0513  -2.9706  -2.8979  -2.8591  -2.7486  -2.6865  -2.6428
    -2.4671  -2.3154  -2.2127  -1.9220  -1.7524  -1.6907  -1.6309  -1.5557
    -1.5232  -1.3025  -1.0170  -0.7789  -0.6245  -0.5037  -0.4318  -0.2454
    -0.1899   0.1362   0.1594   0.2622   0.2729   0.3926   0.4519   0.5742
     0.6744   0.7066   0.7266   0.7801   0.9426   0.9869   1.0566   1.1534
     1.1969   1.2781   1.3971   1.4410   1.6308   1.6827   1.7916   1.9573
     1.9859   2.0356   2.2084   2.2661   2.3410   2.4402   2.5593   2.6242
     2.7166   2.8497   2.9139   2.9383   3.0243   3.1429   3.1651   3.1991
     3.2538   3.3658   3.4391   3.4981   3.5335   3.6694   3.7875   3.9389
     4.0361   4.3772   4.4286   4.5241   4.6268   4.6971   4.7610   4.8591
     4.9091   4.9654   5.0747   5.1125   5.2810   5.3204   5.3766   5.4293
     5.4751   5.5160   5.6497   5.6759   5.7337   5.7939   5.8451   5.9451
     5.9969   6.0608   6.1135   6.1762   6.2009   6.3077   6.3367   6.4165
     6.5132   6.5715   6.6289   6.6357   6.7048   6.7679   6.8900   6.9239
     6.9380   7.0068   7.0878   7.1740   7.2263   7.2727   7.3170   7.3530
     7.3800   7.4647   7.5466   7.6671   7.7360   7.7771   7.7957   7.8604
     7.8996   7.9855   8.0736   8.1057   8.1702   8.2145   8.3215   8.3553
     8.4242   8.5123   8.5527   8.5930   8.6885   8.7526   8.7795   8.8716
     8.9011   8.9637

     the Fermi energy is     7.4063 ev

!    total energy              =    -501.54181951 Ry
     estimated scf accuracy    <       0.00000077 Ry
     smearing contrib. (-TS)   =      -0.14852316 Ry
     internal energy E=F+TS    =    -501.39329635 Ry

     The total energy is F=E-TS. E is the sum of the following terms:
     one-electron contribution =     198.07114504 Ry
     hartree contribution      =      21.59447967 Ry
     xc contribution           =    -151.49353370 Ry
     ewald contribution        =    -569.56538735 Ry

     convergence has been achieved in  18 iterations

     Forces acting on atoms (cartesian axes, Ry/au):

     atom    1 type  1   force =    -0.01868579   -0.00001203    0.03094088
     atom    2 type  1   force =     0.05818621    0.05450391    0.02197015
     atom    3 type  1   force =    -0.00637936    0.00353022   -0.00858436
     atom    4 type  1   force =    -0.03806057   -0.01534289    0.01357914
     atom    5 type  1   force =    -0.00461153    0.00018882   -0.02254090
     atom    6 type  1   force =    -0.02249452    0.00274675   -0.03158555
     atom    7 type  1   force =    -0.01282880   -0.05730122   -0.06378378
     atom    8 type  1   force =     0.00580048    0.02207658   -0.00152472
     atom    9 type  1   force =    -0.01295551   -0.07567486    0.02594798
     atom   10 type  1   force =    -0.00130920    0.02951456    0.01522707
     atom   11 type  1   force =    -0.01110966    0.04393838   -0.00794954
     atom   12 type  1   force =    -0.01572512   -0.00319112   -0.00986974
     atom   13 type  1   force =    -0.00868521   -0.02697712   -0.01482285
     atom   14 type  1   force =    -0.01445196    0.02960698    0.03058361
     atom   15 type  1   force =    -0.02062283    0.00070750    0.00589738
     atom   16 type  1   force =     0.00281917   -0.04257518   -0.02339061
     atom   17 type  1   force =     0.03609675   -0.01501843    0.00818663
     atom   18 type  1   force =     0.04013788    0.02598218   -0.01587993
     atom   19 type  1   force =     0.03737302    0.08741538   -0.02168905
     atom   20 type  1   force =    -0.02355009    0.01909381    0.03268139
     atom   21 type  1   force =    -0.01725346   -0.01496322    0.03034419
     atom   22 type  1   force =    -0.01777426    0.01484782   -0.01056130
     atom   23 type  1   force =     0.00927454   -0.03231086    0.02389476
     atom   24 type  1   force =    -0.02044640    0.02998310    0.03544477
     atom   25 type  1   force =    -0.01369953    0.01788029    0.00836578
     atom   26 type  1   force =    -0.00562139   -0.02128420   -0.00293231
     atom   27 type  1   force =     0.01820607    0.03606675   -0.01220453
     atom   28 type  1   force =    -0.00227273   -0.00886226    0.00696303
     atom   29 type  1   force =     0.00761728    0.00216769    0.01494360
     atom   30 type  1   force =     0.04757360    0.02294788   -0.05242934
     atom   31 type  1   force =    -0.00445226    0.01558138    0.01756692
     atom   32 type  1   force =    -0.02175212   -0.01642638   -0.05366019
     atom   33 type  1   force =     0.04968105   -0.02361435   -0.02999198
     atom   34 type  1   force =    -0.00732629    0.02388465   -0.02797477
     atom   35 type  1   force =     0.01707825   -0.00610345   -0.01924845
     atom   36 type  1   force =    -0.00478400   -0.03244505   -0.01077554
     atom   37 type  1   force =     0.01366494   -0.00670195    0.01460142
     atom   38 type  1   force =    -0.00642384   -0.00210423   -0.02454577
     atom   39 type  1   force =    -0.04068086    0.02850669    0.00270241
     atom   40 type  1   force =    -0.04375857    0.00098445    0.00650989
     atom   41 type  1   force =    -0.11545974    0.03157295   -0.02757210
     atom   42 type  1   force =    -0.00212199    0.03106699    0.01389576
     atom   43 type  1   force =    -0.01873950   -0.01194668    0.00490726
     atom   44 type  1   force =    -0.03907705   -0.02290654   -0.00734845
     atom   45 type  1   force =     0.00465138   -0.00925101   -0.00280206
     atom   46 type  1   force =     0.01807435   -0.03273306   -0.01086947
     atom   47 type  1   force =     0.01376124    0.00526636   -0.00205845
     atom   48 type  1   force =     0.13319105   -0.03072085    0.00777291
     atom   49 type  1   force =     0.01452135    0.01069869   -0.02011782
     atom   50 type  1   force =     0.04427701    0.01283726   -0.00386724
     atom   51 type  1   force =     0.03631596   -0.02289435    0.03925457
     atom   52 type  1   force =     0.04878656   -0.02438336    0.01781423
     atom   53 type  1   force =    -0.01870342    0.00497802   -0.00202530
     atom   54 type  1   force =    -0.02207530   -0.00393962    0.01118985
     atom   55 type  1   force =    -0.01087430   -0.05461299   -0.00238162
     atom   56 type  1   force =     0.00998103   -0.00435777    0.01227780
     atom   57 type  1   force =     0.02612518    0.00849364    0.00616422
     atom   58 type  1   force =    -0.00924863    0.01090450   -0.01323326
     atom   59 type  1   force =    -0.02648408    0.00143265    0.02158427
     atom   60 type  1   force =     0.00658826    0.01882640    0.03206653
     atom   61 type  1   force =     0.00429073   -0.01676744   -0.02229775
     atom   62 type  1   force =    -0.03320288   -0.03096734    0.04976235
     atom   63 type  1   force =    -0.00891615    0.00475072   -0.01468192
     atom   64 type  1   force =     0.01854558    0.01340587    0.03215987

     Total force =     0.385177     Total SCF correction =     0.001779


     Computing stress (Cartesian axis) and pressure

          total   stress  (Ry/bohr**3)                   (kbar)     P=      -22.60
  -0.00015420  -0.00007112   0.00002118          -22.68      -10.46        3.12
  -0.00007112  -0.00017248   0.00006522          -10.46      -25.37        9.59
   0.00002118   0.00006522  -0.00013428            3.12        9.59      -19.75

 
     init_run     :      1.10s CPU      5.00s WALL (       1 calls)
     electrons    :      1.81s CPU      1.94s WALL (       1 calls)
     forces       :      0.04s CPU      0.04s WALL (       1 calls)
     stress       :      0.15s CPU      0.15s WALL (       1 calls)

     Called by init_run:
     wfcinit      :      0.55s CPU      4.29s WALL (       1 calls)
                                        4.29s GPU  (       1 calls)
     potinit      :      0.05s CPU      0.14s WALL (       1 calls)
     hinit0       :      0.47s CPU      0.50s WALL (       1 calls)

     Called by electrons:
     c_bands      :      1.04s CPU      1.10s WALL (      19 calls)
     sum_band     :      0.37s CPU      0.41s WALL (      19 calls)
     v_of_rho     :      0.18s CPU      0.28s WALL (      19 calls)
     mix_rho      :      0.18s CPU      0.19s WALL (      19 calls)

     Called by c_bands:
     init_us_2    :      0.07s CPU      0.07s WALL (      39 calls)
     init_us_2:gp :      0.07s CPU      0.07s WALL (      39 calls)
     regterg      :      0.88s CPU      0.93s WALL (      19 calls)

     Called by *egterg:
     rdiaghg      :      0.34s CPU      1.11s WALL (      70 calls)
                                        1.10s GPU  (      70 calls)
     h_psi        :      0.93s CPU      3.93s WALL (      72 calls)
                                        3.92s GPU  (      72 calls)
     g_psi        :      0.00s CPU      0.00s WALL (      52 calls)
                                        0.00s GPU  (      52 calls)

     Called by h_psi:
     h_psi:calbec :      0.52s CPU      3.44s WALL (      72 calls)
                                        3.44s GPU  (      72 calls)
     vloc_psi     :      0.37s CPU      0.43s WALL (      72 calls)
                                        0.43s GPU  (      72 calls)
     add_vuspsi   :      0.03s CPU      0.04s WALL (      72 calls)
                                        0.04s GPU  (      72 calls)

     General routines
     calbec       :      0.52s CPU      3.44s WALL (      77 calls)
     fft          :      0.62s CPU      0.75s WALL (     159 calls)
                                        0.13s GPU  (     101 calls)
     ffts         :      0.05s CPU      0.05s WALL (      19 calls)
     fftw         :      0.45s CPU      0.59s WALL (    1971 calls)
                                        0.51s GPU  (    1971 calls)
 
     Parallel routines
 
     PWSCF        :      3.14s CPU      7.22s WALL

 
   This run was terminated on:  10:45:53  10May2023            

=------------------------------------------------------------------------------=
   JOB DONE.
=------------------------------------------------------------------------------=
