An instance of this daemon is already running

     Program PWSCF v.7.1 starts on 10May2023 at 10:39:56 

     This program is part of the open-source Quantum ESPRESSO suite
     for quantum simulation of materials; please cite
         "P. Giannozzi et al., J. Phys.:Condens. Matter 21 395502 (2009);
         "P. Giannozzi et al., J. Phys.:Condens. Matter 29 465901 (2017);
         "P. Giannozzi et al., J. Chem. Phys. 152 154105 (2020);
          URL http://www.quantum-espresso.org", 
     in publications or presentations arising from this work. More details at
     http://www.quantum-espresso.org/quote

     Parallel version (MPI & OpenMP), running on       4 processor cores
     Number of MPI processes:                 4
     Threads/MPI process:                     1

     MPI processes distributed on     1 nodes
     753561 MiB available memory on the printing compute node when the environment starts
 
     Reading input from pw-si-15.in
Warning: card &CELL ignored
Warning: card / ignored

     Current dimensions of program PWSCF are:
     Max number of different atomic species (ntypx) = 10
     Max number of k-points (npk) =  40000
     Max angular momentum in pseudopotentials (lmaxx) =  4

     IMPORTANT: XC functional enforced from input :
     Exchange-correlation= PBE
                           (   1   4   3   4   0   0   0)
     Any further DFT definition will be discarded
     Please, verify this is what you really want


     gamma-point specific algorithms are used
 
     K-points division:     npool     =       2
     R & G space division:  proc/nbgrp/npool/nimage =       2
     Subspace diagonalization in iterative solution of the eigenvalue problem:
     a serial algorithm will be used

     Message from routine divide_et_impera:
     suboptimal parallelization: some nodes have no k-points
 
     Parallelization info
     --------------------
     sticks:   dense  smooth     PW     G-vecs:    dense   smooth      PW
     Min        1941    1941    516                90975    90975   12416
     Max        1944    1944    517                90980    90980   12421
     Sum        3885    3885   1033               181955   181955   24837
 
     Using Slab Decomposition
 


     bravais-lattice index     =            0
     lattice parameter (alat)  =      20.1646  a.u.
     unit-cell volume          =    8199.1451 (a.u.)^3
     number of atoms/cell      =           64
     number of atomic types    =            1
     number of electrons       =       256.00
     number of Kohn-Sham states=          154
     kinetic-energy cutoff     =      30.0000  Ry
     charge density cutoff     =     120.0000  Ry
     scf convergence threshold =      1.0E-06
     mixing beta               =       0.5000
     number of iterations used =            8  plain     mixing
     Exchange-correlation= PBE
                           (   1   4   3   4   0   0   0)

     GPU acceleration is ACTIVE.
     GPU-aware MPI enabled

     Message from routine print_cuda_info:
     High GPU oversubscription detected. Are you sure this is what you want?

     celldm(1)=  20.164596  celldm(2)=   0.000000  celldm(3)=   0.000000
     celldm(4)=   0.000000  celldm(5)=   0.000000  celldm(6)=   0.000000

     crystal axes: (cart. coord. in units of alat)
               a(1) = (   1.000000   0.000000   0.000000 )  
               a(2) = (   0.000000   1.000000   0.000000 )  
               a(3) = (   0.000000   0.000000   1.000000 )  

     reciprocal axes: (cart. coord. in units 2 pi/alat)
               b(1) = (  1.000000  0.000000  0.000000 )  
               b(2) = (  0.000000  1.000000  0.000000 )  
               b(3) = (  0.000000  0.000000  1.000000 )  


     PseudoPot. # 1 for Si read from file:
     /home/ppiaggi/pseudos/Si_ONCV_PBE_sr.upf
     MD5 check sum: 8553c464762ac42b85b1eed164b4d029
     Pseudo is Norm-conserving, Zval =  4.0
     Generated using ONCVPSP code by D. R. Hamann
     Using radial grid of 1510 points,  4 beta functions with: 
                l(1) =   0
                l(2) =   0
                l(3) =   1
                l(4) =   1

     atomic species   valence    mass     pseudopotential
        Si             4.00    28.08500     Si( 1.00)

     No symmetry found



   Cartesian axes

     site n.     atom                  positions (alat units)
         1           Si  tau(   1) = (   0.9999040   0.7350170   0.4423440  )
         2           Si  tau(   2) = (   0.4587240   0.9970390   0.5516470  )
         3           Si  tau(   3) = (   0.5431330   0.5372100   0.0361200  )
         4           Si  tau(   4) = (   0.2617000   0.1068950   0.6577630  )
         5           Si  tau(   5) = (   0.2835090   0.8817340   0.4407110  )
         6           Si  tau(   6) = (   0.4349900   0.3655820   0.9395150  )
         7           Si  tau(   7) = (   0.6067880   0.4955620   0.7605300  )
         8           Si  tau(   8) = (   0.7695690   0.9844860   0.7022710  )
         9           Si  tau(   9) = (   0.6889570   0.4203720   0.5700670  )
        10           Si  tau(  10) = (   0.9649260   0.9022240   0.0314603  )
        11           Si  tau(  11) = (   0.2675280   0.6794900   0.5399240  )
        12           Si  tau(  12) = (   0.0880264   0.1790220   0.3464440  )
        13           Si  tau(  13) = (   0.2643480   0.9481310   0.2078280  )
        14           Si  tau(  14) = (   0.7577140   0.7799280   0.9717350  )
        15           Si  tau(  15) = (   0.9505950   0.4878690   0.3526420  )
        16           Si  tau(  16) = (   0.5215780   0.2304770   0.7985760  )
        17           Si  tau(  17) = (   0.2784480   0.6698440   0.8558920  )
        18           Si  tau(  18) = (   0.2587620   0.6956230   0.2418750  )
        19           Si  tau(  19) = (   0.7989170   0.1389920   0.0626454  )
        20           Si  tau(  20) = (   0.5277000   0.7339890   0.9156390  )
        21           Si  tau(  21) = (   0.2729230   0.0180458   0.9131260  )
        22           Si  tau(  22) = (   0.9485820   0.2623230   0.9710030  )
        23           Si  tau(  23) = (   0.9216190   0.9277750   0.5096250  )
        24           Si  tau(  24) = (   0.8471970   0.4766440   0.8565610  )
        25           Si  tau(  25) = (   0.5099090   0.7184800   0.4230030  )
        26           Si  tau(  26) = (   0.9572860   0.5006460   0.1298410  )
        27           Si  tau(  27) = (   0.2643000   0.2805060   0.3045100  )
        28           Si  tau(  28) = (   0.8001830   0.6314800   0.5282300  )
        29           Si  tau(  29) = (   0.3950270   0.5279820   0.6635320  )
        30           Si  tau(  30) = (   0.8417730   0.7165010   0.7648810  )
        31           Si  tau(  31) = (   0.7544960   0.3203520   0.2305700  )
        32           Si  tau(  32) = (   0.2000120   0.5081980   0.4256300  )
        33           Si  tau(  33) = (   0.8805870   0.0249210   0.2596670  )
        34           Si  tau(  34) = (   0.0345452   0.5212030   0.6384480  )
        35           Si  tau(  35) = (   0.7296690   0.5743480   0.3056620  )
        36           Si  tau(  36) = (   0.3732170   0.4860930   0.2199240  )
        37           Si  tau(  37) = (   0.3176500   0.2058210   0.0487681  )
        38           Si  tau(  38) = (   0.7612320   0.5731160   0.0491074  )
        39           Si  tau(  39) = (   0.5351200   0.5001330   0.4223980  )
        40           Si  tau(  40) = (   0.7200300   0.1216990   0.4781920  )
        41           Si  tau(  41) = (   0.9813820   0.9693250   0.8068630  )
        42           Si  tau(  42) = (   0.5902750   0.7105180   0.6474310  )
        43           Si  tau(  43) = (   0.5003670   0.0329137   0.8667330  )
        44           Si  tau(  44) = (   0.1277870   0.0430357   0.5084660  )
        45           Si  tau(  45) = (   0.2131610   0.8055340   0.0157982  )
        46           Si  tau(  46) = (   0.5181420   0.2440790   0.5686590  )
        47           Si  tau(  47) = (   0.6116660   0.9445330   0.3383810  )
        48           Si  tau(  48) = (   0.2342930   0.4496710   0.8816470  )
        49           Si  tau(  49) = (   0.8720960   0.3046170   0.6452690  )
        50           Si  tau(  50) = (   0.5804240   0.9004410   0.6902700  )
        51           Si  tau(  51) = (   0.1620670   0.4103580   0.0835794  )
        52           Si  tau(  52) = (   0.6167000   0.9821930   0.0522010  )
        53           Si  tau(  53) = (   0.1029720   0.7471700   0.7026860  )
        54           Si  tau(  54) = (   0.0153521   0.7246720   0.1891790  )
        55           Si  tau(  55) = (   0.7520970   0.8212520   0.2340550  )
        56           Si  tau(  56) = (   0.4606190   0.0869635   0.2076930  )
        57           Si  tau(  57) = (   0.1032160   0.1027010   0.1373870  )
        58           Si  tau(  58) = (   0.1323000   0.3169890   0.7177100  )
        59           Si  tau(  59) = (   0.7620530   0.2011150   0.8208470  )
        60           Si  tau(  60) = (   0.5326540   0.2741320   0.3021040  )
        61           Si  tau(  61) = (   0.0836171   0.1606230   0.8703400  )
        62           Si  tau(  62) = (   0.4775190   0.7705300   0.1798360  )
        63           Si  tau(  63) = (   0.9038510   0.2690160   0.4128300  )
        64           Si  tau(  64) = (   0.3064420   0.3207810   0.5696240  )

     number of k points=     1  Fermi-Dirac smearing, width (Ry)=  0.0100
                       cart. coord. in units 2pi/alat
        k(    1) = (   0.0000000   0.0000000   0.0000000), wk =   2.0000000

     Dense  grid:    90978 G-vectors     FFT dimensions: (  72,  72,  72)

     Estimated max dynamical RAM per process >     146.00 MB

     Estimated total dynamical RAM >     561.79 MB

     Initial potential from superposition of free atoms

     starting charge     255.9608, renormalised to     256.0000
     Starting wfcs are  256 randomized atomic wfcs

     total cpu time spent up to now is        5.0 secs

     Self-consistent Calculation

     iteration #  1     ecut=    30.00 Ry     beta= 0.50
     Davidson diagonalization with overlap
     ethr =  1.00E-02,  avg # of iterations =  3.0

     Threshold (ethr) on eigenvalues was too large:
     Diagonalizing with lowered threshold

     Davidson diagonalization with overlap
     ethr =  4.52E-04,  avg # of iterations =  4.0

     total cpu time spent up to now is        5.3 secs

     total energy              =    -501.16695897 Ry
     estimated scf accuracy    <       1.39256942 Ry

     iteration #  2     ecut=    30.00 Ry     beta= 0.50
     Davidson diagonalization with overlap
     ethr =  5.44E-04,  avg # of iterations =  4.0

     total cpu time spent up to now is        5.4 secs

     total energy              =    -500.61664168 Ry
     estimated scf accuracy    <       6.63715725 Ry

     iteration #  3     ecut=    30.00 Ry     beta= 0.50
     Davidson diagonalization with overlap
     ethr =  5.44E-04,  avg # of iterations =  4.0

     total cpu time spent up to now is        5.6 secs

     total energy              =    -501.25589307 Ry
     estimated scf accuracy    <       2.43179451 Ry

     iteration #  4     ecut=    30.00 Ry     beta= 0.50
     Davidson diagonalization with overlap
     ethr =  5.44E-04,  avg # of iterations =  2.0

     total cpu time spent up to now is        5.6 secs

     total energy              =    -501.42115208 Ry
     estimated scf accuracy    <       0.68689196 Ry

     iteration #  5     ecut=    30.00 Ry     beta= 0.50
     Davidson diagonalization with overlap
     ethr =  2.68E-04,  avg # of iterations =  2.0

     total cpu time spent up to now is        5.7 secs

     total energy              =    -501.45406163 Ry
     estimated scf accuracy    <       0.45428716 Ry

     iteration #  6     ecut=    30.00 Ry     beta= 0.50
     Davidson diagonalization with overlap
     ethr =  1.77E-04,  avg # of iterations =  2.0

     total cpu time spent up to now is        5.8 secs

     total energy              =    -501.49822295 Ry
     estimated scf accuracy    <       0.11379486 Ry

     iteration #  7     ecut=    30.00 Ry     beta= 0.50
     Davidson diagonalization with overlap
     ethr =  4.45E-05,  avg # of iterations =  2.0

     total cpu time spent up to now is        5.9 secs

     total energy              =    -501.50787366 Ry
     estimated scf accuracy    <       0.02575025 Ry

     iteration #  8     ecut=    30.00 Ry     beta= 0.50
     Davidson diagonalization with overlap
     ethr =  1.01E-05,  avg # of iterations = 11.0

     total cpu time spent up to now is        6.1 secs

     total energy              =    -501.51078069 Ry
     estimated scf accuracy    <       0.01821017 Ry

     iteration #  9     ecut=    30.00 Ry     beta= 0.50
     Davidson diagonalization with overlap
     ethr =  7.11E-06,  avg # of iterations =  3.0

     total cpu time spent up to now is        6.2 secs

     total energy              =    -501.51241240 Ry
     estimated scf accuracy    <       0.00179398 Ry

     iteration # 10     ecut=    30.00 Ry     beta= 0.50
     Davidson diagonalization with overlap
     ethr =  7.01E-07,  avg # of iterations = 12.0

     total cpu time spent up to now is        6.4 secs

     total energy              =    -501.51258287 Ry
     estimated scf accuracy    <       0.00227382 Ry

     iteration # 11     ecut=    30.00 Ry     beta= 0.50
     Davidson diagonalization with overlap
     ethr =  7.01E-07,  avg # of iterations =  2.0

     total cpu time spent up to now is        6.5 secs

     total energy              =    -501.51276923 Ry
     estimated scf accuracy    <       0.00056451 Ry

     iteration # 12     ecut=    30.00 Ry     beta= 0.50
     Davidson diagonalization with overlap
     ethr =  2.21E-07,  avg # of iterations =  2.0

     total cpu time spent up to now is        6.6 secs

     total energy              =    -501.51283334 Ry
     estimated scf accuracy    <       0.00015814 Ry

     iteration # 13     ecut=    30.00 Ry     beta= 0.50
     Davidson diagonalization with overlap
     ethr =  6.18E-08,  avg # of iterations =  2.0

     total cpu time spent up to now is        6.7 secs

     total energy              =    -501.51284467 Ry
     estimated scf accuracy    <       0.00013047 Ry

     iteration # 14     ecut=    30.00 Ry     beta= 0.50
     Davidson diagonalization with overlap
     ethr =  5.10E-08,  avg # of iterations =  1.0

     total cpu time spent up to now is        6.7 secs

     total energy              =    -501.51285472 Ry
     estimated scf accuracy    <       0.00001780 Ry

     iteration # 15     ecut=    30.00 Ry     beta= 0.50
     Davidson diagonalization with overlap
     ethr =  6.95E-09,  avg # of iterations =  4.0

     total cpu time spent up to now is        6.9 secs

     total energy              =    -501.51285588 Ry
     estimated scf accuracy    <       0.00002532 Ry

     iteration # 16     ecut=    30.00 Ry     beta= 0.50
     Davidson diagonalization with overlap
     ethr =  6.95E-09,  avg # of iterations =  2.0

     total cpu time spent up to now is        7.0 secs

     total energy              =    -501.51285803 Ry
     estimated scf accuracy    <       0.00001116 Ry

     iteration # 17     ecut=    30.00 Ry     beta= 0.50
     Davidson diagonalization with overlap
     ethr =  4.36E-09,  avg # of iterations =  1.0

     total cpu time spent up to now is        7.0 secs

     End of self-consistent calculation

          k = 0.0000 0.0000 0.0000 ( 11372 PWs)   bands (ev):

    -5.3920  -4.5536  -4.3372  -4.2787  -4.1806  -4.1134  -3.9059  -3.5692
    -3.4324  -3.2965  -3.2313  -3.1814  -3.0832  -2.9109  -2.8311  -2.7993
    -2.7303  -2.5597  -2.5181  -2.1558  -1.9732  -1.8484  -1.8075  -1.7447
    -1.6086  -1.4968  -1.4888  -1.1059  -0.9199  -0.7438  -0.6189  -0.3818
    -0.3115  -0.2204  -0.2016  -0.0563   0.0475   0.0675   0.0966   0.2408
     0.2585   0.3818   0.4687   0.5149   0.6312   0.6714   0.7537   0.8921
     1.0055   1.0630   1.1759   1.2145   1.3312   1.3631   1.4725   1.5324
     1.6799   1.7707   1.8178   2.0264   2.1402   2.1580   2.2780   2.3951
     2.4528   2.4892   2.5863   2.6866   2.7267   2.7728   2.8302   2.8910
     3.0091   3.1898   3.2614   3.3354   3.3684   3.4744   3.5083   3.7031
     3.8714   4.1611   4.2812   4.3686   4.4439   4.5016   4.5207   4.6147
     4.6854   4.7243   4.8426   4.8951   4.9438   4.9624   4.9870   5.0420
     5.1548   5.2349   5.3226   5.3621   5.4052   5.4610   5.5082   5.5550
     5.6022   5.6563   5.6678   5.7129   5.8215   5.9198   5.9338   6.0032
     6.0689   6.1074   6.1658   6.2034   6.2817   6.3689   6.4260   6.5548
     6.5871   6.6574   6.7255   6.7612   6.8410   6.8774   6.8945   6.9338
     7.0883   7.1268   7.2177   7.2443   7.2725   7.3924   7.4729   7.5107
     7.5435   7.6188   7.6643   7.7417   7.8243   7.8930   7.9520   7.9979
     8.0070   8.1527   8.2485   8.3564   8.3804   8.4610   8.5092   8.5673
     8.6293   8.6654

     the Fermi energy is     7.0295 ev

!    total energy              =    -501.51285848 Ry
     estimated scf accuracy    <       0.00000068 Ry
     smearing contrib. (-TS)   =      -0.14412369 Ry
     internal energy E=F+TS    =    -501.36873479 Ry

     The total energy is F=E-TS. E is the sum of the following terms:
     one-electron contribution =     184.71471550 Ry
     hartree contribution      =      25.06658402 Ry
     xc contribution           =    -150.76854900 Ry
     ewald contribution        =    -560.38148532 Ry

     convergence has been achieved in  17 iterations

     Forces acting on atoms (cartesian axes, Ry/au):

     atom    1 type  1   force =    -0.00044167   -0.03157318   -0.01433717
     atom    2 type  1   force =    -0.04734595    0.05473285   -0.04926288
     atom    3 type  1   force =    -0.03830637    0.01503336   -0.00340330
     atom    4 type  1   force =     0.05232981    0.00536422    0.03592960
     atom    5 type  1   force =     0.00898282    0.01536747   -0.01553694
     atom    6 type  1   force =    -0.01933495    0.03019970    0.01025413
     atom    7 type  1   force =     0.00598256    0.03928143    0.00589207
     atom    8 type  1   force =     0.08319080    0.04699211   -0.01898411
     atom    9 type  1   force =     0.01308973    0.00635128    0.00021675
     atom   10 type  1   force =     0.01642768   -0.00175233    0.00595987
     atom   11 type  1   force =    -0.00481730    0.01517644    0.01165926
     atom   12 type  1   force =    -0.05480739   -0.03742476   -0.01393985
     atom   13 type  1   force =     0.02961779   -0.00438217    0.00530085
     atom   14 type  1   force =    -0.01220613    0.03700966    0.01155158
     atom   15 type  1   force =     0.01396886    0.01436542    0.01533175
     atom   16 type  1   force =     0.06333819    0.00729220   -0.04456337
     atom   17 type  1   force =     0.01842388   -0.01964219   -0.03304359
     atom   18 type  1   force =    -0.00011392   -0.00886712    0.01104992
     atom   19 type  1   force =    -0.02658181   -0.01576966    0.03241589
     atom   20 type  1   force =    -0.01679652   -0.03017875    0.01249076
     atom   21 type  1   force =     0.01859716    0.01463165    0.00147261
     atom   22 type  1   force =    -0.06489436    0.09588791    0.06304519
     atom   23 type  1   force =     0.01138355    0.04387996    0.01142762
     atom   24 type  1   force =    -0.02260844    0.00122038   -0.01273836
     atom   25 type  1   force =    -0.00828096    0.02118910    0.00101038
     atom   26 type  1   force =     0.02116326    0.00899953    0.01521703
     atom   27 type  1   force =     0.06412551    0.07502433   -0.01932718
     atom   28 type  1   force =     0.00906755   -0.01640701   -0.00411483
     atom   29 type  1   force =     0.01227824    0.00494845   -0.00250589
     atom   30 type  1   force =     0.01383851   -0.02408748   -0.00089481
     atom   31 type  1   force =    -0.01383672    0.00305765    0.00959832
     atom   32 type  1   force =    -0.03825559   -0.03050909   -0.01733921
     atom   33 type  1   force =     0.00323370   -0.01847192    0.00181112
     atom   34 type  1   force =    -0.02090232   -0.00523539   -0.01154488
     atom   35 type  1   force =     0.00273247    0.00019973    0.00855954
     atom   36 type  1   force =    -0.01075353   -0.00163174    0.00776687
     atom   37 type  1   force =    -0.01811344   -0.01773825    0.03313282
     atom   38 type  1   force =     0.01019736   -0.01670036    0.00026752
     atom   39 type  1   force =    -0.00376735   -0.03043553   -0.02812780
     atom   40 type  1   force =    -0.00568771   -0.01012683   -0.00806111
     atom   41 type  1   force =     0.00475026   -0.03354965    0.00476900
     atom   42 type  1   force =     0.02721755   -0.16670388   -0.02143761
     atom   43 type  1   force =    -0.02272077   -0.05753407    0.01202812
     atom   44 type  1   force =    -0.04652740   -0.06312743   -0.01512152
     atom   45 type  1   force =    -0.02776355    0.05686811    0.02686858
     atom   46 type  1   force =     0.01504258   -0.03580834   -0.02263930
     atom   47 type  1   force =    -0.03385246    0.03354757    0.02575479
     atom   48 type  1   force =     0.02347314    0.00596447   -0.02441072
     atom   49 type  1   force =     0.01871914    0.03088476   -0.01171008
     atom   50 type  1   force =    -0.03936461    0.09340741    0.08653291
     atom   51 type  1   force =    -0.00583443   -0.02105700    0.02382554
     atom   52 type  1   force =     0.01792129   -0.01026638    0.00744525
     atom   53 type  1   force =    -0.02737312   -0.01090354    0.00334845
     atom   54 type  1   force =     0.01439631   -0.01287548    0.01698800
     atom   55 type  1   force =     0.01365551   -0.00557332   -0.02937932
     atom   56 type  1   force =     0.00314582   -0.02899976   -0.01903637
     atom   57 type  1   force =    -0.00438769   -0.02290935   -0.00971100
     atom   58 type  1   force =    -0.00969525    0.02780222    0.01178813
     atom   59 type  1   force =    -0.02050361   -0.00333802   -0.02341890
     atom   60 type  1   force =     0.00426856    0.02202820    0.03123753
     atom   61 type  1   force =     0.09627212   -0.07744443   -0.07934149
     atom   62 type  1   force =    -0.01069522    0.00018219   -0.00554991
     atom   63 type  1   force =    -0.03616233    0.01586005    0.01814083
     atom   64 type  1   force =     0.00190117    0.02827459   -0.02060708

     Total force =     0.440986     Total SCF correction =     0.001543


     Computing stress (Cartesian axis) and pressure

          total   stress  (Ry/bohr**3)                   (kbar)     P=      -29.26
  -0.00026052  -0.00000421  -0.00003661          -38.32       -0.62       -5.39
  -0.00000421  -0.00014521  -0.00000249           -0.62      -21.36       -0.37
  -0.00003661  -0.00000249  -0.00019094           -5.39       -0.37      -28.09

 
     init_run     :      1.07s CPU      4.95s WALL (       1 calls)
     electrons    :      1.86s CPU      2.00s WALL (       1 calls)
     forces       :      0.04s CPU      0.04s WALL (       1 calls)
     stress       :      0.15s CPU      0.16s WALL (       1 calls)

     Called by init_run:
     wfcinit      :      0.53s CPU      4.23s WALL (       1 calls)
                                        4.23s GPU  (       1 calls)
     potinit      :      0.05s CPU      0.15s WALL (       1 calls)
     hinit0       :      0.47s CPU      0.50s WALL (       1 calls)

     Called by electrons:
     c_bands      :      1.12s CPU      1.18s WALL (      18 calls)
     sum_band     :      0.36s CPU      0.41s WALL (      18 calls)
     v_of_rho     :      0.18s CPU      0.28s WALL (      18 calls)
     mix_rho      :      0.17s CPU      0.18s WALL (      18 calls)

     Called by c_bands:
     init_us_2    :      0.07s CPU      0.07s WALL (      37 calls)
     init_us_2:gp :      0.07s CPU      0.07s WALL (      37 calls)
     regterg      :      0.96s CPU      1.02s WALL (      18 calls)

     Called by *egterg:
     rdiaghg      :      0.40s CPU      1.16s WALL (      80 calls)
                                        1.14s GPU  (      80 calls)
     h_psi        :      0.91s CPU      3.89s WALL (      82 calls)
                                        3.89s GPU  (      82 calls)
     g_psi        :      0.00s CPU      0.00s WALL (      63 calls)
                                        0.00s GPU  (      63 calls)

     Called by h_psi:
     h_psi:calbec :      0.49s CPU      3.39s WALL (      82 calls)
                                        3.39s GPU  (      82 calls)
     vloc_psi     :      0.37s CPU      0.44s WALL (      82 calls)
                                        0.44s GPU  (      82 calls)
     add_vuspsi   :      0.03s CPU      0.05s WALL (      82 calls)
                                        0.05s GPU  (      82 calls)

     General routines
     calbec       :      0.49s CPU      3.40s WALL (      87 calls)
     fft          :      0.62s CPU      0.75s WALL (     151 calls)
                                        0.13s GPU  (      96 calls)
     ffts         :      0.04s CPU      0.05s WALL (      18 calls)
     fftw         :      0.45s CPU      0.59s WALL (    1900 calls)
                                        0.52s GPU  (    1900 calls)
 
     Parallel routines
 
     PWSCF        :      3.16s CPU      7.24s WALL

 
   This run was terminated on:  10:40: 3  10May2023            

=------------------------------------------------------------------------------=
   JOB DONE.
=------------------------------------------------------------------------------=
