An instance of this daemon is already running

     Program PWSCF v.7.1 starts on 10May2023 at 10:48:11 

     This program is part of the open-source Quantum ESPRESSO suite
     for quantum simulation of materials; please cite
         "P. Giannozzi et al., J. Phys.:Condens. Matter 21 395502 (2009);
         "P. Giannozzi et al., J. Phys.:Condens. Matter 29 465901 (2017);
         "P. Giannozzi et al., J. Chem. Phys. 152 154105 (2020);
          URL http://www.quantum-espresso.org", 
     in publications or presentations arising from this work. More details at
     http://www.quantum-espresso.org/quote

     Parallel version (MPI & OpenMP), running on       4 processor cores
     Number of MPI processes:                 4
     Threads/MPI process:                     1

     MPI processes distributed on     1 nodes
     753547 MiB available memory on the printing compute node when the environment starts
 
     Reading input from pw-si-66.in
Warning: card &CELL ignored
Warning: card / ignored

     Current dimensions of program PWSCF are:
     Max number of different atomic species (ntypx) = 10
     Max number of k-points (npk) =  40000
     Max angular momentum in pseudopotentials (lmaxx) =  4

     IMPORTANT: XC functional enforced from input :
     Exchange-correlation= PBE
                           (   1   4   3   4   0   0   0)
     Any further DFT definition will be discarded
     Please, verify this is what you really want


     gamma-point specific algorithms are used
 
     K-points division:     npool     =       2
     R & G space division:  proc/nbgrp/npool/nimage =       2
     Subspace diagonalization in iterative solution of the eigenvalue problem:
     a serial algorithm will be used

     Message from routine divide_et_impera:
     suboptimal parallelization: some nodes have no k-points
 
     Parallelization info
     --------------------
     sticks:   dense  smooth     PW     G-vecs:    dense   smooth      PW
     Min        1904    1904    502                88752    88752   12054
     Max        1905    1905    503                88757    88757   12057
     Sum        3809    3809   1005               177509   177509   24111
 
     Using Slab Decomposition
 


     bravais-lattice index     =            0
     lattice parameter (alat)  =      19.9878  a.u.
     unit-cell volume          =    7985.3234 (a.u.)^3
     number of atoms/cell      =           64
     number of atomic types    =            1
     number of electrons       =       256.00
     number of Kohn-Sham states=          154
     kinetic-energy cutoff     =      30.0000  Ry
     charge density cutoff     =     120.0000  Ry
     scf convergence threshold =      1.0E-06
     mixing beta               =       0.5000
     number of iterations used =            8  plain     mixing
     Exchange-correlation= PBE
                           (   1   4   3   4   0   0   0)

     GPU acceleration is ACTIVE.
     GPU-aware MPI enabled

     Message from routine print_cuda_info:
     High GPU oversubscription detected. Are you sure this is what you want?

     celldm(1)=  19.987762  celldm(2)=   0.000000  celldm(3)=   0.000000
     celldm(4)=   0.000000  celldm(5)=   0.000000  celldm(6)=   0.000000

     crystal axes: (cart. coord. in units of alat)
               a(1) = (   1.000000   0.000000   0.000000 )  
               a(2) = (   0.000000   1.000000   0.000000 )  
               a(3) = (   0.000000   0.000000   1.000000 )  

     reciprocal axes: (cart. coord. in units 2 pi/alat)
               b(1) = (  1.000000  0.000000  0.000000 )  
               b(2) = (  0.000000  1.000000  0.000000 )  
               b(3) = (  0.000000  0.000000  1.000000 )  


     PseudoPot. # 1 for Si read from file:
     /home/ppiaggi/pseudos/Si_ONCV_PBE_sr.upf
     MD5 check sum: 8553c464762ac42b85b1eed164b4d029
     Pseudo is Norm-conserving, Zval =  4.0
     Generated using ONCVPSP code by D. R. Hamann
     Using radial grid of 1510 points,  4 beta functions with: 
                l(1) =   0
                l(2) =   0
                l(3) =   1
                l(4) =   1

     atomic species   valence    mass     pseudopotential
        Si             4.00    28.08500     Si( 1.00)

     No symmetry found



   Cartesian axes

     site n.     atom                  positions (alat units)
         1           Si  tau(   1) = (   0.9602040   0.3635020   0.1068550  )
         2           Si  tau(   2) = (   0.7073300   0.8748870   0.7365230  )
         3           Si  tau(   3) = (   0.7167950   0.3463660   0.3089520  )
         4           Si  tau(   4) = (   0.0452603   0.0853250   0.9033690  )
         5           Si  tau(   5) = (   0.8307250   0.1004800   0.6272470  )
         6           Si  tau(   6) = (   0.3850290   0.5568920   0.3476780  )
         7           Si  tau(   7) = (   0.3698350   0.5673480   0.9006140  )
         8           Si  tau(   8) = (   0.0117922   0.8361110   0.8243790  )
         9           Si  tau(   9) = (   0.2923660   0.5537090   0.7023940  )
        10           Si  tau(  10) = (   0.7908880   0.5008190   0.8022420  )
        11           Si  tau(  11) = (   0.3015910   0.3408860   0.7620250  )
        12           Si  tau(  12) = (   0.6259050   0.5654870   0.2854450  )
        13           Si  tau(  13) = (   0.4634440   0.2108950   0.3167710  )
        14           Si  tau(  14) = (   0.4523780   0.8280360   0.1003110  )
        15           Si  tau(  15) = (   0.4161860   0.0830941   0.9405350  )
        16           Si  tau(  16) = (   0.7893590   0.9335880   0.3648140  )
        17           Si  tau(  17) = (   0.1234580   0.7165690   0.4070310  )
        18           Si  tau(  18) = (   0.5451680   0.0040876   0.6156290  )
        19           Si  tau(  19) = (   0.0503533   0.8286760   0.1930900  )
        20           Si  tau(  20) = (   0.4990650   0.3305770   0.8969960  )
        21           Si  tau(  21) = (   0.1289960   0.8428660   0.5864020  )
        22           Si  tau(  22) = (   0.5671500   0.6997110   0.6203880  )
        23           Si  tau(  23) = (   0.8441150   0.9996990   0.9657690  )
        24           Si  tau(  24) = (   0.0448877   0.4475420   0.8708660  )
        25           Si  tau(  25) = (   0.9746390   0.0381731   0.2549500  )
        26           Si  tau(  26) = (   0.8895390   0.8796650   0.5631510  )
        27           Si  tau(  27) = (   0.6404970   0.7826480   0.2323660  )
        28           Si  tau(  28) = (   0.5427110   0.0374323   0.1395470  )
        29           Si  tau(  29) = (   0.3196150   0.0371610   0.2621530  )
        30           Si  tau(  30) = (   0.2299200   0.4865540   0.0746161  )
        31           Si  tau(  31) = (   0.8045140   0.8160100   0.0998620  )
        32           Si  tau(  32) = (   0.0128878   0.2567950   0.5433430  )
        33           Si  tau(  33) = (   0.2951070   0.6811370   0.1919680  )
        34           Si  tau(  34) = (   0.2493890   0.3289590   0.2798930  )
        35           Si  tau(  35) = (   0.5246360   0.2603760   0.6341040  )
        36           Si  tau(  36) = (   0.4534730   0.3795020   0.1406710  )
        37           Si  tau(  37) = (   0.0965264   0.0587901   0.4269340  )
        38           Si  tau(  38) = (   0.5571190   0.7276460   0.9098740  )
        39           Si  tau(  39) = (   0.3899830   0.7084280   0.4961970  )
        40           Si  tau(  40) = (   0.5857070   0.4813720   0.7595400  )
        41           Si  tau(  41) = (   0.1517940   0.1251780   0.6870770  )
        42           Si  tau(  42) = (   0.1357820   0.5119150   0.4360620  )
        43           Si  tau(  43) = (   0.1933440   0.7477760   0.9470680  )
        44           Si  tau(  44) = (   0.3115470   0.9537700   0.6272420  )
        45           Si  tau(  45) = (   0.2052120   0.9611060   0.0530216  )
        46           Si  tau(  46) = (   0.0099658   0.6237160   0.0534423  )
        47           Si  tau(  47) = (   0.7723040   0.3185190   0.0272084  )
        48           Si  tau(  48) = (   0.1173360   0.2042320   0.1732590  )
        49           Si  tau(  49) = (   0.8271450   0.7077240   0.8945600  )
        50           Si  tau(  50) = (   0.9524620   0.4337360   0.3332510  )
        51           Si  tau(  51) = (   0.2767030   0.3244120   0.5225250  )
        52           Si  tau(  52) = (   0.8823750   0.5140350   0.5762600  )
        53           Si  tau(  53) = (   0.4440550   0.8979780   0.3876880  )
        54           Si  tau(  54) = (   0.7545100   0.1370730   0.1904520  )
        55           Si  tau(  55) = (   0.6311130   0.1182840   0.4472630  )
        56           Si  tau(  56) = (   0.8895880   0.2560660   0.8142200  )
        57           Si  tau(  57) = (   0.7677780   0.6742240   0.4965160  )
        58           Si  tau(  58) = (   0.6743120   0.1339900   0.8419220  )
        59           Si  tau(  59) = (   0.7434770   0.3313810   0.5401390  )
        60           Si  tau(  60) = (   0.9007190   0.6506470   0.2769140  )
        61           Si  tau(  61) = (   0.6335500   0.5268700   0.0436121  )
        62           Si  tau(  62) = (   0.1964370   0.2404250   0.9475290  )
        63           Si  tau(  63) = (   0.0610247   0.6134730   0.6832740  )
        64           Si  tau(  64) = (   0.3711530   0.8745820   0.8219010  )

     number of k points=     1  Fermi-Dirac smearing, width (Ry)=  0.0100
                       cart. coord. in units 2pi/alat
        k(    1) = (   0.0000000   0.0000000   0.0000000), wk =   2.0000000

     Dense  grid:    88755 G-vectors     FFT dimensions: (  72,  72,  72)

     Estimated max dynamical RAM per process >     142.64 MB

     Estimated total dynamical RAM >     548.91 MB

     Initial potential from superposition of free atoms

     starting charge     255.9608, renormalised to     256.0000
     Starting wfcs are  256 randomized atomic wfcs

     total cpu time spent up to now is        5.0 secs

     Self-consistent Calculation

     iteration #  1     ecut=    30.00 Ry     beta= 0.50
     Davidson diagonalization with overlap
     ethr =  1.00E-02,  avg # of iterations =  3.0

     Threshold (ethr) on eigenvalues was too large:
     Diagonalizing with lowered threshold

     Davidson diagonalization with overlap
     ethr =  3.75E-04,  avg # of iterations =  5.0

     total cpu time spent up to now is        5.3 secs

     total energy              =    -501.09824384 Ry
     estimated scf accuracy    <       1.14272237 Ry

     iteration #  2     ecut=    30.00 Ry     beta= 0.50
     Davidson diagonalization with overlap
     ethr =  4.46E-04,  avg # of iterations =  5.0

     total cpu time spent up to now is        5.5 secs

     total energy              =    -500.56153961 Ry
     estimated scf accuracy    <       6.68204515 Ry

     iteration #  3     ecut=    30.00 Ry     beta= 0.50
     Davidson diagonalization with overlap
     ethr =  4.46E-04,  avg # of iterations =  5.0

     total cpu time spent up to now is        5.6 secs

     total energy              =    -501.19179652 Ry
     estimated scf accuracy    <       1.70898631 Ry

     iteration #  4     ecut=    30.00 Ry     beta= 0.50
     Davidson diagonalization with overlap
     ethr =  4.46E-04,  avg # of iterations =  2.0

     total cpu time spent up to now is        5.7 secs

     total energy              =    -501.29145151 Ry
     estimated scf accuracy    <       0.39402570 Ry

     iteration #  5     ecut=    30.00 Ry     beta= 0.50
     Davidson diagonalization with overlap
     ethr =  1.54E-04,  avg # of iterations =  2.0

     total cpu time spent up to now is        5.8 secs

     total energy              =    -501.31883627 Ry
     estimated scf accuracy    <       0.23613190 Ry

     iteration #  6     ecut=    30.00 Ry     beta= 0.50
     Davidson diagonalization with overlap
     ethr =  9.22E-05,  avg # of iterations =  2.0

     total cpu time spent up to now is        5.9 secs

     total energy              =    -501.34004843 Ry
     estimated scf accuracy    <       0.14038317 Ry

     iteration #  7     ecut=    30.00 Ry     beta= 0.50
     Davidson diagonalization with overlap
     ethr =  5.48E-05,  avg # of iterations =  2.0

     total cpu time spent up to now is        6.0 secs

     total energy              =    -501.35226047 Ry
     estimated scf accuracy    <       0.00815295 Ry

     iteration #  8     ecut=    30.00 Ry     beta= 0.50
     Davidson diagonalization with overlap
     ethr =  3.18E-06,  avg # of iterations = 19.0

     total cpu time spent up to now is        6.2 secs

     total energy              =    -501.35353049 Ry
     estimated scf accuracy    <       0.00629830 Ry

     iteration #  9     ecut=    30.00 Ry     beta= 0.50
     Davidson diagonalization with overlap
     ethr =  2.46E-06,  avg # of iterations =  3.0

     total cpu time spent up to now is        6.3 secs

     total energy              =    -501.35406738 Ry
     estimated scf accuracy    <       0.00674460 Ry

     iteration # 10     ecut=    30.00 Ry     beta= 0.50
     Davidson diagonalization with overlap
     ethr =  2.46E-06,  avg # of iterations =  1.0

     total cpu time spent up to now is        6.4 secs

     total energy              =    -501.35451681 Ry
     estimated scf accuracy    <       0.00056432 Ry

     iteration # 11     ecut=    30.00 Ry     beta= 0.50
     Davidson diagonalization with overlap
     ethr =  2.20E-07,  avg # of iterations =  3.0

     total cpu time spent up to now is        6.5 secs

     total energy              =    -501.35458392 Ry
     estimated scf accuracy    <       0.00018096 Ry

     iteration # 12     ecut=    30.00 Ry     beta= 0.50
     Davidson diagonalization with overlap
     ethr =  7.07E-08,  avg # of iterations =  5.0

     total cpu time spent up to now is        6.6 secs

     total energy              =    -501.35458357 Ry
     estimated scf accuracy    <       0.00071508 Ry

     iteration # 13     ecut=    30.00 Ry     beta= 0.50
     Davidson diagonalization with overlap
     ethr =  7.07E-08,  avg # of iterations =  3.0

     total cpu time spent up to now is        6.7 secs

     total energy              =    -501.35463163 Ry
     estimated scf accuracy    <       0.00002780 Ry

     iteration # 14     ecut=    30.00 Ry     beta= 0.50
     Davidson diagonalization with overlap
     ethr =  1.09E-08,  avg # of iterations =  4.0

     total cpu time spent up to now is        6.8 secs

     total energy              =    -501.35463404 Ry
     estimated scf accuracy    <       0.00001102 Ry

     iteration # 15     ecut=    30.00 Ry     beta= 0.50
     Davidson diagonalization with overlap
     ethr =  4.31E-09,  avg # of iterations =  2.0

     total cpu time spent up to now is        6.9 secs

     total energy              =    -501.35463486 Ry
     estimated scf accuracy    <       0.00000266 Ry

     iteration # 16     ecut=    30.00 Ry     beta= 0.50
     Davidson diagonalization with overlap
     ethr =  1.04E-09,  avg # of iterations =  5.0

     total cpu time spent up to now is        7.0 secs

     total energy              =    -501.35463456 Ry
     estimated scf accuracy    <       0.00001328 Ry

     iteration # 17     ecut=    30.00 Ry     beta= 0.50
     Davidson diagonalization with overlap
     ethr =  1.04E-09,  avg # of iterations =  3.0

     total cpu time spent up to now is        7.1 secs

     total energy              =    -501.35463538 Ry
     estimated scf accuracy    <       0.00000132 Ry

     iteration # 18     ecut=    30.00 Ry     beta= 0.50
     Davidson diagonalization with overlap
     ethr =  5.17E-10,  avg # of iterations =  2.0

     total cpu time spent up to now is        7.2 secs

     End of self-consistent calculation

          k = 0.0000 0.0000 0.0000 ( 11060 PWs)   bands (ev):

    -5.2111  -4.2221  -4.0921  -4.0471  -3.9978  -3.9679  -3.8563  -3.2568
    -3.0613  -3.0077  -2.9487  -2.8798  -2.7780  -2.7361  -2.6668  -2.6234
    -2.5144  -2.4500  -2.3823  -1.8688  -1.7548  -1.6896  -1.6700  -1.5591
    -1.4140  -1.2409  -1.1404  -0.7213  -0.6329  -0.4387  -0.2945  -0.2685
    -0.1322   0.0382   0.2165   0.2905   0.4336   0.4680   0.5235   0.5542
     0.6526   0.7680   0.8212   0.8682   0.9175   0.9800   1.0196   1.1220
     1.1831   1.2781   1.3762   1.4605   1.6027   1.6359   1.7075   1.7765
     1.9664   2.1068   2.1541   2.2195   2.3291   2.3990   2.4609   2.5846
     2.6655   2.8234   2.8766   2.9523   2.9649   3.0148   3.1491   3.1663
     3.3069   3.3511   3.3970   3.4542   3.5926   3.6054   3.7475   3.8822
     3.9753   4.3509   4.4407   4.5696   4.6358   4.7115   4.7677   4.8901
     4.9689   5.0285   5.0533   5.1946   5.3045   5.4610   5.4882   5.5746
     5.5959   5.6437   5.7284   5.7410   5.7849   5.8398   5.9437   6.0374
     6.0613   6.0815   6.0951   6.1647   6.1770   6.2678   6.3501   6.4253
     6.4687   6.5605   6.5652   6.6545   6.7090   6.7241   6.7812   6.8564
     6.9324   7.0014   7.0281   7.0635   7.0813   7.1123   7.1958   7.2535
     7.3392   7.4322   7.5113   7.5567   7.5902   7.6645   7.6920   7.7726
     7.7876   7.8504   7.9508   8.0285   8.0713   8.1708   8.2329   8.3135
     8.4023   8.4513   8.4989   8.5602   8.6132   8.6902   8.7814   8.8800
     8.9314   8.9757

     the Fermi energy is     7.3191 ev

!    total energy              =    -501.35463518 Ry
     estimated scf accuracy    <       0.00000033 Ry
     smearing contrib. (-TS)   =      -0.15023351 Ry
     internal energy E=F+TS    =    -501.20440167 Ry

     The total energy is F=E-TS. E is the sum of the following terms:
     one-electron contribution =     199.80859206 Ry
     hartree contribution      =      20.38568476 Ry
     xc contribution           =    -150.97961381 Ry
     ewald contribution        =    -570.41906467 Ry

     convergence has been achieved in  18 iterations

     Forces acting on atoms (cartesian axes, Ry/au):

     atom    1 type  1   force =     0.07530782    0.01629948    0.01771717
     atom    2 type  1   force =    -0.00698323   -0.01038736   -0.00092225
     atom    3 type  1   force =     0.02243952   -0.00032646    0.03034397
     atom    4 type  1   force =     0.00364738   -0.02996917   -0.02957424
     atom    5 type  1   force =    -0.02392369    0.03473638    0.01463087
     atom    6 type  1   force =     0.03107036   -0.05462018   -0.01960434
     atom    7 type  1   force =     0.02353833    0.01145748    0.04914027
     atom    8 type  1   force =     0.01100843   -0.00323273   -0.01954540
     atom    9 type  1   force =    -0.04892881    0.01104239   -0.06046144
     atom   10 type  1   force =     0.06058569    0.00282488   -0.00200097
     atom   11 type  1   force =     0.00332853   -0.04055007    0.01627336
     atom   12 type  1   force =    -0.01631963   -0.02150132   -0.00865283
     atom   13 type  1   force =    -0.01335593    0.00824950   -0.02466236
     atom   14 type  1   force =     0.01897767    0.00806489   -0.00369438
     atom   15 type  1   force =    -0.01284060   -0.01244197    0.02483120
     atom   16 type  1   force =    -0.01938708    0.00913922   -0.00178020
     atom   17 type  1   force =     0.00659499    0.06675440   -0.06187638
     atom   18 type  1   force =    -0.00753051   -0.00298441    0.00584933
     atom   19 type  1   force =     0.00158519   -0.01302801   -0.00233287
     atom   20 type  1   force =    -0.01698229   -0.02011905    0.00321288
     atom   21 type  1   force =    -0.06987862   -0.00452987    0.00790389
     atom   22 type  1   force =     0.05784517   -0.01431181    0.02746222
     atom   23 type  1   force =    -0.01983318    0.02386933    0.01149422
     atom   24 type  1   force =     0.00114192   -0.01809243    0.02624659
     atom   25 type  1   force =    -0.05998034   -0.02509034   -0.03069979
     atom   26 type  1   force =     0.00295017   -0.00501108    0.00004768
     atom   27 type  1   force =    -0.02179451    0.03130487    0.04021507
     atom   28 type  1   force =    -0.02850621    0.00079726   -0.02866704
     atom   29 type  1   force =    -0.01996412   -0.00600422    0.00174011
     atom   30 type  1   force =     0.02077939    0.00639390   -0.00494058
     atom   31 type  1   force =     0.05224741   -0.01962899   -0.02643595
     atom   32 type  1   force =     0.00309292   -0.02954829   -0.00489930
     atom   33 type  1   force =    -0.03090089    0.02671375   -0.01351721
     atom   34 type  1   force =     0.05027602    0.04722931    0.03439319
     atom   35 type  1   force =     0.01003379    0.00958161    0.01048906
     atom   36 type  1   force =    -0.00598830    0.01883675   -0.00067915
     atom   37 type  1   force =     0.03106997    0.00849348    0.04707670
     atom   38 type  1   force =    -0.03574960   -0.00164737    0.00440339
     atom   39 type  1   force =    -0.03020511    0.03088960    0.02979196
     atom   40 type  1   force =    -0.04499242    0.02753158   -0.04274165
     atom   41 type  1   force =     0.02009029    0.00594753    0.01548875
     atom   42 type  1   force =     0.02790213   -0.10179553    0.02386790
     atom   43 type  1   force =     0.01287590    0.02208705    0.00280624
     atom   44 type  1   force =     0.00749416    0.02890381   -0.00313020
     atom   45 type  1   force =     0.01539857    0.01145373   -0.00525600
     atom   46 type  1   force =    -0.01146182   -0.01443034   -0.00684788
     atom   47 type  1   force =    -0.06394965   -0.02823110   -0.02516254
     atom   48 type  1   force =    -0.03899973   -0.01886564   -0.05883089
     atom   49 type  1   force =     0.01069132   -0.00977942    0.00782346
     atom   50 type  1   force =    -0.02868425   -0.01451566    0.00000237
     atom   51 type  1   force =    -0.00621946    0.02123999   -0.01823795
     atom   52 type  1   force =     0.03079309   -0.02832731    0.03512357
     atom   53 type  1   force =     0.02640381    0.00620178    0.03008332
     atom   54 type  1   force =     0.01329016    0.01952276   -0.02961824
     atom   55 type  1   force =     0.03792074   -0.00774683   -0.00851237
     atom   56 type  1   force =    -0.00236681    0.01533306    0.00517533
     atom   57 type  1   force =    -0.02400974    0.05178212   -0.03807080
     atom   58 type  1   force =     0.01059884   -0.01101594   -0.00957512
     atom   59 type  1   force =    -0.03099368   -0.03294579   -0.01574617
     atom   60 type  1   force =    -0.01098980    0.02093640    0.00976879
     atom   61 type  1   force =     0.00108569   -0.02343040    0.01546873
     atom   62 type  1   force =     0.01941232    0.01402296    0.00557221
     atom   63 type  1   force =     0.02334150    0.00171781    0.00978209
     atom   64 type  1   force =     0.00690080    0.00475006    0.04245061

     Total force =     0.372826     Total SCF correction =     0.001181


     Computing stress (Cartesian axis) and pressure

          total   stress  (Ry/bohr**3)                   (kbar)     P=      -31.53
  -0.00024851   0.00004887   0.00009024          -36.56        7.19       13.27
   0.00004887  -0.00021649  -0.00001576            7.19      -31.85       -2.32
   0.00009024  -0.00001576  -0.00017791           13.27       -2.32      -26.17

 
     init_run     :      1.09s CPU      4.97s WALL (       1 calls)
     electrons    :      2.00s CPU      2.16s WALL (       1 calls)
     forces       :      0.04s CPU      0.04s WALL (       1 calls)
     stress       :      0.15s CPU      0.15s WALL (       1 calls)

     Called by init_run:
     wfcinit      :      0.55s CPU      4.25s WALL (       1 calls)
                                        4.25s GPU  (       1 calls)
     potinit      :      0.05s CPU      0.15s WALL (       1 calls)
     hinit0       :      0.46s CPU      0.50s WALL (       1 calls)

     Called by electrons:
     c_bands      :      1.24s CPU      1.32s WALL (      19 calls)
     sum_band     :      0.37s CPU      0.41s WALL (      19 calls)
     v_of_rho     :      0.18s CPU      0.29s WALL (      19 calls)
     mix_rho      :      0.17s CPU      0.19s WALL (      19 calls)

     Called by c_bands:
     init_us_2    :      0.07s CPU      0.07s WALL (      39 calls)
     init_us_2:gp :      0.07s CPU      0.07s WALL (      39 calls)
     regterg      :      1.08s CPU      1.15s WALL (      19 calls)

     Called by *egterg:
     rdiaghg      :      0.49s CPU      1.25s WALL (      94 calls)
                                        1.23s GPU  (      94 calls)
     h_psi        :      0.95s CPU      3.94s WALL (      96 calls)
                                        3.94s GPU  (      96 calls)
     g_psi        :      0.00s CPU      0.00s WALL (      76 calls)
                                        0.00s GPU  (      76 calls)

     Called by h_psi:
     h_psi:calbec :      0.51s CPU      3.42s WALL (      96 calls)
                                        3.42s GPU  (      96 calls)
     vloc_psi     :      0.39s CPU      0.46s WALL (      96 calls)
                                        0.46s GPU  (      96 calls)
     add_vuspsi   :      0.04s CPU      0.05s WALL (      96 calls)
                                        0.05s GPU  (      96 calls)

     General routines
     calbec       :      0.51s CPU      3.42s WALL (     101 calls)
     fft          :      0.62s CPU      0.75s WALL (     159 calls)
                                        0.14s GPU  (     101 calls)
     ffts         :      0.05s CPU      0.05s WALL (      19 calls)
     fftw         :      0.47s CPU      0.61s WALL (    2033 calls)
                                        0.53s GPU  (    2033 calls)
 
     Parallel routines
 
     PWSCF        :      3.32s CPU      7.41s WALL

 
   This run was terminated on:  10:48:18  10May2023            

=------------------------------------------------------------------------------=
   JOB DONE.
=------------------------------------------------------------------------------=
