An instance of this daemon is already running
An instance of this daemon is already running
An instance of this daemon is already running

     Program PWSCF v.7.1 starts on 10May2023 at 10:49:58 

     This program is part of the open-source Quantum ESPRESSO suite
     for quantum simulation of materials; please cite
         "P. Giannozzi et al., J. Phys.:Condens. Matter 21 395502 (2009);
         "P. Giannozzi et al., J. Phys.:Condens. Matter 29 465901 (2017);
         "P. Giannozzi et al., J. Chem. Phys. 152 154105 (2020);
          URL http://www.quantum-espresso.org", 
     in publications or presentations arising from this work. More details at
     http://www.quantum-espresso.org/quote

     Parallel version (MPI & OpenMP), running on       4 processor cores
     Number of MPI processes:                 4
     Threads/MPI process:                     1

     MPI processes distributed on     1 nodes
     753544 MiB available memory on the printing compute node when the environment starts
 
     Reading input from pw-si-77.in
Warning: card &CELL ignored
Warning: card / ignored

     Current dimensions of program PWSCF are:
     Max number of different atomic species (ntypx) = 10
     Max number of k-points (npk) =  40000
     Max angular momentum in pseudopotentials (lmaxx) =  4

     IMPORTANT: XC functional enforced from input :
     Exchange-correlation= PBE
                           (   1   4   3   4   0   0   0)
     Any further DFT definition will be discarded
     Please, verify this is what you really want


     gamma-point specific algorithms are used
 
     K-points division:     npool     =       2
     R & G space division:  proc/nbgrp/npool/nimage =       2
     Subspace diagonalization in iterative solution of the eigenvalue problem:
     a serial algorithm will be used

     Message from routine divide_et_impera:
     suboptimal parallelization: some nodes have no k-points
 
     Parallelization info
     --------------------
     sticks:   dense  smooth     PW     G-vecs:    dense   smooth      PW
     Min        1941    1941    516                90975    90975   12416
     Max        1944    1944    517                90980    90980   12421
     Sum        3885    3885   1033               181955   181955   24837
 
     Using Slab Decomposition
 


     bravais-lattice index     =            0
     lattice parameter (alat)  =      20.1589  a.u.
     unit-cell volume          =    8192.1478 (a.u.)^3
     number of atoms/cell      =           64
     number of atomic types    =            1
     number of electrons       =       256.00
     number of Kohn-Sham states=          154
     kinetic-energy cutoff     =      30.0000  Ry
     charge density cutoff     =     120.0000  Ry
     scf convergence threshold =      1.0E-06
     mixing beta               =       0.5000
     number of iterations used =            8  plain     mixing
     Exchange-correlation= PBE
                           (   1   4   3   4   0   0   0)

     GPU acceleration is ACTIVE.
     GPU-aware MPI enabled

     Message from routine print_cuda_info:
     High GPU oversubscription detected. Are you sure this is what you want?

     celldm(1)=  20.158858  celldm(2)=   0.000000  celldm(3)=   0.000000
     celldm(4)=   0.000000  celldm(5)=   0.000000  celldm(6)=   0.000000

     crystal axes: (cart. coord. in units of alat)
               a(1) = (   1.000000   0.000000   0.000000 )  
               a(2) = (   0.000000   1.000000   0.000000 )  
               a(3) = (   0.000000   0.000000   1.000000 )  

     reciprocal axes: (cart. coord. in units 2 pi/alat)
               b(1) = (  1.000000  0.000000  0.000000 )  
               b(2) = (  0.000000  1.000000  0.000000 )  
               b(3) = (  0.000000  0.000000  1.000000 )  


     PseudoPot. # 1 for Si read from file:
     /home/ppiaggi/pseudos/Si_ONCV_PBE_sr.upf
     MD5 check sum: 8553c464762ac42b85b1eed164b4d029
     Pseudo is Norm-conserving, Zval =  4.0
     Generated using ONCVPSP code by D. R. Hamann
     Using radial grid of 1510 points,  4 beta functions with: 
                l(1) =   0
                l(2) =   0
                l(3) =   1
                l(4) =   1

     atomic species   valence    mass     pseudopotential
        Si             4.00    28.08500     Si( 1.00)

     No symmetry found



   Cartesian axes

     site n.     atom                  positions (alat units)
         1           Si  tau(   1) = (   0.2905090   0.4803250   0.9057800  )
         2           Si  tau(   2) = (   0.0110749   0.7819060   0.7275900  )
         3           Si  tau(   3) = (   0.4203320   0.0174675   0.6885590  )
         4           Si  tau(   4) = (   0.3045830   0.0799810   0.0630552  )
         5           Si  tau(   5) = (   0.5786870   0.7355910   0.3329280  )
         6           Si  tau(   6) = (   0.7215270   0.1450760   0.3088930  )
         7           Si  tau(   7) = (   0.2360970   0.1809560   0.2852540  )
         8           Si  tau(   8) = (   0.4453250   0.8919020   0.2379920  )
         9           Si  tau(   9) = (   0.3969200   0.2537730   0.9176810  )
        10           Si  tau(  10) = (   0.4970280   0.5742440   0.0861344  )
        11           Si  tau(  11) = (   0.4197870   0.5671050   0.4011680  )
        12           Si  tau(  12) = (   0.7437990   0.0548508   0.0871317  )
        13           Si  tau(  13) = (   0.9206650   0.8676190   0.5320310  )
        14           Si  tau(  14) = (   0.3042220   0.1265310   0.4989370  )
        15           Si  tau(  15) = (   0.6343620   0.4628150   0.4512520  )
        16           Si  tau(  16) = (   0.2026720   0.6781290   0.8338670  )
        17           Si  tau(  17) = (   0.9634550   0.2094590   0.7373800  )
        18           Si  tau(  18) = (   0.0424461   0.0742356   0.5013380  )
        19           Si  tau(  19) = (   0.1437030   0.5992680   0.4375300  )
        20           Si  tau(  20) = (   0.0201909   0.5513960   0.1791640  )
        21           Si  tau(  21) = (   0.1116840   0.3625600   0.4201690  )
        22           Si  tau(  22) = (   0.7558130   0.0350504   0.7973920  )
        23           Si  tau(  23) = (   0.7061980   0.6273110   0.1890940  )
        24           Si  tau(  24) = (   0.9049720   0.3081430   0.3345820  )
        25           Si  tau(  25) = (   0.1979930   0.9134990   0.3215250  )
        26           Si  tau(  26) = (   0.3979220   0.4342510   0.6934600  )
        27           Si  tau(  27) = (   0.0177426   0.1342480   0.2608160  )
        28           Si  tau(  28) = (   0.0838466   0.2144270   0.0367932  )
        29           Si  tau(  29) = (   0.5730150   0.0858546   0.5152040  )
        30           Si  tau(  30) = (   0.2845910   0.6428970   0.1923920  )
        31           Si  tau(  31) = (   0.8765540   0.4111900   0.0670997  )
        32           Si  tau(  32) = (   0.6753940   0.3780020   0.2287480  )
        33           Si  tau(  33) = (   0.8558820   0.3244130   0.5771010  )
        34           Si  tau(  34) = (   0.6175410   0.2889700   0.6066090  )
        35           Si  tau(  35) = (   0.5501030   0.0640081   0.8920180  )
        36           Si  tau(  36) = (   0.5594480   0.6836520   0.8730740  )
        37           Si  tau(  37) = (   0.4998710   0.1134180   0.2413230  )
        38           Si  tau(  38) = (   0.2341570   0.2921980   0.6122030  )
        39           Si  tau(  39) = (   0.1796780   0.8583100   0.0770903  )
        40           Si  tau(  40) = (   0.3026410   0.3956980   0.3059260  )
        41           Si  tau(  41) = (   0.7048050   0.5137030   0.7731420  )
        42           Si  tau(  42) = (   0.8197600   0.0842930   0.5421170  )
        43           Si  tau(  43) = (   0.9880800   0.7870630   0.3392860  )
        44           Si  tau(  44) = (   0.3506000   0.6376460   0.5945930  )
        45           Si  tau(  45) = (   0.7732340   0.8315950   0.7816660  )
        46           Si  tau(  46) = (   0.7782370   0.7925800   0.0388515  )
        47           Si  tau(  47) = (   0.0674479   0.4297980   0.7812400  )
        48           Si  tau(  48) = (   0.0047959   0.5526920   0.6173130  )
        49           Si  tau(  49) = (   0.2608770   0.8678620   0.5518940  )
        50           Si  tau(  50) = (   0.4808010   0.3314190   0.0977521  )
        51           Si  tau(  51) = (   0.1830860   0.1948590   0.8242820  )
        52           Si  tau(  52) = (   0.8682710   0.5569340   0.3449100  )
        53           Si  tau(  53) = (   0.8917040   0.4984490   0.8828250  )
        54           Si  tau(  54) = (   0.1470680   0.9867270   0.7163730  )
        55           Si  tau(  55) = (   0.7578040   0.6032950   0.5788570  )
        56           Si  tau(  56) = (   0.3255340   0.8640200   0.8751200  )
        57           Si  tau(  57) = (   0.6756740   0.8281390   0.4932530  )
        58           Si  tau(  58) = (   0.8164170   0.2142560   0.9494480  )
        59           Si  tau(  59) = (   0.6242200   0.3083720   0.8306810  )
        60           Si  tau(  60) = (   0.0056562   0.6796040   0.9846140  )
        61           Si  tau(  61) = (   0.1940950   0.4219980   0.1111000  )
        62           Si  tau(  62) = (   0.5363190   0.8607560   0.0292287  )
        63           Si  tau(  63) = (   0.9647380   0.9183980   0.1583080  )
        64           Si  tau(  64) = (   0.5305740   0.7937310   0.6647590  )

     number of k points=     1  Fermi-Dirac smearing, width (Ry)=  0.0100
                       cart. coord. in units 2pi/alat
        k(    1) = (   0.0000000   0.0000000   0.0000000), wk =   2.0000000

     Dense  grid:    90978 G-vectors     FFT dimensions: (  72,  72,  72)

     Estimated max dynamical RAM per process >     145.92 MB

     Estimated total dynamical RAM >     561.48 MB

     Initial potential from superposition of free atoms

     starting charge     255.9608, renormalised to     256.0000
     Starting wfcs are  256 randomized atomic wfcs

     total cpu time spent up to now is        5.0 secs

     Self-consistent Calculation

     iteration #  1     ecut=    30.00 Ry     beta= 0.50
     Davidson diagonalization with overlap
     ethr =  1.00E-02,  avg # of iterations =  3.0

     Threshold (ethr) on eigenvalues was too large:
     Diagonalizing with lowered threshold

     Davidson diagonalization with overlap
     ethr =  4.31E-04,  avg # of iterations =  4.0

     total cpu time spent up to now is        5.3 secs

     total energy              =    -501.20546645 Ry
     estimated scf accuracy    <       1.32091020 Ry

     iteration #  2     ecut=    30.00 Ry     beta= 0.50
     Davidson diagonalization with overlap
     ethr =  5.16E-04,  avg # of iterations =  5.0

     total cpu time spent up to now is        5.4 secs

     total energy              =    -500.48372736 Ry
     estimated scf accuracy    <      10.05013979 Ry

     iteration #  3     ecut=    30.00 Ry     beta= 0.50
     Davidson diagonalization with overlap
     ethr =  5.16E-04,  avg # of iterations =  4.0

     total cpu time spent up to now is        5.5 secs

     total energy              =    -501.38458501 Ry
     estimated scf accuracy    <       1.57436567 Ry

     iteration #  4     ecut=    30.00 Ry     beta= 0.50
     Davidson diagonalization with overlap
     ethr =  5.16E-04,  avg # of iterations =  2.0

     total cpu time spent up to now is        5.6 secs

     total energy              =    -501.48967099 Ry
     estimated scf accuracy    <       0.46919943 Ry

     iteration #  5     ecut=    30.00 Ry     beta= 0.50
     Davidson diagonalization with overlap
     ethr =  1.83E-04,  avg # of iterations =  2.0

     total cpu time spent up to now is        5.7 secs

     total energy              =    -501.50716767 Ry
     estimated scf accuracy    <       0.51538518 Ry

     iteration #  6     ecut=    30.00 Ry     beta= 0.50
     Davidson diagonalization with overlap
     ethr =  1.83E-04,  avg # of iterations =  2.0

     total cpu time spent up to now is        5.8 secs

     total energy              =    -501.55062684 Ry
     estimated scf accuracy    <       0.06457358 Ry

     iteration #  7     ecut=    30.00 Ry     beta= 0.50
     Davidson diagonalization with overlap
     ethr =  2.52E-05,  avg # of iterations =  8.0

     total cpu time spent up to now is        6.0 secs

     total energy              =    -501.55902967 Ry
     estimated scf accuracy    <       0.02309907 Ry

     iteration #  8     ecut=    30.00 Ry     beta= 0.50
     Davidson diagonalization with overlap
     ethr =  9.02E-06,  avg # of iterations =  3.0

     total cpu time spent up to now is        6.1 secs

     total energy              =    -501.56113942 Ry
     estimated scf accuracy    <       0.02503284 Ry

     iteration #  9     ecut=    30.00 Ry     beta= 0.50
     Davidson diagonalization with overlap
     ethr =  9.02E-06,  avg # of iterations =  2.0

     total cpu time spent up to now is        6.2 secs

     total energy              =    -501.56299814 Ry
     estimated scf accuracy    <       0.00131476 Ry

     iteration # 10     ecut=    30.00 Ry     beta= 0.50
     Davidson diagonalization with overlap
     ethr =  5.14E-07,  avg # of iterations =  8.0

     total cpu time spent up to now is        6.3 secs

     total energy              =    -501.56303050 Ry
     estimated scf accuracy    <       0.00439220 Ry

     iteration # 11     ecut=    30.00 Ry     beta= 0.50
     Davidson diagonalization with overlap
     ethr =  5.14E-07,  avg # of iterations =  3.0

     total cpu time spent up to now is        6.4 secs

     total energy              =    -501.56332795 Ry
     estimated scf accuracy    <       0.00034215 Ry

     iteration # 12     ecut=    30.00 Ry     beta= 0.50
     Davidson diagonalization with overlap
     ethr =  1.34E-07,  avg # of iterations =  3.0

     total cpu time spent up to now is        6.5 secs

     total energy              =    -501.56335071 Ry
     estimated scf accuracy    <       0.00037883 Ry

     iteration # 13     ecut=    30.00 Ry     beta= 0.50
     Davidson diagonalization with overlap
     ethr =  1.34E-07,  avg # of iterations =  2.0

     total cpu time spent up to now is        6.6 secs

     total energy              =    -501.56337869 Ry
     estimated scf accuracy    <       0.00019243 Ry

     iteration # 14     ecut=    30.00 Ry     beta= 0.50
     Davidson diagonalization with overlap
     ethr =  7.52E-08,  avg # of iterations =  2.0

     total cpu time spent up to now is        6.7 secs

     total energy              =    -501.56339081 Ry
     estimated scf accuracy    <       0.00003804 Ry

     iteration # 15     ecut=    30.00 Ry     beta= 0.50
     Davidson diagonalization with overlap
     ethr =  1.49E-08,  avg # of iterations =  2.0

     total cpu time spent up to now is        6.8 secs

     total energy              =    -501.56339455 Ry
     estimated scf accuracy    <       0.00001964 Ry

     iteration # 16     ecut=    30.00 Ry     beta= 0.50
     Davidson diagonalization with overlap
     ethr =  7.67E-09,  avg # of iterations =  2.0

     total cpu time spent up to now is        6.9 secs

     total energy              =    -501.56339614 Ry
     estimated scf accuracy    <       0.00000812 Ry

     iteration # 17     ecut=    30.00 Ry     beta= 0.50
     Davidson diagonalization with overlap
     ethr =  3.17E-09,  avg # of iterations =  2.0

     total cpu time spent up to now is        7.0 secs

     total energy              =    -501.56339673 Ry
     estimated scf accuracy    <       0.00000182 Ry

     iteration # 18     ecut=    30.00 Ry     beta= 0.50
     Davidson diagonalization with overlap
     ethr =  7.10E-10,  avg # of iterations =  3.0

     total cpu time spent up to now is        7.1 secs

     total energy              =    -501.56339697 Ry
     estimated scf accuracy    <       0.00000262 Ry

     iteration # 19     ecut=    30.00 Ry     beta= 0.50
     Davidson diagonalization with overlap
     ethr =  7.10E-10,  avg # of iterations =  2.0

     total cpu time spent up to now is        7.2 secs

     End of self-consistent calculation

          k = 0.0000 0.0000 0.0000 ( 11372 PWs)   bands (ev):

    -5.4007  -4.4569  -4.3348  -4.2319  -4.1835  -4.0506  -3.9122  -3.4042
    -3.2881  -3.2185  -3.1440  -3.0521  -2.9874  -2.9611  -2.8217  -2.7480
    -2.7221  -2.6312  -2.3798  -2.1797  -1.9846  -1.9061  -1.8122  -1.7477
    -1.6080  -1.5042  -1.4732  -0.9856  -0.8840  -0.7399  -0.6289  -0.4931
    -0.2889  -0.1013  -0.0444   0.0221   0.0714   0.1185   0.1809   0.3457
     0.3743   0.4310   0.5603   0.6213   0.6529   0.7044   0.8312   0.9992
     1.0054   1.1187   1.1975   1.2992   1.3560   1.3949   1.4581   1.4974
     1.6646   1.7142   1.8410   1.8634   1.9011   2.1078   2.2732   2.4357
     2.4726   2.5544   2.6725   2.7167   2.8425   2.9301   2.9418   2.9930
     3.1186   3.1807   3.2123   3.3019   3.3442   3.4563   3.6320   3.6802
     3.8107   4.1306   4.2123   4.3208   4.3940   4.4662   4.5996   4.7354
     4.7827   4.8255   4.8533   4.9016   4.9613   5.0316   5.1329   5.1830
     5.2262   5.2721   5.4014   5.4640   5.4925   5.5369   5.5429   5.6400
     5.6514   5.7124   5.7426   5.7969   5.9047   5.9454   6.0206   6.0713
     6.1098   6.1509   6.1848   6.2605   6.3163   6.3346   6.4267   6.5037
     6.5660   6.6082   6.6829   6.7729   6.7929   6.8317   6.9024   6.9555
     7.0155   7.0683   7.1711   7.2029   7.2914   7.3418   7.4234   7.4989
     7.5856   7.6879   7.7382   7.7465   7.8165   7.8752   7.9490   8.0034
     8.1058   8.1747   8.2275   8.2487   8.4006   8.4127   8.4480   8.5531
     8.5998   8.6763

     the Fermi energy is     7.0013 ev

!    total energy              =    -501.56339693 Ry
     estimated scf accuracy    <       0.00000029 Ry
     smearing contrib. (-TS)   =      -0.14535044 Ry
     internal energy E=F+TS    =    -501.41804649 Ry

     The total energy is F=E-TS. E is the sum of the following terms:
     one-electron contribution =     185.47998035 Ry
     hartree contribution      =      24.84706614 Ry
     xc contribution           =    -150.54974526 Ry
     ewald contribution        =    -561.19534773 Ry

     convergence has been achieved in  19 iterations

     Forces acting on atoms (cartesian axes, Ry/au):

     atom    1 type  1   force =    -0.01881525   -0.01916698    0.00486811
     atom    2 type  1   force =    -0.02752556    0.00731040   -0.00730388
     atom    3 type  1   force =     0.00621955   -0.04235745    0.00318860
     atom    4 type  1   force =    -0.01218850   -0.00739490    0.01435065
     atom    5 type  1   force =    -0.03816103   -0.03033432   -0.03315731
     atom    6 type  1   force =    -0.00543088    0.01751601    0.00396447
     atom    7 type  1   force =     0.02442833   -0.02521289    0.00050298
     atom    8 type  1   force =    -0.01198277    0.00797749   -0.00068401
     atom    9 type  1   force =     0.00119324   -0.01826138   -0.03025334
     atom   10 type  1   force =     0.00079613   -0.00720346   -0.02052127
     atom   11 type  1   force =     0.06200117    0.00436581   -0.02199523
     atom   12 type  1   force =    -0.01334376   -0.04275518    0.01305748
     atom   13 type  1   force =    -0.01702314    0.02499336   -0.00221054
     atom   14 type  1   force =     0.03233608   -0.05023486   -0.02367243
     atom   15 type  1   force =    -0.03293976   -0.01574245   -0.00437208
     atom   16 type  1   force =    -0.02858492   -0.00938790    0.01437665
     atom   17 type  1   force =    -0.01992740   -0.00591306    0.00525577
     atom   18 type  1   force =     0.01491596   -0.02632607    0.00374717
     atom   19 type  1   force =    -0.01768912    0.00998550    0.00245604
     atom   20 type  1   force =     0.00718378   -0.00624425   -0.02291639
     atom   21 type  1   force =    -0.00621265    0.00928825    0.03310790
     atom   22 type  1   force =     0.00300028    0.06456278   -0.02312216
     atom   23 type  1   force =    -0.01292012   -0.00112610   -0.01227330
     atom   24 type  1   force =    -0.03944652    0.03183147    0.04619543
     atom   25 type  1   force =    -0.00107373    0.00776021    0.00163305
     atom   26 type  1   force =     0.00664877   -0.00971115    0.00684711
     atom   27 type  1   force =     0.01685470   -0.03516473   -0.01893867
     atom   28 type  1   force =     0.02263737    0.02300362    0.01952874
     atom   29 type  1   force =    -0.01059006   -0.00080944   -0.01242641
     atom   30 type  1   force =     0.01960404    0.00730846    0.00062010
     atom   31 type  1   force =    -0.01870851   -0.05290902    0.07981510
     atom   32 type  1   force =     0.02899706   -0.01059964   -0.00165411
     atom   33 type  1   force =    -0.00580445   -0.00490736   -0.03136400
     atom   34 type  1   force =    -0.00145484    0.01301842   -0.00681051
     atom   35 type  1   force =    -0.01701953   -0.02612846    0.00894774
     atom   36 type  1   force =     0.01238084   -0.00459505    0.00870048
     atom   37 type  1   force =    -0.00769689   -0.01124774   -0.00178234
     atom   38 type  1   force =    -0.01373148    0.04161401    0.02837218
     atom   39 type  1   force =     0.00566539   -0.00980923    0.00606679
     atom   40 type  1   force =     0.02426741   -0.00141502   -0.03762052
     atom   41 type  1   force =    -0.02699085    0.01616680    0.01615024
     atom   42 type  1   force =    -0.02538710    0.00739507    0.01641182
     atom   43 type  1   force =     0.02275684   -0.03175767    0.02537149
     atom   44 type  1   force =    -0.00748140    0.02558337    0.01568924
     atom   45 type  1   force =     0.02574487   -0.07411950    0.01052846
     atom   46 type  1   force =     0.01449771    0.01971665   -0.01083173
     atom   47 type  1   force =     0.04271220   -0.03326874    0.02460516
     atom   48 type  1   force =    -0.01824229    0.02685440   -0.03329747
     atom   49 type  1   force =     0.01656637    0.02119409    0.00645300
     atom   50 type  1   force =     0.01569827    0.03877871    0.05973722
     atom   51 type  1   force =     0.00388304    0.00501118   -0.01720025
     atom   52 type  1   force =    -0.00703454    0.01823222   -0.01060871
     atom   53 type  1   force =     0.00739257    0.05908259   -0.02635027
     atom   54 type  1   force =    -0.00508616   -0.01643886   -0.01922489
     atom   55 type  1   force =     0.01671160    0.01231605   -0.02941921
     atom   56 type  1   force =     0.02699011    0.02667992    0.01901547
     atom   57 type  1   force =     0.03531932    0.01363060    0.07111397
     atom   58 type  1   force =     0.00033668    0.01467100   -0.03268440
     atom   59 type  1   force =    -0.01483775    0.00916747   -0.01400938
     atom   60 type  1   force =     0.00085295   -0.00791864   -0.00364483
     atom   61 type  1   force =    -0.01399368   -0.00156970   -0.01853979
     atom   62 type  1   force =    -0.00182694    0.03037798   -0.03924708
     atom   63 type  1   force =    -0.00025147    0.01288988   -0.00659175
     atom   64 type  1   force =    -0.01918957    0.01174742    0.00404968

     Total force =     0.325097     Total SCF correction =     0.001017


     Computing stress (Cartesian axis) and pressure

          total   stress  (Ry/bohr**3)                   (kbar)     P=      -39.11
  -0.00031391  -0.00001749   0.00000669          -46.18       -2.57        0.98
  -0.00001749  -0.00024372   0.00005338           -2.57      -35.85        7.85
   0.00000669   0.00005338  -0.00023992            0.98        7.85      -35.29

 
     init_run     :      1.09s CPU      4.93s WALL (       1 calls)
     electrons    :      2.02s CPU      2.18s WALL (       1 calls)
     forces       :      0.04s CPU      0.04s WALL (       1 calls)
     stress       :      0.15s CPU      0.16s WALL (       1 calls)

     Called by init_run:
     wfcinit      :      0.55s CPU      4.21s WALL (       1 calls)
                                        4.21s GPU  (       1 calls)
     potinit      :      0.06s CPU      0.15s WALL (       1 calls)
     hinit0       :      0.46s CPU      0.50s WALL (       1 calls)

     Called by electrons:
     c_bands      :      1.19s CPU      1.26s WALL (      20 calls)
     sum_band     :      0.41s CPU      0.46s WALL (      20 calls)
     v_of_rho     :      0.19s CPU      0.30s WALL (      20 calls)
     mix_rho      :      0.19s CPU      0.21s WALL (      20 calls)

     Called by c_bands:
     init_us_2    :      0.07s CPU      0.08s WALL (      41 calls)
     init_us_2:gp :      0.07s CPU      0.08s WALL (      41 calls)
     regterg      :      1.02s CPU      1.07s WALL (      20 calls)

     Called by *egterg:
     rdiaghg      :      0.41s CPU      1.16s WALL (      83 calls)
                                        1.14s GPU  (      83 calls)
     h_psi        :      0.96s CPU      3.91s WALL (      85 calls)
                                        3.91s GPU  (      85 calls)
     g_psi        :      0.00s CPU      0.00s WALL (      64 calls)
                                        0.00s GPU  (      64 calls)

     Called by h_psi:
     h_psi:calbec :      0.51s CPU      3.38s WALL (      85 calls)
                                        3.38s GPU  (      85 calls)
     vloc_psi     :      0.40s CPU      0.47s WALL (      85 calls)
                                        0.47s GPU  (      85 calls)
     add_vuspsi   :      0.03s CPU      0.05s WALL (      85 calls)
                                        0.05s GPU  (      85 calls)

     General routines
     calbec       :      0.52s CPU      3.38s WALL (      90 calls)
     fft          :      0.63s CPU      0.76s WALL (     167 calls)
                                        0.14s GPU  (     106 calls)
     ffts         :      0.05s CPU      0.06s WALL (      20 calls)
     fftw         :      0.49s CPU      0.64s WALL (    2100 calls)
                                        0.56s GPU  (    2100 calls)
 
     Parallel routines
 
     PWSCF        :      3.34s CPU      7.39s WALL

 
   This run was terminated on:  10:50: 5  10May2023            

=------------------------------------------------------------------------------=
   JOB DONE.
=------------------------------------------------------------------------------=
