An instance of this daemon is already running

     Program PWSCF v.7.1 starts on 10May2023 at 10:41:33 

     This program is part of the open-source Quantum ESPRESSO suite
     for quantum simulation of materials; please cite
         "P. Giannozzi et al., J. Phys.:Condens. Matter 21 395502 (2009);
         "P. Giannozzi et al., J. Phys.:Condens. Matter 29 465901 (2017);
         "P. Giannozzi et al., J. Chem. Phys. 152 154105 (2020);
          URL http://www.quantum-espresso.org", 
     in publications or presentations arising from this work. More details at
     http://www.quantum-espresso.org/quote

     Parallel version (MPI & OpenMP), running on       4 processor cores
     Number of MPI processes:                 4
     Threads/MPI process:                     1

     MPI processes distributed on     1 nodes
     753555 MiB available memory on the printing compute node when the environment starts
 
     Reading input from pw-si-25.in
Warning: card &CELL ignored
Warning: card / ignored

     Current dimensions of program PWSCF are:
     Max number of different atomic species (ntypx) = 10
     Max number of k-points (npk) =  40000
     Max angular momentum in pseudopotentials (lmaxx) =  4

     IMPORTANT: XC functional enforced from input :
     Exchange-correlation= PBE
                           (   1   4   3   4   0   0   0)
     Any further DFT definition will be discarded
     Please, verify this is what you really want


     gamma-point specific algorithms are used
 
     K-points division:     npool     =       2
     R & G space division:  proc/nbgrp/npool/nimage =       2
     Subspace diagonalization in iterative solution of the eigenvalue problem:
     a serial algorithm will be used

     Message from routine divide_et_impera:
     suboptimal parallelization: some nodes have no k-points
 
     Parallelization info
     --------------------
     sticks:   dense  smooth     PW     G-vecs:    dense   smooth      PW
     Min        1908    1908    502                89100    89100   12102
     Max        1909    1909    503                89105    89105   12105
     Sum        3817    3817   1005               178205   178205   24207
 
     Using Slab Decomposition
 


     bravais-lattice index     =            0
     lattice parameter (alat)  =      20.0209  a.u.
     unit-cell volume          =    8025.1661 (a.u.)^3
     number of atoms/cell      =           64
     number of atomic types    =            1
     number of electrons       =       256.00
     number of Kohn-Sham states=          154
     kinetic-energy cutoff     =      30.0000  Ry
     charge density cutoff     =     120.0000  Ry
     scf convergence threshold =      1.0E-06
     mixing beta               =       0.5000
     number of iterations used =            8  plain     mixing
     Exchange-correlation= PBE
                           (   1   4   3   4   0   0   0)

     GPU acceleration is ACTIVE.
     GPU-aware MPI enabled

     Message from routine print_cuda_info:
     High GPU oversubscription detected. Are you sure this is what you want?

     celldm(1)=  20.020950  celldm(2)=   0.000000  celldm(3)=   0.000000
     celldm(4)=   0.000000  celldm(5)=   0.000000  celldm(6)=   0.000000

     crystal axes: (cart. coord. in units of alat)
               a(1) = (   1.000000   0.000000   0.000000 )  
               a(2) = (   0.000000   1.000000   0.000000 )  
               a(3) = (   0.000000   0.000000   1.000000 )  

     reciprocal axes: (cart. coord. in units 2 pi/alat)
               b(1) = (  1.000000  0.000000  0.000000 )  
               b(2) = (  0.000000  1.000000  0.000000 )  
               b(3) = (  0.000000  0.000000  1.000000 )  


     PseudoPot. # 1 for Si read from file:
     /home/ppiaggi/pseudos/Si_ONCV_PBE_sr.upf
     MD5 check sum: 8553c464762ac42b85b1eed164b4d029
     Pseudo is Norm-conserving, Zval =  4.0
     Generated using ONCVPSP code by D. R. Hamann
     Using radial grid of 1510 points,  4 beta functions with: 
                l(1) =   0
                l(2) =   0
                l(3) =   1
                l(4) =   1

     atomic species   valence    mass     pseudopotential
        Si             4.00    28.08500     Si( 1.00)

     No symmetry found



   Cartesian axes

     site n.     atom                  positions (alat units)
         1           Si  tau(   1) = (   0.0727476   0.8025740   0.3602360  )
         2           Si  tau(   2) = (   0.4801970   0.1568670   0.4276540  )
         3           Si  tau(   3) = (   0.9430380   0.9807990   0.8212760  )
         4           Si  tau(   4) = (   0.9844940   0.9974690   0.2617130  )
         5           Si  tau(   5) = (   0.9718240   0.3499280   0.9425750  )
         6           Si  tau(   6) = (   0.8563220   0.5966520   0.6777740  )
         7           Si  tau(   7) = (   0.3467290   0.5396760   0.3878980  )
         8           Si  tau(   8) = (   0.2783520   0.2506740   0.5662250  )
         9           Si  tau(   9) = (   0.0501067   0.1901240   0.1087370  )
        10           Si  tau(  10) = (   0.6394530   0.9210950   0.9040760  )
        11           Si  tau(  11) = (   0.4695450   0.3485700   0.3153320  )
        12           Si  tau(  12) = (   0.2301710   0.9943640   0.0788820  )
        13           Si  tau(  13) = (   0.5159420   0.9992570   0.1868000  )
        14           Si  tau(  14) = (   0.0343243   0.7674650   0.8094950  )
        15           Si  tau(  15) = (   0.5695730   0.7279010   0.8233220  )
        16           Si  tau(  16) = (   0.3510920   0.9343800   0.3799750  )
        17           Si  tau(  17) = (   0.2529950   0.7794950   0.2486630  )
        18           Si  tau(  18) = (   0.9209520   0.6595650   0.2829010  )
        19           Si  tau(  19) = (   0.4169870   0.1380890   0.7850660  )
        20           Si  tau(  20) = (   0.3264600   0.9282220   0.8444700  )
        21           Si  tau(  21) = (   0.7278220   0.5986330   0.8705130  )
        22           Si  tau(  22) = (   0.4837790   0.6392490   0.2074280  )
        23           Si  tau(  23) = (   0.0733421   0.4985410   0.2872000  )
        24           Si  tau(  24) = (   0.7474980   0.8679840   0.5482880  )
        25           Si  tau(  25) = (   0.1447320   0.0520133   0.8658920  )
        26           Si  tau(  26) = (   0.6841910   0.8135430   0.1647170  )
        27           Si  tau(  27) = (   0.8253210   0.2158780   0.8197900  )
        28           Si  tau(  28) = (   0.7752340   0.4210580   0.1181200  )
        29           Si  tau(  29) = (   0.8648720   0.6622150   0.0603460  )
        30           Si  tau(  30) = (   0.3307280   0.1946180   0.1531400  )
        31           Si  tau(  31) = (   0.4114140   0.8384720   0.0614751  )
        32           Si  tau(  32) = (   0.3967360   0.3603920   0.8421840  )
        33           Si  tau(  33) = (   0.2600850   0.5672930   0.7431410  )
        34           Si  tau(  34) = (   0.1895090   0.5787920   0.1066080  )
        35           Si  tau(  35) = (   0.6605050   0.3942900   0.8367740  )
        36           Si  tau(  36) = (   0.7223040   0.2182040   0.0621648  )
        37           Si  tau(  37) = (   0.7056040   0.1513730   0.3380040  )
        38           Si  tau(  38) = (   0.2173740   0.0241964   0.5797590  )
        39           Si  tau(  39) = (   0.9276950   0.1558970   0.4594860  )
        40           Si  tau(  40) = (   0.5190650   0.1147480   0.9893160  )
        41           Si  tau(  41) = (   0.5847150   0.7129260   0.5811200  )
        42           Si  tau(  42) = (   0.1557770   0.2567350   0.7805190  )
        43           Si  tau(  43) = (   0.4090760   0.6145410   0.9510600  )
        44           Si  tau(  44) = (   0.1755900   0.1598210   0.3501280  )
        45           Si  tau(  45) = (   0.6883210   0.6472890   0.3510720  )
        46           Si  tau(  46) = (   0.7563930   0.9424830   0.3446330  )
        47           Si  tau(  47) = (   0.9415400   0.3215140   0.2923360  )
        48           Si  tau(  48) = (   0.2463380   0.3515760   0.0214146  )
        49           Si  tau(  49) = (   0.0702371   0.5535120   0.8877730  )
        50           Si  tau(  50) = (   0.0356123   0.8308590   0.0545923  )
        51           Si  tau(  51) = (   0.2329160   0.8038280   0.6962470  )
        52           Si  tau(  52) = (   0.8383470   0.9878330   0.0346253  )
        53           Si  tau(  53) = (   0.0115459   0.9788250   0.5937400  )
        54           Si  tau(  54) = (   0.9654900   0.7818600   0.5672020  )
        55           Si  tau(  55) = (   0.6930860   0.0167536   0.7194380  )
        56           Si  tau(  56) = (   0.4421340   0.4673280   0.5861600  )
        57           Si  tau(  57) = (   0.5231150   0.4289410   0.0500738  )
        58           Si  tau(  58) = (   0.1241690   0.5651730   0.4878350  )
        59           Si  tau(  59) = (   0.8268250   0.3022730   0.5879450  )
        60           Si  tau(  60) = (   0.3716660   0.7541030   0.5332790  )
        61           Si  tau(  61) = (   0.6584960   0.4947460   0.5904890  )
        62           Si  tau(  62) = (   0.6843090   0.4169950   0.3578750  )
        63           Si  tau(  63) = (   0.5787260   0.2130690   0.6190020  )
        64           Si  tau(  64) = (   0.0386928   0.4253770   0.6519190  )

     number of k points=     1  Fermi-Dirac smearing, width (Ry)=  0.0100
                       cart. coord. in units 2pi/alat
        k(    1) = (   0.0000000   0.0000000   0.0000000), wk =   2.0000000

     Dense  grid:    89103 G-vectors     FFT dimensions: (  72,  72,  72)

     Estimated max dynamical RAM per process >     143.26 MB

     Estimated total dynamical RAM >     551.30 MB

     Initial potential from superposition of free atoms

     starting charge     255.9608, renormalised to     256.0000
     Starting wfcs are  256 randomized atomic wfcs

     total cpu time spent up to now is        5.0 secs

     Self-consistent Calculation

     iteration #  1     ecut=    30.00 Ry     beta= 0.50
     Davidson diagonalization with overlap
     ethr =  1.00E-02,  avg # of iterations =  3.0

     Threshold (ethr) on eigenvalues was too large:
     Diagonalizing with lowered threshold

     Davidson diagonalization with overlap
     ethr =  3.76E-04,  avg # of iterations =  5.0

     total cpu time spent up to now is        5.3 secs

     total energy              =    -501.26114916 Ry
     estimated scf accuracy    <       1.18478934 Ry

     iteration #  2     ecut=    30.00 Ry     beta= 0.50
     Davidson diagonalization with overlap
     ethr =  4.63E-04,  avg # of iterations =  4.0

     total cpu time spent up to now is        5.5 secs

     total energy              =    -500.91309467 Ry
     estimated scf accuracy    <       3.71738584 Ry

     iteration #  3     ecut=    30.00 Ry     beta= 0.50
     Davidson diagonalization with overlap
     ethr =  4.63E-04,  avg # of iterations =  3.0

     total cpu time spent up to now is        5.6 secs

     total energy              =    -501.25865253 Ry
     estimated scf accuracy    <       2.44103702 Ry

     iteration #  4     ecut=    30.00 Ry     beta= 0.50
     Davidson diagonalization with overlap
     ethr =  4.63E-04,  avg # of iterations =  2.0

     total cpu time spent up to now is        5.6 secs

     total energy              =    -501.40522581 Ry
     estimated scf accuracy    <       0.69222480 Ry

     iteration #  5     ecut=    30.00 Ry     beta= 0.50
     Davidson diagonalization with overlap
     ethr =  2.70E-04,  avg # of iterations =  2.0

     total cpu time spent up to now is        5.7 secs

     total energy              =    -501.44009814 Ry
     estimated scf accuracy    <       0.62203805 Ry

     iteration #  6     ecut=    30.00 Ry     beta= 0.50
     Davidson diagonalization with overlap
     ethr =  2.43E-04,  avg # of iterations =  1.0

     total cpu time spent up to now is        5.8 secs

     total energy              =    -501.49172752 Ry
     estimated scf accuracy    <       0.05354120 Ry

     iteration #  7     ecut=    30.00 Ry     beta= 0.50
     Davidson diagonalization with overlap
     ethr =  2.09E-05,  avg # of iterations =  3.0

     total cpu time spent up to now is        5.9 secs

     total energy              =    -501.50039822 Ry
     estimated scf accuracy    <       0.01666155 Ry

     iteration #  8     ecut=    30.00 Ry     beta= 0.50
     Davidson diagonalization with overlap
     ethr =  6.51E-06,  avg # of iterations = 11.0

     total cpu time spent up to now is        6.1 secs

     total energy              =    -501.50124857 Ry
     estimated scf accuracy    <       0.02964986 Ry

     iteration #  9     ecut=    30.00 Ry     beta= 0.50
     Davidson diagonalization with overlap
     ethr =  6.51E-06,  avg # of iterations =  2.0

     total cpu time spent up to now is        6.2 secs

     total energy              =    -501.50346450 Ry
     estimated scf accuracy    <       0.00153670 Ry

     iteration # 10     ecut=    30.00 Ry     beta= 0.50
     Davidson diagonalization with overlap
     ethr =  6.00E-07,  avg # of iterations =  4.0

     total cpu time spent up to now is        6.3 secs

     total energy              =    -501.50367075 Ry
     estimated scf accuracy    <       0.00081800 Ry

     iteration # 11     ecut=    30.00 Ry     beta= 0.50
     Davidson diagonalization with overlap
     ethr =  3.20E-07,  avg # of iterations =  3.0

     total cpu time spent up to now is        6.4 secs

     total energy              =    -501.50372349 Ry
     estimated scf accuracy    <       0.00066652 Ry

     iteration # 12     ecut=    30.00 Ry     beta= 0.50
     Davidson diagonalization with overlap
     ethr =  2.60E-07,  avg # of iterations =  2.0

     total cpu time spent up to now is        6.5 secs

     total energy              =    -501.50377934 Ry
     estimated scf accuracy    <       0.00014821 Ry

     iteration # 13     ecut=    30.00 Ry     beta= 0.50
     Davidson diagonalization with overlap
     ethr =  5.79E-08,  avg # of iterations =  3.0

     total cpu time spent up to now is        6.6 secs

     total energy              =    -501.50378179 Ry
     estimated scf accuracy    <       0.00023127 Ry

     iteration # 14     ecut=    30.00 Ry     beta= 0.50
     Davidson diagonalization with overlap
     ethr =  5.79E-08,  avg # of iterations =  2.0

     total cpu time spent up to now is        6.7 secs

     total energy              =    -501.50379684 Ry
     estimated scf accuracy    <       0.00000840 Ry

     iteration # 15     ecut=    30.00 Ry     beta= 0.50
     Davidson diagonalization with overlap
     ethr =  3.28E-09,  avg # of iterations =  4.0

     total cpu time spent up to now is        6.8 secs

     total energy              =    -501.50379861 Ry
     estimated scf accuracy    <       0.00001939 Ry

     iteration # 16     ecut=    30.00 Ry     beta= 0.50
     Davidson diagonalization with overlap
     ethr =  3.28E-09,  avg # of iterations =  3.0

     total cpu time spent up to now is        6.9 secs

     total energy              =    -501.50379970 Ry
     estimated scf accuracy    <       0.00000854 Ry

     iteration # 17     ecut=    30.00 Ry     beta= 0.50
     Davidson diagonalization with overlap
     ethr =  3.28E-09,  avg # of iterations =  2.0

     total cpu time spent up to now is        7.0 secs

     total energy              =    -501.50380009 Ry
     estimated scf accuracy    <       0.00000301 Ry

     iteration # 18     ecut=    30.00 Ry     beta= 0.50
     Davidson diagonalization with overlap
     ethr =  1.18E-09,  avg # of iterations =  2.0

     total cpu time spent up to now is        7.1 secs

     End of self-consistent calculation

          k = 0.0000 0.0000 0.0000 ( 11072 PWs)   bands (ev):

    -5.2927  -4.3699  -4.2924  -4.1337  -3.9529  -3.8582  -3.8460  -3.2244
    -3.0767  -3.0720  -3.0174  -2.9541  -2.8508  -2.7711  -2.7551  -2.6579
    -2.6247  -2.5010  -2.2501  -2.0580  -1.8409  -1.6875  -1.6141  -1.5808
    -1.4831  -1.3347  -1.2277  -0.8408  -0.7397  -0.4272  -0.3681  -0.2088
    -0.1623  -0.1031   0.0481   0.1277   0.2021   0.3598   0.4057   0.4833
     0.5039   0.5847   0.6681   0.7606   0.8370   0.9594   1.0374   1.1360
     1.2303   1.2768   1.3477   1.5042   1.5395   1.6258   1.6794   1.8091
     1.8992   2.0149   2.0822   2.1610   2.2869   2.3869   2.4583   2.4823
     2.6214   2.7608   2.7702   2.8286   2.8551   3.0332   3.0830   3.1338
     3.1820   3.2122   3.2983   3.3754   3.5264   3.5956   3.6536   3.8402
     3.9186   4.3498   4.4228   4.5827   4.6575   4.6643   4.8261   4.8566
     4.9534   5.0098   5.0728   5.1004   5.1547   5.2464   5.3172   5.3844
     5.4142   5.4688   5.5248   5.5729   5.7064   5.7115   5.7737   5.8573
     5.8705   5.9453   5.9929   6.0627   6.1634   6.2669   6.2789   6.3879
     6.4045   6.4345   6.4644   6.5325   6.5585   6.6744   6.7468   6.7627
     6.8443   6.8637   6.9476   7.0108   7.0577   7.1096   7.1712   7.2685
     7.2768   7.3204   7.3510   7.5490   7.5669   7.6234   7.6809   7.7119
     7.8197   7.8759   7.9103   8.0083   8.0450   8.0986   8.2095   8.2132
     8.2419   8.3163   8.4485   8.4746   8.5837   8.6067   8.7142   8.7193
     8.8452   8.9044

     the Fermi energy is     7.2665 ev

!    total energy              =    -501.50379974 Ry
     estimated scf accuracy    <       0.00000085 Ry
     smearing contrib. (-TS)   =      -0.14802911 Ry
     internal energy E=F+TS    =    -501.35577063 Ry

     The total energy is F=E-TS. E is the sum of the following terms:
     one-electron contribution =     195.29457502 Ry
     hartree contribution      =      22.10992225 Ry
     xc contribution           =    -151.17570107 Ry
     ewald contribution        =    -567.58456682 Ry

     convergence has been achieved in  18 iterations

     Forces acting on atoms (cartesian axes, Ry/au):

     atom    1 type  1   force =    -0.05544287    0.03248078    0.03050993
     atom    2 type  1   force =    -0.00113940   -0.02259173    0.01215764
     atom    3 type  1   force =    -0.03384754   -0.00042601   -0.01361319
     atom    4 type  1   force =    -0.00514851   -0.00349523   -0.00947920
     atom    5 type  1   force =     0.00831634   -0.00801493    0.00337603
     atom    6 type  1   force =     0.01907122   -0.00795340    0.01078560
     atom    7 type  1   force =    -0.00414426    0.01073545    0.02903926
     atom    8 type  1   force =     0.00541359   -0.01695494   -0.00132169
     atom    9 type  1   force =    -0.00932550    0.00690860    0.03005183
     atom   10 type  1   force =    -0.01580526    0.01874036    0.04270488
     atom   11 type  1   force =    -0.00612523    0.02520018   -0.02419485
     atom   12 type  1   force =    -0.01746590   -0.00219357   -0.00642196
     atom   13 type  1   force =     0.00296470   -0.01977741    0.02062455
     atom   14 type  1   force =     0.00196701   -0.00459747   -0.00976905
     atom   15 type  1   force =    -0.03736212    0.01971890   -0.01274456
     atom   16 type  1   force =    -0.00248155    0.03288274    0.00821694
     atom   17 type  1   force =     0.05054808   -0.00945492   -0.04771394
     atom   18 type  1   force =    -0.04548060   -0.00543445   -0.00691622
     atom   19 type  1   force =     0.02644551    0.00166053   -0.01305968
     atom   20 type  1   force =     0.02729851    0.02829123    0.03600481
     atom   21 type  1   force =     0.07593387   -0.00098633    0.01788662
     atom   22 type  1   force =     0.01789808    0.00081593   -0.00842360
     atom   23 type  1   force =    -0.01509292   -0.01305477   -0.01910550
     atom   24 type  1   force =     0.02204102   -0.01252591    0.03413165
     atom   25 type  1   force =    -0.00088762    0.00937373    0.01867558
     atom   26 type  1   force =    -0.00386441   -0.00739726    0.00537349
     atom   27 type  1   force =    -0.01972194    0.00499290   -0.00976760
     atom   28 type  1   force =     0.03277812    0.02994300    0.01807116
     atom   29 type  1   force =    -0.02375677   -0.00493117   -0.00364585
     atom   30 type  1   force =    -0.00255229   -0.02350888    0.02092640
     atom   31 type  1   force =     0.00039196   -0.01970359   -0.00161371
     atom   32 type  1   force =    -0.00181043    0.02427702   -0.00467244
     atom   33 type  1   force =     0.03073462   -0.00618555    0.01954266
     atom   34 type  1   force =     0.01042105   -0.01273424   -0.03879988
     atom   35 type  1   force =    -0.02515006   -0.02513105   -0.01360336
     atom   36 type  1   force =    -0.02337981   -0.07503612   -0.02073108
     atom   37 type  1   force =    -0.02263666    0.02647739   -0.02199229
     atom   38 type  1   force =     0.05052508    0.00357508   -0.02031180
     atom   39 type  1   force =    -0.00981639   -0.01250879   -0.03837349
     atom   40 type  1   force =     0.03736153    0.00269795    0.00362943
     atom   41 type  1   force =     0.01338877    0.00392499    0.00976325
     atom   42 type  1   force =     0.01909099    0.03075398   -0.00489961
     atom   43 type  1   force =    -0.01430721    0.00074372   -0.00433847
     atom   44 type  1   force =    -0.00106203   -0.01789554   -0.01066876
     atom   45 type  1   force =    -0.00572242   -0.00666248    0.00503955
     atom   46 type  1   force =     0.03697828   -0.02039306   -0.04970085
     atom   47 type  1   force =     0.00155491   -0.01808172   -0.04274476
     atom   48 type  1   force =    -0.02653627    0.02947283   -0.01456493
     atom   49 type  1   force =     0.00668271   -0.00121081    0.01564322
     atom   50 type  1   force =    -0.00021229    0.00972106    0.00665342
     atom   51 type  1   force =    -0.02742335   -0.01975951    0.00514238
     atom   52 type  1   force =     0.00336524    0.00122428    0.00707314
     atom   53 type  1   force =    -0.02089110    0.08542893    0.01809022
     atom   54 type  1   force =    -0.03897682   -0.08959301   -0.01560188
     atom   55 type  1   force =     0.02109110    0.05032929   -0.04018739
     atom   56 type  1   force =    -0.04744023   -0.01111869    0.01325925
     atom   57 type  1   force =     0.00810384    0.02219222    0.00625178
     atom   58 type  1   force =     0.03754684    0.00799161    0.03455320
     atom   59 type  1   force =    -0.02166738    0.02010227    0.04140258
     atom   60 type  1   force =     0.01595068   -0.01959837   -0.04393438
     atom   61 type  1   force =     0.04087176   -0.01015304   -0.00793563
     atom   62 type  1   force =    -0.01228662    0.01686454    0.00582111
     atom   63 type  1   force =     0.00140105   -0.03009100    0.03576699
     atom   64 type  1   force =    -0.02717270    0.00163345    0.01468309

     Total force =     0.337906     Total SCF correction =     0.001875


     Computing stress (Cartesian axis) and pressure

          total   stress  (Ry/bohr**3)                   (kbar)     P=      -25.40
  -0.00011714   0.00004355   0.00006993          -17.23        6.41       10.29
   0.00004355  -0.00011797  -0.00000590            6.41      -17.35       -0.87
   0.00006993  -0.00000590  -0.00028286           10.29       -0.87      -41.61

 
     init_run     :      1.09s CPU      4.97s WALL (       1 calls)
     electrons    :      1.89s CPU      2.05s WALL (       1 calls)
     forces       :      0.04s CPU      0.04s WALL (       1 calls)
     stress       :      0.15s CPU      0.15s WALL (       1 calls)

     Called by init_run:
     wfcinit      :      0.55s CPU      4.26s WALL (       1 calls)
                                        4.26s GPU  (       1 calls)
     potinit      :      0.05s CPU      0.14s WALL (       1 calls)
     hinit0       :      0.47s CPU      0.50s WALL (       1 calls)

     Called by electrons:
     c_bands      :      1.12s CPU      1.19s WALL (      19 calls)
     sum_band     :      0.38s CPU      0.42s WALL (      19 calls)
     v_of_rho     :      0.17s CPU      0.28s WALL (      19 calls)
     mix_rho      :      0.18s CPU      0.19s WALL (      19 calls)

     Called by c_bands:
     init_us_2    :      0.07s CPU      0.07s WALL (      39 calls)
     init_us_2:gp :      0.07s CPU      0.07s WALL (      39 calls)
     regterg      :      0.96s CPU      1.03s WALL (      19 calls)

     Called by *egterg:
     rdiaghg      :      0.40s CPU      1.16s WALL (      79 calls)
                                        1.14s GPU  (      79 calls)
     h_psi        :      0.94s CPU      3.94s WALL (      81 calls)
                                        3.93s GPU  (      81 calls)
     g_psi        :      0.00s CPU      0.00s WALL (      61 calls)
                                        0.00s GPU  (      61 calls)

     Called by h_psi:
     h_psi:calbec :      0.50s CPU      3.42s WALL (      81 calls)
                                        3.42s GPU  (      81 calls)
     vloc_psi     :      0.39s CPU      0.46s WALL (      81 calls)
                                        0.45s GPU  (      81 calls)
     add_vuspsi   :      0.03s CPU      0.05s WALL (      81 calls)
                                        0.05s GPU  (      81 calls)

     General routines
     calbec       :      0.51s CPU      3.42s WALL (      86 calls)
     fft          :      0.62s CPU      0.75s WALL (     159 calls)
                                        0.13s GPU  (     101 calls)
     ffts         :      0.05s CPU      0.05s WALL (      19 calls)
     fftw         :      0.47s CPU      0.61s WALL (    1993 calls)
                                        0.53s GPU  (    1993 calls)
 
     Parallel routines
 
     PWSCF        :      3.21s CPU      7.33s WALL

 
   This run was terminated on:  10:41:40  10May2023            

=------------------------------------------------------------------------------=
   JOB DONE.
=------------------------------------------------------------------------------=
