LAMMPS (23 Jun 2022 - Update 1)
  using 8 OpenMP thread(s) per MPI task
Loaded 1 plugins from /home/ppiaggi/.conda/envs/deepmd-2.1.3/lib/deepmd_lmp
Loaded 0 plugins from 
echo both

# Define some variables
variable	temperature equal 1350.
variable	tempDamp equal 0.1 # approx 0.1 ps
variable	pressure equal 1.
variable	pressureDamp equal 1.0
variable	seed equal 74581
variable	out_freq equal 1000
variable	out_freq2 equal 1000

# Setup
units		metal
atom_style	full

# Initial configuration
# Cubic diamond lattice
lattice 	diamond 5.49
Lattice spacing in x,y,z = 5.49 5.49 5.49
region          myreg block 0 3 0 3 0 3
create_box      1 myreg
Created orthogonal box = (0 0 0) to (16.47 16.47 16.47)
  1 by 1 by 1 MPI processor grid
create_atoms    1 region myreg
Created 216 atoms
  using lattice units in orthogonal box = (0 0 0) to (16.47 16.47 16.47)
  create_atoms CPU = 0.001 seconds
variable 	mass equal 28.0855
mass            1 ${mass}
mass            1 28.0855

# More setup options
timestep	0.001
neigh_modify    delay 10 every 1
pair_style      deepmd ../frozen_model_1_compressed.pb ../frozen_model_2_compressed.pb ../frozen_model_3_compressed.pb ../frozen_model_4_compressed.pb out_file md.out out_freq ${out_freq}
pair_style      deepmd ../frozen_model_1_compressed.pb ../frozen_model_2_compressed.pb ../frozen_model_3_compressed.pb ../frozen_model_4_compressed.pb out_file md.out out_freq 1000
Summary of lammps deepmd module ...
  >>> Info of deepmd-kit:
  installed to:       /home/ppiaggi/.conda/envs/deepmd-2.1.3
  source:             v2.1.3
  source branch:       HEAD
  source commit:      5a32c49e
  source commit at:   2022-07-01 09:52:58 +0800
  surpport model ver.:1.1 
  build float prec:   double
  build with tf inc:  /home/ppiaggi/.conda/envs/deepmd-2.1.3/include;/home/ppiaggi/.conda/envs/deepmd-2.1.3/include
  build with tf lib:  /home/ppiaggi/.conda/envs/deepmd-2.1.3/lib/libtensorflow_cc.so;/home/ppiaggi/.conda/envs/deepmd-2.1.3/lib/libtensorflow_framework.so
  set tf intra_op_parallelism_threads: 0
  set tf inter_op_parallelism_threads: 0
  >>> Info of lammps module:
  use deepmd-kit at:  /home/ppiaggi/.conda/envs/deepmd-2.1.3pair_coeff      * *
thermo          ${out_freq}
thermo          1000
thermo_style 	custom step temp pe press lx
restart 	${out_freq} Restart.lmp Restart2.lmp
restart 	1000 Restart.lmp Restart2.lmp
timer           timeout 01:50:00 every 1000
New timer settings: style=normal  mode=nosync  timeout=01:50:00


# Perform minimization
minimize 1.0e-2 1.0e-3 100 1000

CITE-CITE-CITE-CITE-CITE-CITE-CITE-CITE-CITE-CITE-CITE-CITE-CITE

Your simulation uses code contributions which should be cited:

- USER-DEEPMD package:

@article{Wang_ComputPhysCommun_2018_v228_p178,
  author = {Wang, Han and Zhang, Linfeng and Han, Jiequn and E, Weinan},
  doi = {10.1016/j.cpc.2018.03.016},
  url = {https://doi.org/10.1016/j.cpc.2018.03.016},
  year = 2018,
  month = {jul},
  publisher = {Elsevier {BV}},
  volume = 228,
  journal = {Comput. Phys. Commun.},
  title = {{DeePMD-kit: A deep learning package for many-body potential energy representation and molecular dynamics}},
  pages = {178--184}
}

CITE-CITE-CITE-CITE-CITE-CITE-CITE-CITE-CITE-CITE-CITE-CITE-CITE

WARNING: Using 'neigh_modify every 1 delay 0 check yes' setting during minimization (src/min.cpp:187)
Generated 0 of 0 mixed pair_coeff terms from geometric mixing rule
Neighbor list info ...
  update every 1 steps, delay 0 steps, check yes
  max neighbors/atom: 2000, page size: 100000
  master list distance cutoff = 8
  ghost atom cutoff = 8
  binsize = 4, bins = 5 5 5
  1 neighbor lists, perpetual/occasional/extra = 1 0 0
  (1) pair deepmd, perpetual
      attributes: full, newton on
      pair build: full/bin
      stencil: full/bin/3d
      bin: standard
Per MPI rank memory allocation (min/avg/max) = 13.39 | 13.39 | 13.39 Mbytes
   Step          Temp          PotEng         Press            Lx      
         0   0             -23144.011     -976.54338      16.47        
         1   0             -23144.043     -3815.0455      16.47        
Loop time of 0.0825425 on 8 procs for 1 steps with 216 atoms

97.3% CPU use with 1 MPI tasks x 8 OpenMP threads

Minimization stats:
  Stopping criterion = energy tolerance
  Energy initial, next-to-last, final = 
     -23144.0113153203  -23144.0113153203  -23144.0428887125
  Force two-norm initial, final = 0.80306351 0.76948815
  Force max component initial, final = 0.091669931 0.070711603
  Final line search alpha, max atom move = 0.03125 0.0022097376
  Iterations, force evaluations = 1 7

MPI task timing breakdown:
Section |  min time  |  avg time  |  max time  |%varavg| %total
---------------------------------------------------------------
Pair    | 0.081125   | 0.081125   | 0.081125   |   0.0 | 98.28
Bond    | 1.051e-06  | 1.051e-06  | 1.051e-06  |   0.0 |  0.00
Neigh   | 0.00079408 | 0.00079408 | 0.00079408 |   0.0 |  0.96
Comm    | 6.3253e-05 | 6.3253e-05 | 6.3253e-05 |   0.0 |  0.08
Output  | 0          | 0          | 0          |   0.0 |  0.00
Modify  | 0          | 0          | 0          |   0.0 |  0.00
Other   |            | 0.0005592  |            |       |  0.68

Nlocal:            216 ave         216 max         216 min
Histogram: 1 0 0 0 0 0 0 0 0 0
Nghost:           1314 ave        1314 max        1314 min
Histogram: 1 0 0 0 0 0 0 0 0 0
Neighs:              0 ave           0 max           0 min
Histogram: 1 0 0 0 0 0 0 0 0 0
FullNghs:        21168 ave       21168 max       21168 min
Histogram: 1 0 0 0 0 0 0 0 0 0

Total # of neighbors = 21168
Ave neighs/atom = 98
Ave special neighs/atom = 0
Neighbor list builds = 1
Dangerous builds = 0

reset_timestep 	0

# NVT equilibration

fix             1 all nve
fix             2 all temp/csvr ${temperature} ${temperature} ${tempDamp} ${seed}
fix             2 all temp/csvr 1350 ${temperature} ${tempDamp} ${seed}
fix             2 all temp/csvr 1350 1350 ${tempDamp} ${seed}
fix             2 all temp/csvr 1350 1350 0.1 ${seed}
fix             2 all temp/csvr 1350 1350 0.1 74581

velocity        all create ${temperature} ${seed} dist gaussian
velocity        all create 1350 ${seed} dist gaussian
velocity        all create 1350 74581 dist gaussian
run             25000
Generated 0 of 0 mixed pair_coeff terms from geometric mixing rule
Per MPI rank memory allocation (min/avg/max) = 12.27 | 12.27 | 12.27 Mbytes
   Step          Temp          PotEng         Press            Lx      
         0   1350          -23144.043      5154.577       16.47        
      1000   1257.0168     -23099.762      20828.728      16.47        
      2000   1247.5239     -23103.56       18776.811      16.47        
      3000   1260.2802     -23102.904      20700.362      16.47        
      4000   1348.9275     -23102.896      21834.268      16.47        
      5000   1333.7515     -23102.523      19475.636      16.47        
      6000   1325.4761     -23104.224      21354.892      16.47        
      7000   1295.2215     -23102.933      22234.534      16.47        
      8000   1421.952      -23103.851      22356.806      16.47        
      9000   1308.9702     -23103.024      21670.795      16.47        
     10000   1360.3214     -23103.267      21805.876      16.47        
     11000   1363.664      -23103.9        22458.756      16.47        
     12000   1269.2725     -23101.63       21942.169      16.47        
     13000   1391.3397     -23100.871      19950.14       16.47        
     14000   1378.7386     -23102.274      20496.537      16.47        
     15000   1274.7845     -23101.308      20825.918      16.47        
     16000   1304.8779     -23103.981      19056.487      16.47        
     17000   1432.7118     -23097.219      21323.721      16.47        
     18000   1476.692      -23105.207      19708.379      16.47        
     19000   1383.9181     -23104.729      21142.577      16.47        
     20000   1352.5923     -23101.274      19035.14       16.47        
     21000   1439.5768     -23100.873      22498.252      16.47        
     22000   1350.114      -23100.728      19343.906      16.47        
     23000   1298.9984     -23101.154      23410.035      16.47        
     24000   1272.0792     -23103.528      20609.428      16.47        
     25000   1339.6216     -23100.312      20146.28       16.47        
Loop time of 19.435 on 8 procs for 25000 steps with 216 atoms

Performance: 111.140 ns/day, 0.216 hours/ns, 1286.338 timesteps/s
122.6% CPU use with 1 MPI tasks x 8 OpenMP threads

MPI task timing breakdown:
Section |  min time  |  avg time  |  max time  |%varavg| %total
---------------------------------------------------------------
Pair    | 19.078     | 19.078     | 19.078     |   0.0 | 98.16
Bond    | 0.00086175 | 0.00086175 | 0.00086175 |   0.0 |  0.00
Neigh   | 0.13093    | 0.13093    | 0.13093    |   0.0 |  0.67
Comm    | 0.10019    | 0.10019    | 0.10019    |   0.0 |  0.52
Output  | 0.022141   | 0.022141   | 0.022141   |   0.0 |  0.11
Modify  | 0.077647   | 0.077647   | 0.077647   |   0.0 |  0.40
Other   |            | 0.02561    |            |       |  0.13

Nlocal:            216 ave         216 max         216 min
Histogram: 1 0 0 0 0 0 0 0 0 0
Nghost:           1338 ave        1338 max        1338 min
Histogram: 1 0 0 0 0 0 0 0 0 0
Neighs:              0 ave           0 max           0 min
Histogram: 1 0 0 0 0 0 0 0 0 0
FullNghs:        22264 ave       22264 max       22264 min
Histogram: 1 0 0 0 0 0 0 0 0 0

Total # of neighbors = 22264
Ave neighs/atom = 103.07407
Ave special neighs/atom = 0
Neighbor list builds = 173
Dangerous builds = 0

unfix           1
unfix           2

# NPT equilibration
# The symmetry of the crystal structure allows us to use an isotropic barostat

fix             1 all nph iso ${pressure} ${pressure} ${pressureDamp}
fix             1 all nph iso 1 ${pressure} ${pressureDamp}
fix             1 all nph iso 1 1 ${pressureDamp}
fix             1 all nph iso 1 1 1
fix             2 all temp/csvr ${temperature} ${temperature} ${tempDamp} ${seed}
fix             2 all temp/csvr 1350 ${temperature} ${tempDamp} ${seed}
fix             2 all temp/csvr 1350 1350 ${tempDamp} ${seed}
fix             2 all temp/csvr 1350 1350 0.1 ${seed}
fix             2 all temp/csvr 1350 1350 0.1 74581

velocity        all create ${temperature} ${seed} dist gaussian
velocity        all create 1350 ${seed} dist gaussian
velocity        all create 1350 74581 dist gaussian
run             25000
Generated 0 of 0 mixed pair_coeff terms from geometric mixing rule
Per MPI rank memory allocation (min/avg/max) = 12.29 | 12.29 | 12.29 Mbytes
   Step          Temp          PotEng         Press            Lx      
     25000   1350          -23100.312      20215.236      16.47        
     26000   1386.3141     -23103.013      1280.218       16.553713    
     27000   1314.0134     -23104.622     -7403.8378      16.593396    
     28000   1248.3874     -23101.803     -4625.4318      16.585512    
     29000   1293.1694     -23100.697      8039.7266      16.533665    
     30000   1343.1526     -23102.067      9682.9981      16.523289    
     31000   1251.8331     -23101.598     -14178.003      16.627625    
     32000   1422.3483     -23106.238     -6647.7186      16.592484    
     33000   1456.2325     -23103.866      9530.2719      16.525618    
     34000   1391.6933     -23104.714      3512.1734      16.547252    
     35000   1323.6463     -23101.655     -4784.4275      16.589324    
     36000   1374.5167     -23104.054     -13794.411      16.620373    
     37000   1286.3833     -23101.272      6103.7216      16.543495    
     38000   1340.6757     -23098.945      10735.691      16.520196    
     39000   1404.7536     -23102.336     -1677.96        16.577845    
     40000   1348.0606     -23102.537     -5823.846       16.58594     
     41000   1292.9802     -23103.247      738.95458      16.55779     
     42000   1551.7959     -23100.441      16620.524      16.489739    
     43000   1423.562      -23103.505      1118.149       16.554769    
     44000   1343.2669     -23103.478     -9780.2625      16.605092    
     45000   1360.1186     -23101.246      3600.3362      16.560014    
     46000   1427.3754     -23099.986      7603.76        16.545541    
     47000   1374.4331     -23101.03      -1366.953       16.57341     
     48000   1286.2822     -23100.785     -1593.263       16.572073    
     49000   1274.0849     -23103.01       853.506        16.551559    
     50000   1396.3523     -23101.342      10032.482      16.520628    
Loop time of 19.5754 on 8 procs for 25000 steps with 216 atoms

Performance: 110.342 ns/day, 0.218 hours/ns, 1277.111 timesteps/s
123.2% CPU use with 1 MPI tasks x 8 OpenMP threads

MPI task timing breakdown:
Section |  min time  |  avg time  |  max time  |%varavg| %total
---------------------------------------------------------------
Pair    | 19.084     | 19.084     | 19.084     |   0.0 | 97.49
Bond    | 0.00088293 | 0.00088293 | 0.00088293 |   0.0 |  0.00
Neigh   | 0.15781    | 0.15781    | 0.15781    |   0.0 |  0.81
Comm    | 0.1003     | 0.1003     | 0.1003     |   0.0 |  0.51
Output  | 0.024058   | 0.024058   | 0.024058   |   0.0 |  0.12
Modify  | 0.18277    | 0.18277    | 0.18277    |   0.0 |  0.93
Other   |            | 0.02581    |            |       |  0.13

Nlocal:            216 ave         216 max         216 min
Histogram: 1 0 0 0 0 0 0 0 0 0
Nghost:           1334 ave        1334 max        1334 min
Histogram: 1 0 0 0 0 0 0 0 0 0
Neighs:              0 ave           0 max           0 min
Histogram: 1 0 0 0 0 0 0 0 0 0
FullNghs:        22122 ave       22122 max       22122 min
Histogram: 1 0 0 0 0 0 0 0 0 0

Total # of neighbors = 22122
Ave neighs/atom = 102.41667
Ave special neighs/atom = 0
Neighbor list builds = 209
Dangerous builds = 0

unfix           1
unfix           2


# Dump trajectories in dump and dcd format
dump            myDump all atom ${out_freq2} si.lammps-dump-text
dump            myDump all atom 1000 si.lammps-dump-text
dump            myDcdDump all dcd ${out_freq2} out.dcd
dump            myDcdDump all dcd 1000 out.dcd

# NPT + enhanced sampling

reset_timestep  0

fix             1 all plumed plumedfile plumed.dat outfile log.plumed
fix             2 all nph iso ${pressure} ${pressure} ${pressureDamp}
fix             2 all nph iso 1 ${pressure} ${pressureDamp}
fix             2 all nph iso 1 1 ${pressureDamp}
fix             2 all nph iso 1 1 1
fix             3 all temp/csvr ${temperature} ${temperature} ${tempDamp} ${seed}
fix             3 all temp/csvr 1350 ${temperature} ${tempDamp} ${seed}
fix             3 all temp/csvr 1350 1350 ${tempDamp} ${seed}
fix             3 all temp/csvr 1350 1350 0.1 ${seed}
fix             3 all temp/csvr 1350 1350 0.1 74581
fix		4 all momentum 10000 linear 1 1 1 angular

run             100000000
Generated 0 of 0 mixed pair_coeff terms from geometric mixing rule
Per MPI rank memory allocation (min/avg/max) = 13.31 | 13.31 | 13.31 Mbytes
   Step          Temp          PotEng         Press            Lx      
         0   1396.3523     -23101.342      10032.482      16.520628    
      1000   1313.9812     -23097.112     -2897.2514      16.584088    
      2000   1286.8396     -23100.767     -9230.9744      16.604319    
      3000   1354.1564     -23109.95      -13731.52       16.596815    
      4000   1345.7103     -23094.154      6381.1701      16.540865    
      5000   1300.0346     -23092.98       7739.2022      16.5422      
      6000   1297.7156     -23091.681      7122.3636      16.527668    
      7000   1316.5415     -23092.359      6168.9806      16.561947    
      8000   1280.1835     -23086.386      715.96643      16.58601     
      9000   1382.583      -23092.814     -3803.8305      16.603419    
     10000   1420.128      -23101.728     -2384.1148      16.580442    
     11000   1233.7347     -23100.746      8569.7292      16.519797    
     12000   1377.1971     -23110.666      710.48174      16.541462    
     13000   1446.6688     -23095.284     -3383.2948      16.58623     
     14000   1318.6073     -23095.421     -2926.6262      16.591192    
     15000   1264.6624     -23105.109      2951.6212      16.544152    
     16000   1276.053      -23109.644     -725.67888      16.545654    
     17000   1514.0056     -23096.977     -2607.8626      16.582119    
     18000   1481.5482     -23091.396     -454.53519      16.608254    
     19000   1415.834      -23089.874     -10174.221      16.638936    
     20000   1259.7333     -23080.828      2597.8591      16.564701    
     21000   1417.5247     -23088.432      4644.1481      16.548092    
     22000   1460.3317     -23094.052      8078.3535      16.551093    
     23000   1315.7357     -23091.428     -5160.8642      16.577116    
     24000   1371.2532     -23103.722     -11873.613      16.617688    
     25000   1324.2261     -23090.329      8511.4871      16.568083    
     26000   1334.5495     -23084.168      11193.869      16.489232    
     27000   1396.7437     -23084.409      2491.1717      16.528432    
     28000   1370.5998     -23093.897      7955.6151      16.553106    
     29000   1416.7989     -23091.367      4411.2336      16.578494    
     30000   1248.3555     -23090.565     -5939.278       16.59115     
     31000   1360.5244     -23101.761     -12412.149      16.617825    
     32000   1415.2154     -23094.006      7169.8656      16.552575    
     33000   1403.4181     -23089.034      13132.95       16.523727    
     34000   1304.7052     -23092.075      4636.47        16.558049    
     35000   1406.9206     -23108.85      -14032.221      16.594511    
     36000   1344.5828     -23114.215     -4470.1973      16.54248     
     37000   1433.7735     -23098.411      1961.2312      16.561704    
     38000   1379.9096     -23086.257      4316.4993      16.553967    
     39000   1333.2311     -23084.754      1899.187       16.538943    
     40000   1327.1099     -23084.946     -902.14878      16.595228    
     41000   1407.512      -23083.421     -16867.642      16.610703    
     42000   1220.105      -23083.944     -4568.2695      16.573888    
     43000   1281.9367     -23088.086      7140.7407      16.573438    
     44000   1414.4121     -23083.09      -1909.1158      16.579838    
     45000   1282.5823     -23082.413     -2687.0623      16.571475    
     46000   1407.9888     -23075.786      8144.0479      16.53632     
     47000   1310.9606     -23080.048      10426.605      16.517604    
     48000   1409.0432     -23082.893      17204.715      16.507172    
     49000   1284.2394     -23087.502      10067.84       16.542089    
     50000   1349.7379     -23095.845     -5021.4793      16.593515    
     51000   1326.8048     -23099.62      -4476.5037      16.574558    
     52000   1498.7416     -23085.498     -821.84194      16.572923    
     53000   1359.8122     -23083.484      5728.3883      16.557799    
     54000   1389.8306     -23084.988      16181.076      16.520016    
     55000   1413.7865     -23090.125      11373.788      16.514887    
     56000   1366.3305     -23080.058      8815.9122      16.555763    
     57000   1315.7629     -23079.063      8918.4653      16.53327     
     58000   1442.463      -23079.205     -1939.3579      16.549254    
     59000   1268.658      -23079.702      9256.4355      16.515396    
     60000   1330.0918     -23081.347      8823.5423      16.509291    
     61000   1227.7659     -23076.36      -2258.3381      16.535476    
     62000   1387.4722     -23077.958      10469.555      16.476248    
     63000   1470.8438     -23079.496      8869.067       16.489614    
     64000   1458.4789     -23080.341     -4965.1072      16.52775     
     65000   1388.0673     -23077.71       1180.6036      16.544993    
     66000   1329.7762     -23072.907     -12194.407      16.563064    
     67000   1311.8835     -23076.162     -5434.7548      16.487804    
     68000   1407.1553     -23071.268      4088.3554      16.503555    
     69000   1361.1117     -23072.486      21179.281      16.462833    
     70000   1288.2127     -23072.728     -1069.014       16.558917    
     71000   1241.981      -23086.524      3603.7122      16.579516    
     72000   1330.5075     -23096.393      13240.615      16.502213    
     73000   1455.7532     -23093.038      14736.286      16.510598    
     74000   1387.6694     -23088.143      5631.9592      16.568401    
     75000   1392.8207     -23093.946     -5591.1854      16.596549    
     76000   1355.5732     -23094.286     -7315.2031      16.583911    
     77000   1356.0082     -23113.901     -179.37772      16.519117    
     78000   1300.8433     -23102.063      14710.133      16.489224    
     79000   1362.7829     -23101.669     -2172.4009      16.557876    
     80000   1275.2514     -23086.688     -1081.7016      16.593846    
     81000   1317.0849     -23078.104     -8350.5152      16.607346    
     82000   1340.4848     -23073.934     -1180.4965      16.554034    
     83000   1370.7568     -23081.436     -2974.5566      16.59019     
     84000   1251.6373     -23087.545     -11962.619      16.635533    
     85000   1403.264      -23089.684     -9033.976       16.616304    
     86000   1380.3143     -23091.034      4517.5539      16.563836    
     87000   1319.803      -23106.173      970.37492      16.52955     
     88000   1355.6991     -23080.512      5022.5414      16.562114    
     89000   1362.2568     -23091.741     -9010.8949      16.613569    
     90000   1311.321      -23082.294     -10572.155      16.647327    
     91000   1356.089      -23081.672      1307.4628      16.617943    
     92000   1289.724      -23080.349     -5973.7107      16.599213    
     93000   1454.9553     -23079.736     -4189.3324      16.57257     
     94000   1471.0701     -23084.462      4548.4656      16.573189    
     95000   1220.0473     -23078.576      13597.051      16.509372    
     96000   1470.5018     -23088.43       6426.9353      16.538782    
     97000   1431.6203     -23099.42       7984.6272      16.526661    
     98000   1372.0395     -23109.877     -8961.1084      16.5565      
     99000   1486.3776     -23110.871     -15082.391      16.576032    
    100000   1351.7675     -23091.211     -6407.4333      16.607117    
    101000   1334.4401     -23102.526      5105.2448      16.530301    
    102000   1293.0206     -23114.368      4133.7419      16.504557    
    103000   1375.7662     -23094.896     -3791.9725      16.58847     
    104000   1417.3742     -23081.374     -1228.7758      16.59414     
    105000   1278.1699     -23082.111      3498.4065      16.571921    
    106000   1241.6584     -23080.307     -6539.6859      16.574421    
    107000   1323.3082     -23079.623      11445.307      16.534533    
    108000   1550.8554     -23076.63       11509.312      16.511552    
    109000   1371.4347     -23076.775      8597.8562      16.504912    
    110000   1367.4841     -23074.833      10781.8        16.475       
    111000   1345.3682     -23075.748      10129.251      16.448966    
    112000   1359.672      -23072.268      2233.7705      16.535291    
    113000   1261.495      -23072.282      2402.2347      16.558925    
    114000   1403.3683     -23073.734      5709.679       16.506072    
    115000   1352.6182     -23066.531      2006.2698      16.444284    
    116000   1330.3178     -23067.49       6169.6935      16.483861    
    117000   1378.8641     -23066.959     -6463.5444      16.498857    
    118000   1437.5603     -23070.266      2212.1362      16.495942    
    119000   1323.6327     -23076.517     -5984.4722      16.551331    
    120000   1330.5568     -23077.038     -11461.921      16.580081    
    121000   1483.1949     -23079.734      3679.5542      16.563056    
    122000   1345.8242     -23078.595     -1736.1842      16.578678    
    123000   1259.6324     -23079.792      5889.6953      16.55463     
    124000   1405.2583     -23087.282      4333.0864      16.554552    
    125000   1439.7087     -23093.079      1948.8157      16.565282    
    126000   1383.5762     -23085.868     -4808.171       16.603219    
    127000   1282.9641     -23083.198      3992.6449      16.568578    
    128000   1326.2443     -23082.554      5090.1876      16.544783    
    129000   1287.2924     -23079.629      4918.5686      16.537741    
    130000   1275.0411     -23083.464      9118.8815      16.563952    
    131000   1266.7384     -23078.201     -8346.4221      16.61642     
    132000   1191.9638     -23078.568      1282.5363      16.571381    
    133000   1493.8073     -23078.007      707.55636      16.57993     
    134000   1275.872      -23078.104      3085.8033      16.584016    
    135000   1244.7375     -23073.384     -3612.4637      16.569986    
    136000   1441.1549     -23078.173      5036.6705      16.579407    
    137000   1402.1153     -23085.533     -5476.1968      16.573136    
    138000   1312.5209     -23093.896     -458.14438      16.564672    
    139000   1511.7763     -23096.4        5330.9994      16.535817    
    140000   1570.2765     -23098.492      16705.563      16.477599    
    141000   1333.4117     -23102.558     -5406.8114      16.581116    
    142000   1256.8385     -23089.535     -7376.0204      16.591648    
    143000   1369.8885     -23083.802      1263.3562      16.579855    
    144000   1346.8019     -23091.17       1536.6408      16.553348    
    145000   1344.1758     -23087.671      4699.7279      16.550362    
    146000   1380.4767     -23082.16       757.66199      16.574547    
    147000   1272.3118     -23078.453     -10180.208      16.592658    
    148000   1376.1679     -23081.612     -6390.3971      16.614157    
    149000   1262.4476     -23079.286      952.65661      16.570578    
    150000   1365.2705     -23081.672      7132.9389      16.540266    
    151000   1344.7692     -23077.645      3425.2065      16.527568    
    152000   1440.5961     -23080.063      6489.8285      16.564218    
    153000   1359.0116     -23074.372      3321.6945      16.521038    
    154000   1387.8503     -23075.822      9954.7024      16.514081    
    155000   1412.6057     -23076.775      5576.9785      16.52751     
    156000   1360.2468     -23073.772      9638.714       16.465579    
    157000   1442.0553     -23073.608     -4838.7373      16.529535    
    158000   1282.5537     -23073.681      5726.8817      16.495853    
    159000   1437.1764     -23064.754      5733.378       16.444182    
    160000   1192.3704     -23066.092      15124.153      16.49175     
    161000   1327.6486     -23060.857      7178.1849      16.498568    
    162000   1444.634      -23063.451      11628.228      16.452456    
    163000   1345.8333     -23062.531      6366.6097      16.436844    
    164000   1446.6822     -23063.029      11010.02       16.408855    
    165000   1188.93       -23059.875     -9165.3893      16.445399    
    166000   1558.0782     -23055.634     -2592.8139      16.460464    
    167000   1186.839      -23061.66      -4090.2644      16.433652    
    168000   1321.2117     -23056.912      6849.8633      16.420384    
    169000   1267.9452     -23056.293      15797.496      16.350643    
    170000   1339.2364     -23059.726     -3829.9711      16.492819    
    171000   1467.2013     -23066.329      4574.4554      16.483453    
    172000   1393.1531     -23068.144      2636.6396      16.525103    
    173000   1395.7382     -23074.531     -12313.88       16.620694    
    174000   1373.5125     -23072.778     -3601.9531      16.582776    
    175000   1362.8169     -23071.161      1140.5148      16.577002    
    176000   1233.9271     -23072.555      14126.682      16.528059    
    177000   1332.0511     -23077.502      1614.1837      16.57809     
    178000   1629.796      -23090.944     -2392.2463      16.585769    
    179000   1274.6773     -23093.605     -7294.7814      16.577535    
    180000   1451.8184     -23086.826      4858.9548      16.555662    
    181000   1433.9451     -23080.509      6350.4142      16.542734    
    182000   1374.7671     -23081.962      4201.9683      16.560398    
    183000   1414.3777     -23087.356     -6315.6427      16.590061    
    184000   1313.9236     -23098.835     -16574.577      16.610774    
    185000   1551.2252     -23113.377      11543.338      16.48441     
    186000   1260.9465     -23113.134      738.75394      16.512859    
    187000   1280.9977     -23109.147     -7461.3974      16.547729    
    188000   1340.6651     -23100.755     -656.58807      16.554238    
    189000   1409.2864     -23096.867      9789.9709      16.508101    
    190000   1278.842      -23077.972      10421.654      16.554692    
    191000   1342.3996     -23078.17      -3454.8002      16.589705    
    192000   1302.1241     -23072.861     -691.10962      16.553452    
    193000   1360.2496     -23073.649      7932.5086      16.502357    
    194000   1231.3843     -23068.922      25023.927      16.431655    
    195000   1396.5124     -23071.103      12524.375      16.49964     
    196000   1441.9604     -23076.038      15029.815      16.476704    
    197000   1351.6919     -23076.484      16726.144      16.525993    
    198000   1405.1299     -23077.871     -2685.7948      16.535881    
    199000   1430.2693     -23081.209      9693.1891      16.541108    
    200000   1296.1861     -23086.819      4129.4221      16.536266    
    201000   1265.4528     -23084.836     -9591.1495      16.617969    
    202000   1489.548      -23078.179     -5414.398       16.609501    
    203000   1268.6809     -23075.323      461.71976      16.562055    
    204000   1406.874      -23074.468      13788.936      16.50099     
    205000   1306.7214     -23084.338      17488.775      16.477113    
    206000   1418.4918     -23100.706     -796.75754      16.555432    
    207000   1351.5567     -23088.321     -2276.3664      16.587537    
    208000   1279.3212     -23096.186     -5589.6175      16.57814     
    209000   1390.0919     -23092.632      967.73997      16.553493    
    210000   1373.6716     -23086.533      22695.104      16.481868    
    211000   1500.0856     -23089.969      6396.9205      16.549427    
    212000   1249.429      -23078.309     -989.51391      16.594267    
    213000   1354.352      -23076.053     -3021.2625      16.586722    
    214000   1425.8205     -23079.566      6011.2387      16.543967    
    215000   1451.8597     -23073.639      21721.882      16.428038    
    216000   1456.8117     -23071.258      13532.399      16.481225    
    217000   1297.2482     -23068.945      13182.497      16.471532    
    218000   1248.5567     -23067.502      3857.3228      16.448098    
    219000   1438.3304     -23066.752      16131.868      16.451187    
    220000   1448.6688     -23066.448      4031.0138      16.43567     
    221000   1561.5481     -23063.088     -1803.7016      16.474677    
    222000   1399.4818     -23064.947     -6526.9617      16.463669    
    223000   1407.2141     -23063.495      7062.4928      16.456808    
    224000   1336.2584     -23064.435      12530.907      16.467794    
    225000   1275.6198     -23068.691     -7763.8463      16.590408    
    226000   1344.4116     -23062.776     -14412.193      16.569563    
    227000   1231.0082     -23065.041      3549.8841      16.475333    
    228000   1406.7623     -23063.52       1241.3512      16.485441    
    229000   1367.3733     -23062.582     -19052.75       16.527101    
    230000   1280.543      -23055.757      2873.4357      16.472613    
    231000   1337.5253     -23052.359      1740.81        16.443418    
    232000   1409.4313     -23048.888     -1411.5175      16.381474    
    233000   1340.9072     -23045.478      11667.295      16.335281    
    234000   1154.782      -23050.144     -3011.0799      16.430764    
    235000   1346.1644     -23054.26       21585.542      16.335874    
    236000   1407.2069     -23057.463      2457.8444      16.398912    
    237000   1385.35       -23057.838     -3263.009       16.381623    
    238000   1256.7787     -23057.119      16149.224      16.377022    
    239000   1390.8738     -23049.761     -445.75564      16.392443    
    240000   1325.2326     -23045.472      6705.5311      16.306991    
    241000   1278.0667     -23039.947     -9970.7951      16.437163    
    242000   1242.0727     -23037.189     -8644.1975      16.434869    
    243000   1299.9839     -23037.065     -7496.526       16.313002    
    244000   1246.5082     -23037.731     -2836.5058      16.347397    
    245000   1397.9969     -23040.58       18666.775      16.226091    
    246000   1378.057      -23031.155     -9102.3059      16.297587    
    247000   1172.6529     -23012.524      1625.0586      16.172672    
    248000   1286.9377     -23007.201      11581.265      16.122679    
    249000   1366.2882     -23013.259     -4166.0491      16.084149    
    250000   1423.0689     -23008.187      5320.27        16.214173    
    251000   1184.9908     -23006.927      1156.1592      16.268626    
    252000   1388.1837     -23004.668     -381.7782       16.262648    
    253000   1422.1502     -23009.139     -8761.6547      16.088485    
    254000   1282.9798     -23012.895     -7378.0158      16.059969    
    255000   1334.8284     -23014.771      649.4466       15.917577    
    256000   1431.4573     -23010.839      6254.9811      16.059053    
    257000   1427.6372     -23014.194     -1353.4068      16.007326    
    258000   1499.482      -23007.598      13934.734      16.105521    
    259000   1436.1        -23007.514     -3308.7026      16.178457    
    260000   1331.0541     -23012.515      1263.2316      16.04855     
    261000   1471.1886     -23007.126     -13695.168      16.161318    
    262000   1317.7385     -23009.934     -8470.5259      16.119009    
    263000   1486.5225     -23013.265      1420.786       16.000497    
    264000   1409.3407     -23012.207     -1170.7083      16.02548     
    265000   1353.1049     -23016.977     -1487.3875      15.960532    
    266000   1324.448      -23012.804     -5077.7417      16.105282    
    267000   1333.1196     -23009.382      2799.6414      16.004515    
    268000   1374.0005     -23010.929      5467.2832      16.097093    
    269000   1310.2138     -23006.501     -269.52964      16.215152    
    270000   1321.6818     -23009.449      9161.8526      16.17685     
    271000   1409.8255     -23009.048     -77.630986      16.286723    
    272000   1408.3466     -23005.424     -3138.3237      16.185883    
    273000   1493.4122     -23009.214     -10464.986      16.111613    
    274000   1438.7578     -23009.418      7127.6145      16.072366    
    275000   1297.3766     -23006.99      -7208.157       16.106026    
    276000   1407.2233     -23007.832      16639.406      16.043746    
    277000   1355.2897     -23008.429     -5445.0518      16.049801    
    278000   1456.6356     -23009.294     -22503.481      16.116092    
    279000   1291.0123     -23009.141     -2717.3152      16.050481    
    280000   1282.5113     -23012.933      2362.6755      16.034703    
    281000   1392.2595     -23013.701      12839.928      15.949259    
    282000   1385.8253     -23008.261     -3683.5506      16.124248    
    283000   1411.7115     -23004.97       2246.5852      16.128192    
    284000   1256.6858     -23005.399      13046.629      16.128946    
    285000   1395.9492     -23009.221      6659.1775      16.104281    
    286000   1341.2018     -23007.278      1634.0894      16.19103     
    287000   1396.4405     -23006.52       6067.555       16.104745    
    288000   1374.2139     -23007.316     -1714.2852      16.24132     
    289000   1350.2804     -23005.843     -7523.3039      16.131395    
    290000   1446.981      -23009.012      45.632895      15.974202    
    291000   1420.2757     -23009.696      3420.3543      16.101874    
    292000   1292.6451     -23007.829     -2311.3203      16.013042    
    293000   1327.5773     -23009.708     -5256.5761      16.019311    
    294000   1319.5071     -23008.806     -10146.531      16.120542    
    295000   1270.6581     -23002.869     -13676.317      16.165458    
    296000   1353.0529     -23008.8        5609.8211      16.075324    
    297000   1284.6258     -23005.4       -28207.035      16.252758    
    298000   1382.9102     -23012.643     -3981.0935      16.035385    
    299000   1340.573      -23011.537      4514.9824      15.938276    
    300000   1325.1998     -23013.379     -2238.9134      16.071666    
    301000   1425.5131     -23009.474     -6163.2601      16.104729    
    302000   1343.4878     -23008.627     -4558.7624      16.06166     
    303000   1377.5926     -23010.309     -6273.4096      16.026106    
    304000   1400.3034     -23008.479      11881.765      15.990027    
    305000   1238.4203     -23014.177     -21230.523      15.978305    
    306000   1472.0773     -23009.656     -6850.0996      16.029224    
    307000   1363.3475     -23005.307      7657.7002      16.161452    
    308000   1325.4928     -23007.886      11483.979      16.091175    
    309000   1238.5924     -23009.292      11288.346      16.166182    
    310000   1258.0791     -23009.039      7686.2318      16.04978     
    311000   1516.8651     -23010.507      1127.058       16.173989    
    312000   1361.7143     -22997.416      2652.5694      16.269738    
    313000   1406.3685     -23006.517     -4052.8269      16.108463    
    314000   1180.7803     -23005.795     -6934.1505      16.162324    
    315000   1303.4368     -23005.58      -7148.4462      15.999314    
    316000   1541.0015     -23005.825     -3817.8614      16.023208    
    317000   1364.0486     -23011.103     -22052.836      16.216864    
    318000   1351.5639     -23012.012     -9398.6197      16.106681    
    319000   1518.9783     -23012.964     -16156.976      16.011619    
    320000   1315.3814     -23004.729     -9738.0355      16.140816    
    321000   1516.6141     -23006.869     -10207.742      16.088321    
    322000   1276.1917     -23005.027      9944.5074      16.079241    
    323000   1292.7579     -23009.197     -5328.6563      16.093003    
    324000   1434.2384     -23006.349     -11054.899      16.171067    
    325000   1464.7681     -23004.853      13303.017      16.180989    
    326000   1367.9073     -23007.861      3583.6534      16.174091    
    327000   1362.6306     -23006.781      2605.238       16.269155    
    328000   1428.023      -23000.211      965.85738      16.270249    
    329000   1426.7524     -23003.515      6330.1716      16.140018    
    330000   1333.5238     -23001.722     -3375.2432      16.314606    
    331000   1340.2231     -23003.352      9197.8853      16.130519    
    332000   1309.0325     -23004.774      3985.8426      16.092287    
    333000   1534.9445     -23002.367      21423.171      16.038688    
    334000   1307.5253     -23004.01      -4062.5457      16.231406    
    335000   1322.1826     -23001.109      2354.1326      16.092526    
    336000   1240.1778     -23005.462      1752.2261      16.200381    
    337000   1390.4847     -23004.604      6130.3762      16.288567    
    338000   1381.5438     -23004.343      9725.5101      16.291394    
    339000   1285.3214     -23005.775      12092.759      16.218406    
    340000   1315.2627     -23003.959      5525.881       16.143652    
    341000   1130.3063     -23005.862     -14832.182      16.115216    
    342000   1264.0493     -23002.862     -9342.7487      16.201198    
    343000   1470.8421     -23009.903      9750.9297      15.971633    
    344000   1233.1298     -23004.697      8357.6783      16.01058     
    345000   1227.1118     -23003.572      3367.2882      16.008892    
    346000   1379.358      -23007.26       4786.5645      16.04316     
    347000   1492.8393     -23010.037     -8560.5589      16.095262    
    348000   1321.0379     -23002.261     -884.9379       16.142034    
    349000   1272.0304     -23004.048     -10324.875      16.171599    
    350000   1313.9561     -23009.058     -17213.543      16.026528    
    351000   1445.2455     -23011.915     -7493.0423      16.067372    
    352000   1264.307      -23008.065     -8522.131       16.065358    
    353000   1264.5813     -23004.448      856.96127      16.140308    
    354000   1441.8654     -23007.995     -2159.7255      16.038216    
    355000   1466.0907     -23007.055     -5354.7759      15.955792    
    356000   1287.4426     -23005.607     -4101.0517      16.060849    
    357000   1284.8403     -23007.332     -18443.821      16.04535     
    358000   1360.6114     -23006.638     -5921.7829      16.059357    
    359000   1333.1908     -22999.824      6418.6934      16.157292    
    360000   1280.6739     -23005.305      779.3536       16.042294    
    361000   1312.2995     -22995.905     -1169.2252      16.406311    
    362000   1527.0092     -23003.077      262.97857      16.164322    
    363000   1228.6434     -23000.51      -939.52427      16.095443    
    364000   1306.3977     -22999.47      -611.42331      16.154981    
    365000   1306.0603     -23001.589      7527.1444      16.253534    
    366000   1451.2803     -23001.766      5187.0879      16.07926     
    367000   1380.728      -22999.594      6216.4879      16.171544    
    368000   1414.8904     -23005.086      8632.9848      16.068261    
    369000   1326.2719     -23001.703      865.34196      16.190732    
    370000   1363.1725     -23001.406      12360.91       15.959264    
    371000   1321.1876     -23003.152     -6446.705       16.205616    
    372000   1284.553      -22997.718     -7707.5021      16.309888    
    373000   1364.3232     -23001.566     -11164.715      16.177349    
    374000   1411.4154     -23001.552      2612.3299      16.067042    
    375000   1291.0884     -23007.356      7466.8963      16.080392    
    376000   1198.2995     -23007.213      620.59742      16.024651    
    377000   1463.9903     -23002.632     -7318.2978      16.147042    
    378000   1202.7704     -23008.881     -895.90562      15.987461    
    379000   1241.061      -22999.822     -7412.086       16.213748    
    380000   1391.2278     -23003.694     -20240.811      16.119713    
    381000   1415.6031     -23011.206     -8973.5014      16.010592    
    382000   1245.8246     -23007.239     -12637.599      16.119435    
    383000   1263.2453     -23012.727      6989.0218      16.091562    
    384000   1506.2541     -23014.199     -17115.386      16.233494    
    385000   1450.0948     -23003.938     -10449.664      16.248656    
    386000   1335.1939     -23002.648      4193.2209      16.011142    
    387000   1236.9146     -23002.838      6525.7556      16.047946    
    388000   1359.9556     -23002.626     -8424.8124      16.208612    
    389000   1219.759      -23001.461      15965.2        16.185861    
    390000   1451.8696     -23000.563      3721.66        16.19869     
    391000   1331.3773     -23011.449      9146.1094      16.182206    
    392000   1217.113      -23000.063      8898.8211      16.179179    
    393000   1293.6711     -23003.464     -3365.7092      16.13213     
    394000   1322.7691     -23000.396      3144.7986      16.186334    
    395000   1357.1701     -23004.532      9001.3567      16.130251    
    396000   1282.525      -23002.286      5339.2642      16.163977    
    397000   1334.1982     -23004.809     -1972.6082      16.072847    
    398000   1484.9204     -23007.819      2198.4478      15.983956    
    399000   1354.2906     -23002.943      302.38542      16.156158    
    400000   1408.7784     -22999.512      4066.2523      16.210769    
    401000   1420.9239     -23002.481     -3238.6889      16.062631    
    402000   1386.8406     -22998.751     -15100.595      16.170452    
    403000   1413.7        -23002.429     -10336.451      16.142865    
    404000   1275.5502     -23004.049     -10292.36       16.080934    
    405000   1244.2301     -23001.657      304.13261      16.027489    
    406000   1287.3969     -23006.973      1767.6763      16.035299    
    407000   1371.8659     -23013.729     -7566.3434      15.95922     
    408000   1334.665      -23017.387      809.26174      16.045531    
    409000   1336.2377     -23020.873     -2318.1949      16.184695    
    410000   1258.3851     -23026.652     -16323.884      16.246047    
    411000   1346.6126     -23016.669      2462.3151      16.262224    
    412000   1377.3487     -23020.391      1080.2225      16.131285    
    413000   1362.7671     -23025.696     -9839.7801      16.175741    
    414000   1369.6914     -23026.404      2663.1775      16.184924    
    415000   1436.9191     -23018.79       5606.073       16.020253    
    416000   1293.1146     -23014.651     -11453.831      16.169164    
    417000   1437.6911     -23006.332     -981.26717      16.04391     
    418000   1396.9524     -23005.43      -1034.6038      16.018498    
    419000   1278.8442     -23002.249     -14830.835      16.174421    
    420000   1372.1145     -23009.143     -15468.403      15.996744    
    421000   1472.2269     -23001.284     -3426.1427      16.106597    
    422000   1340.286      -23000.448     -3627.4498      16.110309    
    423000   1467.29       -23000.345     -8814.475       16.153435    
    424000   1419.9726     -22997.506     -5876.9686      16.190046    
    425000   1344.3822     -23000.929     -2003.9152      16.133634    
    426000   1399.4058     -22996.882     -10948.341      16.222837    
    427000   1329.9361     -23001.579      324.97892      16.202707    
    428000   1346.8548     -22998.877      4207.9043      16.166008    
    429000   1403.492      -22998.806      2063.6849      16.182526    
    430000   1472.5414     -23003.018     -7273.7967      16.100225    
    431000   1357.7891     -23003.605     -1712.1527      16.078117    
    432000   1387.6119     -23009.65       16520.003      15.958546    
    433000   1368.2675     -23007.852     -1730.3934      15.975642    
    434000   1440.7175     -23002.86      -24949.516      16.140274    
    435000   1461.0877     -23003.035     -14937.538      16.027831    
    436000   1399.6225     -23004.343      1084.4762      16.064132    
    437000   1385.8086     -23005.685     -1892.0729      16.122407    
    438000   1270.7224     -23006.999     -16359.888      16.191699    
    439000   1360.9799     -23008.631     -29197.102      16.109715    
    440000   1435.0686     -23011.226     -4448.2598      16.112207    
    441000   1387.452      -23018.158     -15923.408      16.179652    
    442000   1370.9703     -23016.434     -825.63023      16.135783    
    443000   1394.9826     -23022.446      10960.417      16.068822    
    444000   1405.9912     -23017.955      11690.134      16.156886    
    445000   1288.97       -23014.676      8480.1553      16.062135    
    446000   1384.5977     -23012.476     -269.00872      16.130829    
    447000   1439.2702     -23005.285     -6940.9338      16.184808    
    448000   1352.0807     -23002.168     -6578.2697      16.109878    
    449000   1472.8345     -22999.532      2296.6946      16.144478    
    450000   1390.5201     -23002.26      -8962.5325      16.038949    
    451000   1352.8857     -23004.937     -17505.009      16.007713    
    452000   1354.805      -23006.365     -17493.793      16.064717    
    453000   1461.5349     -23008.818     -10214.785      16.050544    
    454000   1335.7548     -23009.877      8160.2353      16.030853    
    455000   1357.7574     -22999.181     -7467.7144      16.193856    
    456000   1265.3949     -23000.887      5417.4678      16.132055    
    457000   1207.918      -23006.954      2960.2945      16.153197    
    458000   1448.8155     -23006.676      4097.9478      16.296931    
    459000   1528.5368     -23000.756     -8120.9281      16.225967    
    460000   1381.4769     -22997.377     -6784.5111      16.207189    
    461000   1405.8648     -22994.482     -11992.324      16.282962    
    462000   1380.8964     -22995.362      4678.9091      16.170048    
    463000   1317.0116     -22997.27       586.74429      16.137637    
    464000   1432.5303     -22999.255     -2962.1358      16.233028    
    465000   1519.6716     -22998.896      7292.726       16.258874    
    466000   1430.2718     -22997.261      8894.5713      16.177379    
    467000   1311.9787     -22997.38       3795.1246      16.22302     
    468000   1280.5328     -23005.932      7244.4735      16.175978    
    469000   1227.4946     -23003.804      7120.2882      16.19452     
    470000   1220.4773     -23002.188      9390.1816      16.093496    
    471000   1419.395      -23001.152     -2278.1153      16.192089    
    472000   1306.1038     -22995.63      -1830.8514      16.16073     
    473000   1326.0555     -22999.841     -22053.854      16.114052    
    474000   1346.1893     -23001.549     -12098.983      16.141206    
    475000   1210.5575     -23004.952     -8954.3308      16.132456    
    476000   1239.3582     -23002.472      4693.0721      16.127715    
    477000   1354.7885     -23000.007     -4499.6997      16.108198    
    478000   1362.9029     -22995.167     -1605.7767      16.262722    
    479000   1344.3178     -22998.898     -49.54099       16.134782    
    480000   1455.4614     -22996.619     -9691.9718      16.286826    
    481000   1296.6369     -22997.508      15519.659      16.014183    
    482000   1233.9441     -22999.965     -22887.204      16.155485    
    483000   1418.8953     -23000.559     -11041.909      16.104553    
    484000   1360.7743     -23000.649     -1639.8562      16.077857    
    485000   1366.6877     -23002.852      11098.603      16.009091    
    486000   1373.1563     -23002.966     -8235.8011      16.069207    
    487000   1547.4138     -23006.653     -9210.2703      16.117963    
    488000   1355.1548     -23006.853      1221.6441      16.059521    
    489000   1505.433      -23003.024     -15780.744      16.052193    
    490000   1233.677      -23003.656      10984.364      16.045768    
    491000   1407.1309     -23005.336      487.68395      16.101253    
    492000   1412.7307     -23003.701     -16951.167      16.101699    
    493000   1229.1349     -23002.944     -22624.594      16.005352    
    494000   1387.8435     -23006.585      14736.731      16.02376     
    495000   1379.7641     -23008.233      20428.646      15.958827    
    496000   1313.307      -23009.449     -36.435486      16.061009    
    497000   1362.9046     -23007.002     -15702.384      16.006483    
    498000   1176.4229     -23000.32      -16943.161      16.149175    
    499000   1505.3562     -23011.766      8810.7796      15.990354    
    500000   1431.536      -23020.128      6784.7238      16.051699    
    501000   1452.3308     -23028.646      277.61959      16.187972    
    502000   1306.9519     -23022.374     -361.87035      16.235819    
    503000   1448.4151     -23025.506      9577.3346      16.258242    
    504000   1463.4586     -23025.062      6917.5359      16.258514    
    505000   1320.9409     -23031.094     -5710.87        16.285012    
    506000   1401.1507     -23031.334      2740.2735      16.337685    
    507000   1281.4513     -23030.714     -15004.024      16.321144    
    508000   1352.3665     -23023.702     -4795.8862      16.274339    
    509000   1296.915      -23027.038     -26208.159      16.334483    
    510000   1311.9759     -23019.997      10616.684      16.240367    
    511000   1363.83       -23019.298     -10627.111      16.33341     
    512000   1412.1442     -23020.874     -5657.8134      16.148469    
    513000   1284.0157     -23019.666      3976.3526      16.233757    
    514000   1310.7457     -23019.387     -14216.128      16.30304     
    515000   1328.6823     -23027.046     -15601.918      16.23005     
    516000   1458.2225     -23031.909      3729.8511      16.265593    
    517000   1346.2946     -23039.311      7184.3474      16.264411    
    518000   1489.0118     -23044.331     -2246.7989      16.312551    
    519000   1313.6259     -23042.267      2099.9202      16.340591    
    520000   1318.0293     -23038.222     -8014.5886      16.310231    
    521000   1307.3963     -23035.835     -4412.5771      16.33453     
    522000   1450.1309     -23043.598     -3693.7988      16.394128    
    523000   1366.3556     -23047.392     -3778.6402      16.355927    
    524000   1278.7246     -23048.697     -6331.581       16.456837    
    525000   1329.8942     -23045.605      3898.6756      16.356752    
    526000   1322.931      -23038.934     -169.38852      16.398028    
    527000   1200.8698     -23029.69       15211.82       16.285771    
    528000   1338.7652     -23031.066     -9175.5403      16.327559    
    529000   1392.5777     -23034.798     -11685.35       16.363665    
    530000   1289.2701     -23028.548     -15052.37       16.279518    
    531000   1367.8697     -23028.623     -11460.394      16.263906    
    532000   1446.2763     -23025.847     -8975.1738      16.228739    
    533000   1264.7309     -23017.533     -13384.486      16.298204    
    534000   1253.5128     -23016.18      -809.08908      16.205155    
    535000   1330.8507     -23017.788     -1273.8632      16.249109    
    536000   1389.9477     -23009.503      5220.8216      16.067079    
    537000   1313.7353     -23011.161     -8930.8703      16.103212    
    538000   1401.541      -23009.338     -17413.05       16.163858    
    539000   1292.6913     -23010.986      7868.1897      16.062918    
    540000   1246.8858     -23021.939     -3799.2179      16.20029     
    541000   1359.6958     -23016.662      10820.921      16.113542    
    542000   1357.6805     -23024.532     -19788.899      16.25425     
    543000   1454.1721     -23027.897      1793.9547      16.272939    
    544000   1332.6786     -23025.913     -7280.8681      16.205003    
    545000   1349.5172     -23022.626     -2146.1222      16.260242    
    546000   1335.886      -23021.429     -1161.6506      16.209287    
    547000   1326.5579     -23033.139     -6135.093       16.340651    
    548000   1385.8781     -23030          8612.4347      16.25353     
    549000   1412.2176     -23030.505      12515.436      16.148313    
    550000   1367.0124     -23034.107     -6906.9762      16.270126    
    551000   1297.9528     -23031.192     -1327.6078      16.318164    
    552000   1370.0468     -23043.618      6182.0616      16.36324     
    553000   1195.98       -23049.535     -4881.5101      16.34177     
    554000   1336.1789     -23058.135     -9795.8735      16.437173    
    555000   1263.9333     -23057.926     -18007.995      16.545416    
    556000   1420.9713     -23057.067      8154.3073      16.512354    
    557000   1236.4124     -23058.036      18011.461      16.382       
    558000   1315.6867     -23053.515      13723.456      16.458344    
    559000   1331.052      -23061.994      7261.4078      16.408738    
    560000   1385.0794     -23050.721      5020.0296      16.453363    
    561000   1371.6035     -23062.661     -808.41966      16.496057    
    562000   1483.5273     -23070.214     -12473.358      16.576562    
    563000   1347.1805     -23069.62       471.637        16.525638    
    564000   1424.2929     -23071.755      3704.6685      16.514513    
    565000   1366.3048     -23073.008     -2127.1849      16.559935    
    566000   1241.819      -23076.022      4476.9202      16.551025    
    567000   1377.0209     -23075.199      3255.5186      16.541739    
    568000   1265.707      -23078.698      12836.29       16.521115    
    569000   1274.4302     -23068.224      6753.4921      16.529402    
    570000   1353.0662     -23072.374      16841.815      16.532479    
    571000   1256.4354     -23075.392      20382.62       16.504522    
    572000   1487.8303     -23083.412      2574.8288      16.559308    
    573000   1324.4018     -23082.395     -4572.8239      16.590757    
    574000   1258.1312     -23087.747     -1052.4162      16.591428    
    575000   1401.7714     -23083.629     -2377.0679      16.593889    
    576000   1429.686      -23094.872      12979.441      16.502018    
    577000   1474.3301     -23099.22       2062.7548      16.545038    
    578000   1353.2466     -23092.286     -7819.6514      16.605742    
    579000   1326.2201     -23080.945     -8909.4481      16.624023    
    580000   1400.2763     -23076.093     -2097.7754      16.586976    
    581000   1208.765      -23076.063      7807.4099      16.538625    
    582000   1396.4097     -23075.842      11521.929      16.525767    
    583000   1294.9498     -23073.301     -1080.3218      16.560605    
    584000   1298.1006     -23075.17      -9030.6068      16.594237    
    585000   1398.7386     -23073.657      6315.2926      16.554565    
    586000   1280.5658     -23073.513      3425.722       16.553107    
    587000   1435.9378     -23071.608     -3073.7713      16.535633    
    588000   1408.3926     -23071.857      3390.3786      16.5276      
    589000   1366.4074     -23069.558      4108.4265      16.528161    
    590000   1393.5325     -23074.109      2462.932       16.532673    
    591000   1397.7261     -23067.495     -925.28586      16.561597    
    592000   1356.2463     -23062.144      235.24256      16.524762    
    593000   1272.8439     -23070.758      2257.6253      16.531802    
    594000   1405.0136     -23065.58      -15952.83       16.548644    
    595000   1285.8693     -23071.521      5074.3946      16.511453    
    596000   1425.7593     -23074.939      13224.979      16.529351    
    597000   1321.9442     -23071.697      10938.703      16.530049    
    598000   1379.8262     -23070.049      6038.8335      16.546164    
    599000   1404.9666     -23073.311      701.47871      16.544433    
    600000   1279.6034     -23081.288     -3314.2823      16.592963    
    601000   1402.7149     -23084.39      -10980.32       16.644097    
    602000   1281.7325     -23076.445     -11595.218      16.614286    
    603000   1439.8894     -23081.337      4627.3766      16.547654    
    604000   1479.5851     -23095.37       7176.8088      16.516064    
    605000   1445.109      -23087.349      3162.6412      16.55233     
    606000   1370.5656     -23081.265     -5175.4508      16.612811    
    607000   1345.4092     -23074.714      1130.0889      16.594794    
    608000   1500.3807     -23071.098      3775.4707      16.574041    
    609000   1268.582      -23069.907     -3348.628       16.558914    
    610000   1477.2686     -23067.159     -5117.6874      16.634495    
    611000   1350.0758     -23072.168     -8684.5619      16.590028    
    612000   1300.3893     -23070.792     -6677.9475      16.552929    
    613000   1543.5966     -23077.176     -2908.1564      16.574473    
    614000   1350.7        -23075.736      15273.441      16.536186    
    615000   1251.9971     -23076.265     -4671.7369      16.582825    
    616000   1332.1863     -23067.422      461.25967      16.547118    
    617000   1447.052      -23075.51       5782.9398      16.526067    
    618000   1327.6556     -23067.633      19134.446      16.473936    
    619000   1365.8682     -23065.433      1855.3528      16.480227    
    620000   1455.3251     -23068.9        15684.574      16.416557    
    621000   1266.7149     -23067.465      1847.5728      16.481199    
    622000   1372.9139     -23061.782     -874.42951      16.455503    
    623000   1381.1113     -23061.961     -3879.9057      16.519772    
    624000   1436.6548     -23058.445     -348.78736      16.470022    
    625000   1370.9397     -23052.662     -5134.914       16.485231    
    626000   1315.0374     -23059.57       11978.122      16.424497    
    627000   1301.9425     -23058.805     -741.32433      16.500078    
    628000   1326.2691     -23068.214      1364.4178      16.484145    
    629000   1336.5792     -23068.163      8688.1913      16.476802    
    630000   1539.522      -23068.254      13480.829      16.45571     
    631000   1335.641      -23071.051      9817.0052      16.493152    
    632000   1216.6294     -23071.07       2361.1122      16.525295    
    633000   1401.26       -23069.682      10864.208      16.499307    
    634000   1333.2371     -23078.278      8286.7006      16.539904    
    635000   1267.9034     -23082.73       7542.0798      16.539809    
    636000   1300.5465     -23074.487     -1690.2882      16.591515    
    637000   1398.6156     -23076.453     -17503.46       16.643472    
    638000   1439.2802     -23074.889      2767.0564      16.573926    
    639000   1361.1431     -23092.799     -135.46916      16.547301    
    640000   1472.7329     -23106.048     -2626.722       16.528524    
    641000   1246.2371     -23113.675     -2517.1234      16.520915    
    642000   1324.9262     -23100.165     -9517.1263      16.589044    
    643000   1353.7085     -23095.651     -9319.6086      16.575169    
    644000   1503.4564     -23083.947      10121.409      16.527706    
    645000   1230.0273     -23075.481      6568.4592      16.539535    
    646000   1292.5356     -23078.14       7740.4129      16.527641    
    647000   1497.5425     -23082.261      10673.412      16.541022    
    648000   1412.2987     -23080.599     -4444.8783      16.595974    
    649000   1395.3368     -23075.437     -10396.368      16.651284    
    650000   1314.8083     -23073.746     -15296.793      16.619206    
    651000   1344.5754     -23090.149     -5186.5941      16.575406    
    652000   1435.4377     -23092.908      4374.827       16.537301    
    653000   1445.7311     -23086.086      7827.9664      16.541081    
    654000   1289.8603     -23081.108     -11311.116      16.623842    
    655000   1313.815      -23078.035     -12234.712      16.646228    
    656000   1282.6771     -23077.224      2401.4161      16.560608    
    657000   1230.7506     -23080.296      4826.9885      16.55027     
    658000   1394.8891     -23097.779      4876.884       16.501758    
    659000   1436.7557     -23107.751     -9007.0052      16.543614    
    660000   1179.8741     -23111.428     -13173.014      16.55729     
    661000   1433.989      -23110.852      16801.667      16.444449    
    662000   1416.3189     -23089.162     -5002.3015      16.573225    
    663000   1289.1752     -23096.207     -8035.8241      16.581715    
    664000   1337.9035     -23084.999      3979.1275      16.56049     
    665000   1375.7279     -23094.742      12531.33       16.491831    
    666000   1469.0768     -23078.492      8316.6351      16.542279    
    667000   1222.3459     -23071.898     -935.69656      16.581856    
    668000   1313.5178     -23065.526     -3186.0569      16.554168    
    669000   1222.9902     -23073.482     -8415.5211      16.54994     
    670000   1380.619      -23065.729     -9089.5699      16.608673    
    671000   1376.6643     -23066.766     -8912.4698      16.612825    
    672000   1368.6028     -23068.022     -299.67674      16.516855    
    673000   1269.3776     -23067.974      2396.6193      16.485237    
    674000   1392.9374     -23063.854      16160.245      16.443121    
    675000   1214.4701     -23058.397      6695.8237      16.453707    
    676000   1410.4313     -23065.516      6517.3859      16.463521    
    677000   1228.2597     -23055.422      4906.4023      16.407139    
    678000   1310.315      -23056.283     -4686.0242      16.453814    
    679000   1502.7722     -23054.692      1986.3067      16.43697     
    680000   1459.3799     -23059.9        5063.3939      16.485201    
    681000   1331.0336     -23055.072      997.16411      16.53311     
    682000   1350.453      -23050.787     -393.63432      16.512391    
    683000   1307.4958     -23055.582     -9966.1127      16.411196    
    684000   1317.6286     -23052.767      9858.5278      16.364292    
    685000   1378.7591     -23052.795     -8883.9229      16.445577    
    686000   1310.1915     -23056.386     -542.70882      16.499735    
    687000   1380.1584     -23048.632      7155.947       16.417785    
    688000   1396.4291     -23044.913     -7674.0541      16.42052     
    689000   1306.8346     -23047.503      5575.0912      16.314957    
    690000   1226.989      -23046.319     -12532.393      16.397634    
    691000   1456.9098     -23048.016      9289.2752      16.367504    
    692000   1470.2874     -23039.579      6630.5984      16.377234    
    693000   1261.7686     -23041.335      5325.9498      16.35543     
    694000   1315.1007     -23037.051      15841.195      16.239763    
    695000   1493.5946     -23034.017      9128.0482      16.303288    
    696000   1516.2955     -23040.42       3251.2016      16.372127    
    697000   1309.7012     -23026.926      931.10902      16.304069    
    698000   1265.5066     -23034.825      7794.3478      16.337875    
    699000   1408.4068     -23042.514      21384.42       16.259973    
    700000   1366.319      -23041.628     -4926.0535      16.430202    
    701000   1420.1911     -23044.589      6989.5185      16.297134    
    702000   1387.9554     -23048.11       9638.0449      16.35118     
    703000   1431.9446     -23048.228     -222.24502      16.366218    
    704000   1231.1247     -23051.241     -9640.3926      16.488477    
    705000   1467.1331     -23050.016      9022.6262      16.37483     
    706000   1372.6803     -23041.721     -4005.2071      16.364674    
    707000   1255.3781     -23045.873     -1261.1777      16.390516    
    708000   1199.1332     -23039.991     -1790.2726      16.299308    
    709000   1413.4399     -23039.693     -2056.3114      16.438399    
    710000   1268.1133     -23034.557      921.08196      16.297176    
    711000   1425.4347     -23040.159     -3829.4657      16.340899    
    712000   1359.5013     -23031.079     -4773.4351      16.24502     
    713000   1294.255      -23031.769     -17140.04       16.384133    
    714000   1208.4459     -23030.686      9451.9404      16.200534    
    715000   1361.4061     -23020.783     -4879.5906      16.251481    
    716000   1343.0721     -23021.779      7629.4479      16.183997    
    717000   1355.2469     -23018.412      17856.619      16.138332    
    718000   1345.5071     -23011.382     -13964.37       16.279433    
    719000   1254.2797     -23015.279     -5313.636       16.203144    
    720000   1315.3224     -23016.858     -3829.0872      16.141632    
    721000   1434.4807     -23012.071      550.50754      16.131152    
    722000   1381.9325     -23006.471      1215.252       16.011879    
    723000   1411.7531     -22999.014     -5573.0528      16.09781     
    724000   1329.4865     -22997.028     -3422.6563      16.201023    
    725000   1331.1438     -23000.697      995.82473      16.128597    
    726000   1282.8251     -23001.848      10424.574      16.135258    
    727000   1421.1828     -22999.777      9824.0574      16.129084    
    728000   1422.594      -23001.268      10111.747      16.088468    
    729000   1242.8598     -22997.844      1993.5556      16.206031    
    730000   1295.0862     -22994.209      1170.5815      16.349969    
    731000   1389.0634     -23002.709      7742.5255      16.129124    
    732000   1299.3362     -23002.923      6812.7049      16.087904    
    733000   1420.5621     -23007.883      15257.01       16.22727     
    734000   1346.6466     -22997.812      1737.2127      16.215845    
    735000   1432.9018     -22998.193      2111.2033      16.075772    
    736000   1452.4424     -22994.462      11491.514      16.103716    
    737000   1307.2464     -22995.571      7900.2635      16.207009    
    738000   1416.47       -22996.786      2215.5268      16.148279    
    739000   1442.4984     -22998.006     -2962.6459      16.148879    
    740000   1400.2846     -23004.163     -11495.551      16.088918    
    741000   1318.6398     -22994.642     -4023.2942      16.112005    
    742000   1219.2312     -23003.746      7354.2795      16.020324    
    743000   1409.7554     -22995.326     -5261.6506      16.226533    
    744000   1255.2616     -23001.399     -4461.3908      16.042145    
    745000   1248.033      -22993.611     -11180.391      16.152396    
    746000   1391.8946     -22996.454     -829.31162      16.19498     
    747000   1347.4259     -22999.158     -2142.459       16.136587    
    748000   1383.5004     -22995.919     -5277.4256      16.160469    
    749000   1379.827      -22997.808      8889.7381      16.016409    
    750000   1298.6605     -22997.661      3388.2012      16.164817    
    751000   1236.9395     -22996.362      1382.089       16.267418    
    752000   1265.3733     -23002.073      6809.425       16.319011    
    753000   1445.5133     -23007.114      8582.9109      16.19846     
    754000   1404.3005     -22996.406      4967.4427      16.239029    
    755000   1374.6135     -22996.394     -3684.0095      16.277611    
    756000   1409.997      -23000.794      1519.3289      16.008268    
    757000   1331.2507     -22992.218      2433.4899      16.247552    
    758000   1370.9865     -23001.626     -1188.5172      16.057525    
    759000   1469.3335     -22995.731     -9403.0132      16.099266    
    760000   1424.9801     -22997.922      15029.87       16.060832    
    761000   1524.3433     -22999.167     -1698.9257      16.166092    
    762000   1252.5655     -22998.083      11800.74       16.092799    
    763000   1286.665      -22997.017      4998.6197      16.109923    
    764000   1496.5212     -22993.234      12471.086      16.179837    
    765000   1417.3469     -22999.486      13319.778      16.208022    
    766000   1323.762      -22993.211      1713.729       16.195254    
    767000   1435.3574     -22993.95      -4199.0168      16.086934    
    768000   1262.7692     -23000.955     -13777.493      16.045902    
    769000   1430.4831     -23001.918      400.05097      16.051058    
    770000   1385.0486     -23002.472     -13344.31       16.092248    
    771000   1294.5028     -22995.332      5802.4786      16.056061    
    772000   1377.5355     -22997.386     -5898.8922      16.128202    
    773000   1205.1899     -22999.825     -2966.6724      16.05144     
    774000   1414.8651     -22998.319      5198.2145      16.2459      
    775000   1203.8753     -22995.52       5996.7008      16.23805     
    776000   1278.3292     -22999.349      1359.0889      16.104693    
    777000   1447.0639     -22994.011      3725.8907      16.240219    
    778000   1426.9128     -22993.871      8634.9072      16.15421     
    779000   1433.3399     -22994.866     -1202.0859      16.069364    
    780000   1236.1285     -23002.671     -13787.781      16.089339    
    781000   1376.7738     -23003.06       5431.5214      16.043075    
    782000   1334.4077     -23007.969     -10325.602      16.070787    
    783000   1246.1852     -22999.015     -7513.5018      16.066677    
    784000   1335.3075     -22998.479     -6811.1467      16.072101    
    785000   1380.5318     -23004.518      703.54055      16.030331    
    786000   1242.1154     -23011.083      4918.3768      16.186959    
    787000   1281.9976     -23003.523     -18329.906      16.093236    
    788000   1216.4273     -23001.036     -6045.5024      16.11403     
    789000   1357.0324     -22998.648     -13803.011      16.07014     
    790000   1293.2208     -22993.713     -392.85568      16.227249    
    791000   1351.9762     -22995.997     -4147.6847      16.243505    
    792000   1402.0335     -22996.604      3171.2877      16.084505    
    793000   1470.95       -22998.135      5725.6604      16.099436    
    794000   1233.3434     -22996.09       1664.4885      16.110108    
    795000   1274.8314     -22997.826     -6286.1658      16.107095    
    796000   1348.685      -23001.226      16721.694      15.918355    
    797000   1530.4894     -22998.69      -9161.239       16.175604    
    798000   1493.2714     -22999.912     -8706.1713      16.110531    
    799000   1388.0357     -23001.293     -3509.8435      16.080955    
    800000   1415.2486     -23001.71      -16419.75       16.18639     
    801000   1341.1028     -23003.162     -9677.4041      15.93973     
    802000   1252.399      -23003.652     -12352.986      16.041759    
    803000   1449.798      -23007.358      2196.3046      16.073164    
    804000   1288.9872     -23000.225      4910.2369      16.064146    
    805000   1348.2177     -22995.04      -3938.8546      16.118469    
    806000   1407.8053     -22999.198      6599.2879      16.067757    
    807000   1327.5164     -22996.217      5587.4776      16.102522    
    808000   1485.3702     -22999.475     -2799.7809      16.07086     
    809000   1514.4323     -22998.064      21496.425      16.099024    
    810000   1443.285      -23004.013      6310.6159      16.192814    
    811000   1315.0805     -23002.789     -1386.2014      16.339376    
    812000   1252.2215     -23005.468      10100.834      16.098397    
    813000   1452.8963     -22998.677      17036.553      16.114738    
    814000   1355.2932     -22994.135      8017.0542      16.126726    
    815000   1467.681      -22994.06      -2383.7423      16.215423    
    816000   1379.6205     -22993.328      7433.0676      16.1544      
    817000   1315.3266     -22995.697      2899.7173      16.065617    
    818000   1443.3709     -22997.275     -1415.4432      16.139149    
    819000   1248.858      -23000.595      14737.138      16.04232     
    820000   1458.532      -22998.522     -1927.9159      16.099473    
    821000   1221.7561     -22993.115      81.976026      16.056329    
    822000   1356.0114     -23001.003     -3882.5918      16.059556    
    823000   1415.7782     -22997.276     -11002.93       16.135803    
    824000   1430.9529     -22994.569      6485.3534      16.136695    
    825000   1383.2403     -23001.447     -8116.5002      16.029366    
    826000   1345.2972     -23003.022      10265.69       16.059612    
    827000   1345.0794     -22998.925     -4538.0355      16.035794    
    828000   1391.6586     -22994.245     -2592.5971      16.141599    
    829000   1363.4652     -23002.132      1044.6632      15.935939    
    830000   1374.2436     -22995.307     -172.44188      16.076344    
    831000   1458.0299     -23001.141     -11317.555      16.026568    
    832000   1408.2204     -22999.416      9126.6091      16.018987    
    833000   1246.1593     -22996.874      9349.4004      16.180635    
    834000   1319.0906     -22999.779      5068.5678      16.100646    
    835000   1315.4032     -22996.246      702.87462      16.120384    
    836000   1461.3727     -23000.843      2570.1069      16.32305     
    837000   1343.8157     -22995.173      25196.825      16.160298    
    838000   1376.0924     -22994.391      342.99014      16.160866    
    839000   1397.6804     -22993.719      4358.6211      16.06695     
    840000   1287.2074     -22995.722     -1122.3085      16.163637    
    841000   1303.1081     -22995.929      8983.7068      16.03737     
    842000   1210.0698     -22995.292      14382.089      16.057516    
    843000   1372.6384     -22993.498      18616.499      16.04737     
    844000   1316.0191     -22995.622      7866.9546      16.290073    
    845000   1351.3681     -22995.108      2322.0512      16.122302    
    846000   1257.3623     -22997.323      39.013332      16.117299    
    847000   1365.3263     -22999.051      8823.3174      16.107196    
    848000   1419.5805     -22996.642      13133.106      16.326738    
    849000   1325.52       -23001.68       16416.378      16.165591    
    850000   1328.7834     -23005.342      11518.559      16.273735    
    851000   1501.938      -23011.535      8039.5984      16.061377    
    852000   1515.3296     -22997.015      13982.197      16.138114    
    853000   1307.7145     -22995.256     -4355.0022      16.25182     
    854000   1364.2141     -22991.125     -1180.569       16.162317    
    855000   1310.2309     -22993.03      -4915.9613      16.205213    
    856000   1417.4019     -22989.304     -1825.0864      16.254684    
    857000   1304.7399     -22993.594     -6006.1273      16.158881    
    858000   1340.4055     -22995.245     -12288.867      16.028794    
    859000   1536.8752     -22989.503     -10303.638      16.322527    
    860000   1378.9994     -22993.684      3703.2807      16.114756    
    861000   1365.577      -22998.217      4914.2322      15.995284    
    862000   1519.0889     -23003.553     -13472.59       16.072638    
    863000   1388.6425     -23010.208     -20408.281      16.070938    
    864000   1236.9171     -23009.695      2265.2714      16.007944    
    865000   1304.5545     -23013.291      10490.948      16.093845    
    866000   1445.5788     -23019.973      12563.463      16.137329    
    867000   1517.5357     -23018.249      8763.7322      16.185881    
    868000   1314.29       -23022.319      9697.0431      16.090647    
    869000   1299.1464     -23018.676      774.26325      16.117497    
    870000   1401.6121     -23019.7       -10858.344      16.16039     
    871000   1480.1572     -23022.061      21171.143      16.175434    
    872000   1443.7372     -23020.811      2056.3008      16.180297    
    873000   1299.2616     -23020.453     -12753.902      16.202484    
    874000   1259.9411     -23031.311     -13540.172      16.323487    
    875000   1395.4679     -23029.327      1005.5313      16.234106    
    876000   1261.2019     -23023.013      10905.795      16.295409    
    877000   1318.8857     -23024.179     -4951.2829      16.326026    
    878000   1281.6884     -23022.83       6268.574       16.182693    
    879000   1262.577      -23020.563      2447.7253      16.190659    
    880000   1307.296      -23028.245      28113.084      16.169432    
    881000   1357.5099     -23029.877      575.23259      16.321857    
    882000   1271.1549     -23028.258      649.9859       16.28537     
    883000   1417.3655     -23028.977     -6280.814       16.319797    
    884000   1248.3205     -23032.388      9565.0624      16.286984    
    885000   1419.3145     -23034.672      5354.2862      16.325281    
    886000   1171.1773     -23026.043     -6076.6236      16.294915    
    887000   1323.1558     -23036.43       4783.9066      16.300361    
    888000   1445.7149     -23032.181      7238.1197      16.335045    
    889000   1301.489      -23034.25      -6859.657       16.347585    
    890000   1402.5826     -23035.071      7618.768       16.206405    
    891000   1333.515      -23030.844     -9188.3164      16.320667    
    892000   1317.1781     -23029.516     -8650.8495      16.303574    
    893000   1299.9982     -23042.496      14708.957      16.223158    
    894000   1406.7481     -23040.485     -1575.3671      16.392689    
    895000   1451.9863     -23043.542      5788.1561      16.364909    
    896000   1307.012      -23046.448     -3055.9516      16.421241    
    897000   1454.6942     -23046.444     -6112.0555      16.451669    
    898000   1330.7733     -23049.361      8724.6778      16.438317    
    899000   1319.9682     -23052.852     -3151.0255      16.39938     
    900000   1240.1042     -23058.027     -3478.9756      16.471072    
[...]
   5293000   1125.4743     -23059.702     -1364.9772      16.575331    
   5294000   1398.287      -23079.556     -288.15709      16.53567     
   5295000   1321.4217     -23077.294      1021.5631      16.545837    
   5296000   1347.9264     -23079.379     -7534.5551      16.570969    
   5297000   1381.9299     -23078.56      -14274.018      16.596439    
   5298000   1304.9885     -23076.879      2271.0822      16.523724    
   5299000   1275.6803     -23065.804      6007.8387      16.546021    
   5300000   1275.0767     -23064.209     -5495.8333      16.592845    
   5301000   1262.122      -23069.111     -8482.7547      16.592394    
   5302000   1170.8252     -23064.117      4336.8586      16.537935    
   5303000   1328.609      -23058.812      12716.502      16.522492    
   5304000   1487.5043     -23070.488      1687.9401      16.541864    
   5305000   1262.2821     -23067.692      2365.0829      16.548344    
   5306000   1308.5857     -23060.205      7115.138       16.562123    
   5307000   1317.9863     -23049.563     -4336.1872      16.584104    
   5308000   1261.6368     -23048.639     -7838.6189      16.606829    
   5309000   1167.3042     -23050.706     -2658.3095      16.602488    
   5310000   1427.7364     -23052.948     -273.04633      16.593551    
   5311000   1413.9128     -23059.867      8970.6628      16.535818    
   5312000   1423.7775     -23055.28       10795.48       16.525583    
   5313000   1229.0339     -23059.427      3433.472       16.5522      
   5314000   1344.005      -23056.311     -5361.1362      16.593142    
   5315000   1290.1159     -23053.463      2327.2562      16.576977    
   5316000   1452.8262     -23044.693     -13890.443      16.620419    
   5317000   1367.2174     -23040.172     -4748.8457      16.532825    
   5318000   1400.2298     -23039.419      4211.7986      16.450152    
   5319000   1305.3548     -23040.222      2859.2417      16.484093    
   5320000   1406.3454     -23043.814      9027.0478      16.44998     
   5321000   1191.9242     -23045.3       -5067.7537      16.501773    
   5322000   1348.4994     -23042.41       12791.63       16.419757    
   5323000   1232.945      -23044.352      9403.7289      16.451507    
   5324000   1254.1698     -23048.617      5446.4592      16.503124    
   5325000   1340.1626     -23043.34       11195.085      16.482558    
   5326000   1315.7861     -23041.464     -3941.7156      16.529012    
   5327000   1529.6381     -23040.848     -3350.4107      16.543305    
   5328000   1376.6167     -23037.09       14020.222      16.441366    
   5329000   1452.9373     -23037.417      16593.182      16.434528    
   5330000   1267.5922     -23031.983      10338.932      16.385854    
   5331000   1380.1536     -23030.442     -4748.1361      16.510079    
   5332000   1417.056      -23036.802      12458.276      16.408737    
   5333000   1516.2514     -23042.238      12680.437      16.465455    
   5334000   1512.1231     -23040.188     -5007.7582      16.52981     
   5335000   1288.3626     -23034.887     -1782.9271      16.503047    
   5336000   1454.3696     -23036.298      6407.5067      16.421958    
   5337000   1269.7789     -23030.041     -3742.4626      16.435619    
   5338000   1379.4892     -23034.22      -15097.023      16.484105    
   5339000   1262.1247     -23039.699      7719.172       16.414432    
   5340000   1400.5408     -23037.742      7266.5217      16.431718    
   5341000   1471.7301     -23031.87      -5225.0637      16.432062    
   5342000   1334.9203     -23030.531      11958.316      16.380555    
   5343000   1394.8193     -23032.669     -4127.3402      16.388007    
   5344000   1406.0812     -23034.438      1401.2372      16.394277    
   5345000   1293.6937     -23034.188     -2127.6766      16.517379    
   5346000   1335.5063     -23040.981     -7276.4387      16.517992    
   5347000   1340.8169     -23039.651      9743.4261      16.433297    
   5348000   1371.6416     -23036.606      2078.7284      16.395733    
   5349000   1198.0422     -23029.684      23960.894      16.297902    
   5350000   1396.4514     -23034.959     -908.63278      16.46501     
   5351000   1280.0959     -23039.081      5807.2593      16.422864    
   5352000   1334.8101     -23030.011      8508.619       16.376656    
   5353000   1279.1802     -23031.631     -1844.4666      16.392749    
   5354000   1266.5892     -23033.203      8559.8029      16.345264    
   5355000   1395.8552     -23035.023      2626.1392      16.388417    
   5356000   1396.6895     -23037.388      198.44789      16.450552    
   5357000   1380.4275     -23038.361     -283.31871      16.45925     
   5358000   1427.987      -23039.894     -3675.8323      16.474607    
   5359000   1255.0148     -23042.95      -3363.7854      16.49525     
   5360000   1345.3427     -23043.453      1873.0722      16.5001      
   5361000   1412.5861     -23035.311     -2802.9493      16.511759    
   5362000   1306.1983     -23040.423     -9538.0813      16.5343      
   5363000   1384.753      -23046.362     -3202.4713      16.48861     
   5364000   1223.1663     -23046.401      4520.4714      16.459094    
   5365000   1304.1331     -23043.195     -9638.9546      16.504272    
   5366000   1274.1041     -23046.66       2079.0975      16.519629    
   5367000   1393.4748     -23047.382     -5554.9179      16.586003    
   5368000   1347.484      -23044.622     -8374.2186      16.561366    
   5369000   1336.7381     -23043.51       4025.6143      16.503839    
   5370000   1381.0748     -23048.311      1622.3494      16.538366    
   5371000   1406.4128     -23050.417     -3065.1817      16.57876     
   5372000   1257.1048     -23051.364     -5726.8674      16.594574    
   5373000   1288.5301     -23045.306     -10965.201      16.611116    
   5374000   1328.1227     -23051.644      3627.5457      16.561892    
   5375000   1324.1735     -23047.825      6209.8276      16.538304    
   5376000   1285.0114     -23051.605      9892.7707      16.523898    
   5377000   1195.1944     -23056.809      9556.8531      16.519995    
   5378000   1294.0014     -23061.402      4723.3975      16.557384    
   5379000   1301.8099     -23058.748     -5295.0827      16.600381    
   5380000   1412.67       -23055.006     -422.95359      16.586528    
   5381000   1350.6995     -23047.519      993.47318      16.57891     
   5382000   1393.3251     -23056.204      2421.3633      16.565544    
   5383000   1239.647      -23042.894      7900.5344      16.520132    
   5384000   1151.4629     -23046.135      717.18337      16.561237    
   5385000   1241.493      -23050.242     -1651.6473      16.579305    
   5386000   1337.2311     -23054.03       3680.9968      16.56669     
   5387000   1396.412      -23052.531      9160.332       16.528917    
   5388000   1453.9073     -23047.051      11106.656      16.520284    
   5389000   1357.2685     -23047.103      7955.8749      16.49331     
   5390000   1459.3022     -23044.952      13080.105      16.484456    
   5391000   1297.9613     -23044.796      11354.251      16.474084    
   5392000   1361.1785     -23042.44       10378.469      16.435036    
   5393000   1325.9686     -23039.848      4691.9016      16.411555    
   5394000   1345.2639     -23033.82      -5617.3945      16.517033    
   5395000   1523.1258     -23030.041      9710.0482      16.366914    
   5396000   1353.2281     -23024.864      13395.631      16.324814    
   5397000   1218.8854     -23022.912      731.22494      16.362714    
   5398000   1345.3523     -23026.657      5495.9281      16.372029    
   5399000   1338.9593     -23029.508      7252.0287      16.376072    
   5400000   1403.8631     -23022.276      2992.3483      16.331873    
   5401000   1308.5295     -23019.264     -1263.2093      16.372289    
   5402000   1388.2275     -23025.063      1225.791       16.371827    
   5403000   1314.0902     -23026.828     -7792.0813      16.359224    
   5404000   1462.5788     -23019.339      5661.1984      16.303801    
   5405000   1413.6033     -23022.173      6783.5615      16.298444    
   5406000   1241.8293     -23022.959     -20218.101      16.434538    
   5407000   1466.8274     -23018.253      8359.3868      16.283737    
   5408000   1387.3481     -23019.263     -13705.269      16.435101    
   5409000   1387.8846     -23016.547      4620.4817      16.343349    
   5410000   1378.7741     -23014.708      10046.977      16.285777    
   5411000   1355.6063     -23013.346     -12011.476      16.355424    
   5412000   1400.4559     -23018.778     -2660.7869      16.324329    
   5413000   1382.0097     -23024.452      267.50388      16.393414    
   5414000   1353.3042     -23023.14       15336.601      16.321774    
   5415000   1474.5863     -23027.821      4133.1299      16.404766    
   5416000   1346.9676     -23026.624     -14639.754      16.496392    
   5417000   1461.6706     -23027.133     -7153.7547      16.413169    
   5418000   1462.0748     -23022.543      240.48678      16.37863     
   5419000   1495.3627     -23014.511      1108.7818      16.37336     
   5420000   1250.8012     -23014.966     -3816.2559      16.377705    
   5421000   1462.4863     -23006.854      281.99809      16.305478    
   5422000   1320.4385     -23001.419     -10810.619      16.317427    
   5423000   1248.8966     -23004.865      7033.4605      16.311092    
   5424000   1328.8845     -23005.357      10711.874      16.2715      
   5425000   1348.3905     -23001.89      -10212.467      16.325275    
   5426000   1280.8107     -23008.943     -13985.767      16.289136    
   5427000   1354.9848     -23003.815     -595.00674      16.223728    
   5428000   1422.787      -23005.905      15719.656      16.1941      
   5429000   1292.3518     -22999.592      13839.2        16.118867    
   5430000   1321.9484     -22998.566     -7311.3374      16.192331    
   5431000   1307.1791     -23000.275      7834.6339      16.113648    
   5432000   1169.4995     -22995.218     -3289.5407      16.203078    
   5433000   1191.5215     -22993.129     -4721.3569      16.124577    
   5434000   1399.1327     -22988.864      18012.758      16.081893    
   5435000   1363.0506     -22985.537     -4923.15        16.118497    
   5436000   1379.5146     -22982.005     -3020.4578      16.112625    
   5437000   1325.0174     -22982.377     -16837.471      16.102059    
   5438000   1458.7426     -22980.135     -6444.9018      16.138416    
   5439000   1411.1174     -22975.319      13466.746      15.984501    
   5440000   1488.7481     -22981.857     -770.74435      15.98263     
   5441000   1362.9171     -22981.4       -9584.6698      16.036797    
   5442000   1472.8789     -22979.922      14539.005      15.93671     
   5443000   1347.0656     -22975.568     -3922.1229      16.179932    
   5444000   1429.0266     -22970.478      27420.918      16.065004    
   5445000   1525.4563     -22982.021      5227.2957      16.204578    
   5446000   1347.1928     -22985.101      9060.4314      16.20069     
   5447000   1286.8555     -22986.657      12761.996      16.165546    
   5448000   1354.2863     -22992.123      11035.643      16.336678    
   5449000   1530.9285     -22992.382      16043.568      16.196666    
   5450000   1245.5439     -22993.214      7273.0666      16.229731    
   5451000   1261.54       -22983.743      15366.333      16.032694    
   5452000   1292.7214     -22980.427      7678.3054      16.123586    
   5453000   1412.4555     -22974.444      5702.6138      16.118712    
   5454000   1329.8223     -22973.84       95.687098      16.128494    
   5455000   1384.901      -22972.109     -4770.7821      16.196688    
   5456000   1418.1898     -22974.571     -2146.9524      16.216336    
   5457000   1354.0391     -22976.493      12827.716      16.080868    
   5458000   1395.8762     -22974.978      2191.1827      16.208793    
   5459000   1280.2636     -22974.489     -4924.9562      16.274978    
   5460000   1393.3306     -22972.99      -5562.6134      16.25687     
   5461000   1357.8076     -22974.118     -21.573688      16.118631    
   5462000   1298.3288     -22976.847      5012.1981      16.124561    
   5463000   1412.2568     -22975.986      11859.55       16.064704    
   5464000   1311.6455     -22974.84      -1599.7344      16.122262    
   5465000   1357.6061     -22979.553     -1633.1449      16.014335    
   5466000   1393.3543     -22971.969     -16374.435      16.30433     
   5467000   1307.1691     -22974.518      1663.955       16.297783    
   5468000   1272.3926     -22970.859      7962.5282      16.220209    
   5469000   1454.6405     -22972.261     -303.99358      16.335399    
   5470000   1444.7934     -22977.379      2862.6619      16.093755    
   5471000   1424.9798     -22974.854     -4166.3964      16.138287    
   5472000   1524.7548     -22976.39      -1277.7287      16.081101    
   5473000   1338.6544     -22976.741     -7026.8107      16.069664    
   5474000   1328.4002     -22973.615      3183.9512      15.978836    
   5475000   1338.8458     -22982.653      14713.54       15.909679    
   5476000   1391.6378     -22983.919      502.80311      15.944468    
   5477000   1397.4746     -22987.152     -1497.9777      16.015465    
   5478000   1435.8652     -22992.554      676.80794      16.08989     
   5479000   1355.7261     -22992.052     -5683.346       16.149624    
   5480000   1398.3384     -22988.83      -11175.467      16.121359    
   5481000   1400.8216     -22977.853     -17411.663      16.248935    
   5482000   1402.9326     -22979.227     -8653.2048      16.000217    
   5483000   1280.2794     -22978.943     -4992.4215      16.039704    
   5484000   1366.2125     -22976.134      9748.6672      15.996324    
   5485000   1338.0764     -22976.891      12861.355      16.012106    
   5486000   1444.6384     -22975.06      -7572.3853      16.133468    
   5487000   1321.4499     -22976.232     -7022.622       16.154436    
   5488000   1346.1716     -22983.158     -19176.386      16.213352    
   5489000   1351.0025     -22980.374      3684.7791      16.004758    
   5490000   1405.0705     -22979.898     -6633.1055      16.027438    
   5491000   1351.1907     -22984.71      -8588.886       16.047126    
   5492000   1392.4421     -22976.812      3516.3608      16.01111     
   5493000   1357.0436     -22982.722     -14364.701      16.114946    
   5494000   1327.003      -22978.607     -9289.4778      16.121572    
   5495000   1382.0449     -22975.68      -1802.9256      16.007854    
   5496000   1336.7328     -22972.658     -3283.869       16.202279    
   5497000   1339.8327     -22975.937     -14797.117      16.285362    
   5498000   1293.2115     -22973.533     -1095.7806      16.181793    
   5499000   1376.3518     -22974.847      9705.8912      16.13089     
   5500000   1375.6958     -22975.087      4905.4644      16.184178    
   5501000   1217.0725     -22974.135      264.37291      16.129385    
   5502000   1254.7881     -22971.047      470.70435      16.22703     
   5503000   1356.1568     -22974.506      8202.0035      16.015585    
   5504000   1287.4173     -22974.112     -880.26268      16.229127    
   5505000   1331.9407     -22974.18      -42.684219      16.156925    
   5506000   1426.1256     -22976.689      827.14463      16.18847     
   5507000   1283.7725     -22979.15       6266.6291      16.202885    
   5508000   1430.771      -22982.363      8171.7977      16.264851    
   5509000   1558.8091     -22981.728      3131.9781      16.270338    
   5510000   1307.5437     -22977.052      5908.8301      16.172245    
   5511000   1401.5492     -22967.96       7623.0846      16.205844    
   5512000   1291.412      -22970.486      175.87145      16.29212     
   5513000   1430.761      -22975.363      6125.7801      16.18497     
   5514000   1391.6608     -22980.534      8533.3755      16.007269    
   5515000   1366.2539     -22987.139     -6699.4416      15.92547     
   5516000   1207.9393     -22981.17      -10158.879      16.156035    
   5517000   1414.7531     -22985.821     -12309.85       16.10259     
   5518000   1334.4414     -22980.425     -16643.575      16.106421    
   5519000   1269.308      -22984.421     -3418.0684      16.055495    
   5520000   1465.901      -22981.192     -78.094755      16.076842    
   5521000   1311.6175     -22976.465     -20383.824      16.108935    
   5522000   1388.192      -22974.069     -8773.6065      16.180804    
   5523000   1346.6312     -22976.663     -10140.302      16.100737    
   5524000   1262.7296     -22972.524     -776.14991      16.238276    
   5525000   1238.8719     -22973.017      4906.3782      16.106853    
   5526000   1315.9647     -22975.954      2524.1606      16.116416    
   5527000   1289.4377     -22979.311      3684.8088      16.214758    
   5528000   1494.3717     -22981.073      13510.855      16.198476    
   5529000   1345.8084     -22977.755      7947.8621      16.185307    
   5530000   1466.0405     -22975.356      2027.6209      16.168182    
   5531000   1473.3561     -22983.221      10758.088      16.199362    
   5532000   1254.6791     -22978.585      19031.501      16.087072    
   5533000   1232.1244     -22975.757      3906.3259      16.210065    
   5534000   1483.0968     -22977.993      9802.411       16.149491    
   5535000   1310.6577     -22976.854      3750.5787      16.24396     
   5536000   1343.0516     -22971.904      9093.9674      16.053907    
   5537000   1375.934      -22975.014     -1885.9947      16.189087    
   5538000   1360.6617     -22974.877      3613.5343      16.108393    
   5539000   1287.6882     -22979.242     -2995.6021      16.055992    
   5540000   1259.7755     -22974.319     -4471.8349      16.177045    
   5541000   1364.7608     -22974.046     -13549.723      16.123814    
   5542000   1413.7582     -22974.589      9597.2554      16.300421    
   5543000   1341.8219     -22978.243      6048.0706      16.225272    
   5544000   1188.147      -22970.929      2662.9794      16.213978    
   5545000   1438.6488     -22979.854      4532.5314      15.984007    
   5546000   1385.3038     -22973.276     -19100.185      16.223482    
   5547000   1363.3324     -22977.379     -9732.8114      16.08271     
   5548000   1441.7739     -22977.53      -2910.434       16.029127    
WARNING: Wall time limit reached (src/timer.cpp:193)
Loop time of 6560.39 on 8 procs for 5548000 steps with 216 atoms

Performance: 73.067 ns/day, 0.328 hours/ns, 845.682 timesteps/s
779.8% CPU use with 1 MPI tasks x 8 OpenMP threads

MPI task timing breakdown:
Section |  min time  |  avg time  |  max time  |%varavg| %total
---------------------------------------------------------------
Pair    | 5525.6     | 5525.6     | 5525.6     |   0.0 | 84.23
Bond    | 0.52317    | 0.52317    | 0.52317    |   0.0 |  0.01
Neigh   | 81.177     | 81.177     | 81.177     |   0.0 |  1.24
Comm    | 30.039     | 30.039     | 30.039     |   0.0 |  0.46
Output  | 5.7259     | 5.7259     | 5.7259     |   0.0 |  0.09
Modify  | 907.77     | 907.77     | 907.77     |   0.0 | 13.84
Other   |            | 9.56       |            |       |  0.15

Nlocal:            216 ave         216 max         216 min
Histogram: 1 0 0 0 0 0 0 0 0 0
Nghost:           1512 ave        1512 max        1512 min
Histogram: 1 0 0 0 0 0 0 0 0 0
Neighs:              0 ave           0 max           0 min
Histogram: 1 0 0 0 0 0 0 0 0 0
FullNghs:        24150 ave       24150 max       24150 min
Histogram: 1 0 0 0 0 0 0 0 0 0

Total # of neighbors = 24150
Ave neighs/atom = 111.80556
Ave special neighs/atom = 0
Neighbor list builds = 105456
Dangerous builds = 0

unfix		4
unfix		3
unfix		2
unfix		1

write_data	data.final
System init for write_data ...
Generated 0 of 0 mixed pair_coeff terms from geometric mixing rule
Total wall time: 1:50:03
