An instance of this daemon is already running
An instance of this daemon is already running

     Program PWSCF v.7.1 starts on 16May2023 at 12:10:58 

     This program is part of the open-source Quantum ESPRESSO suite
     for quantum simulation of materials; please cite
         "P. Giannozzi et al., J. Phys.:Condens. Matter 21 395502 (2009);
         "P. Giannozzi et al., J. Phys.:Condens. Matter 29 465901 (2017);
         "P. Giannozzi et al., J. Chem. Phys. 152 154105 (2020);
          URL http://www.quantum-espresso.org", 
     in publications or presentations arising from this work. More details at
     http://www.quantum-espresso.org/quote

     Parallel version (MPI & OpenMP), running on       4 processor cores
     Number of MPI processes:                 4
     Threads/MPI process:                     1

     MPI processes distributed on     1 nodes
     923508 MiB available memory on the printing compute node when the environment starts
 
     Reading input from pw-si.in

     Current dimensions of program PWSCF are:
     Max number of different atomic species (ntypx) = 10
     Max number of k-points (npk) =  40000
     Max angular momentum in pseudopotentials (lmaxx) =  4

     IMPORTANT: XC functional enforced from input :
     Exchange-correlation= PBE
                           (   1   4   3   4   0   0   0)
     Any further DFT definition will be discarded
     Please, verify this is what you really want

     Found identity + (  0.0000  0.2500  0.2500) symmetry
     This is a supercell, fractional translations are disabled
     Message from routine setup:
     using ibrav=0 with symmetry is DISCOURAGED, use correct ibrav instead
 
     R & G space division:  proc/nbgrp/npool/nimage =       4
     Subspace diagonalization in iterative solution of the eigenvalue problem:
     a serial algorithm will be used

 
     Parallelization info
     --------------------
     sticks:   dense  smooth     PW     G-vecs:    dense   smooth      PW
     Min        1004    1004    271                47933    47933    6631
     Max        1005    1005    272                47934    47934    6634
     Sum        4017    4017   1085               191735   191735   26529
 
     Using Slab Decomposition
 


     bravais-lattice index     =            0
     lattice parameter (alat)  =      20.5251  a.u.
     unit-cell volume          =    8646.7724 (a.u.)^3
     number of atoms/cell      =           64
     number of atomic types    =            1
     number of electrons       =       256.00
     number of Kohn-Sham states=          128
     kinetic-energy cutoff     =      30.0000  Ry
     charge density cutoff     =     120.0000  Ry
     scf convergence threshold =      1.0E-06
     mixing beta               =       0.5000
     number of iterations used =            8  plain     mixing
     energy convergence thresh.=      1.0E-04
     force convergence thresh. =      1.0E-03
     press convergence thresh. =      5.0E-01
     Exchange-correlation= PBE
                           (   1   4   3   4   0   0   0)
     nstep                     =           50


     GPU acceleration is ACTIVE.
     GPU-aware MPI enabled

     Message from routine print_cuda_info:
     High GPU oversubscription detected. Are you sure this is what you want?

     celldm(1)=  20.525071  celldm(2)=   0.000000  celldm(3)=   0.000000
     celldm(4)=   0.000000  celldm(5)=   0.000000  celldm(6)=   0.000000

     crystal axes: (cart. coord. in units of alat)
               a(1) = (   1.000000   0.000000   0.000000 )  
               a(2) = (   0.000000   1.000000   0.000000 )  
               a(3) = (   0.000000   0.000000   1.000000 )  

     reciprocal axes: (cart. coord. in units 2 pi/alat)
               b(1) = (  1.000000  0.000000  0.000000 )  
               b(2) = (  0.000000  1.000000  0.000000 )  
               b(3) = (  0.000000  0.000000  1.000000 )  


     PseudoPot. # 1 for Si read from file:
     /home/ppiaggi/pseudos/Si_ONCV_PBE_sr.upf
     MD5 check sum: 8553c464762ac42b85b1eed164b4d029
     Pseudo is Norm-conserving, Zval =  4.0
     Generated using ONCVPSP code by D. R. Hamann
     Using radial grid of 1510 points,  4 beta functions with: 
                l(1) =   0
                l(2) =   0
                l(3) =   1
                l(4) =   1

     atomic species   valence    mass     pseudopotential
        Si             4.00    28.08550     Si( 1.00)

     24 Sym. Ops. (no inversion) found



   Cartesian axes

     site n.     atom                  positions (alat units)
         1           Si  tau(   1) = (   0.0000000   0.0000000   0.0000000  )
         2           Si  tau(   2) = (   0.0000000   0.2500000   0.2500000  )
         3           Si  tau(   3) = (   0.2500000   0.0000000   0.2500000  )
         4           Si  tau(   4) = (   0.2500000   0.2500000   0.0000000  )
         5           Si  tau(   5) = (   0.1250000   0.1250000   0.1250000  )
         6           Si  tau(   6) = (   0.5000000   0.0000000   0.0000000  )
         7           Si  tau(   7) = (   0.5000000   0.2500000   0.2500000  )
         8           Si  tau(   8) = (   0.6250000   0.1250000   0.1250000  )
         9           Si  tau(   9) = (   0.7500000   0.0000000   0.2500000  )
        10           Si  tau(  10) = (   0.7500000   0.2500000   0.0000000  )
        11           Si  tau(  11) = (   0.0000000   0.5000000   0.0000000  )
        12           Si  tau(  12) = (   0.2500000   0.5000000   0.2500000  )
        13           Si  tau(  13) = (   0.1250000   0.6250000   0.1250000  )
        14           Si  tau(  14) = (   0.3750000   0.3750000   0.1250000  )
        15           Si  tau(  15) = (   0.5000000   0.5000000   0.0000000  )
        16           Si  tau(  16) = (   0.6250000   0.6250000   0.1250000  )
        17           Si  tau(  17) = (   0.8750000   0.3750000   0.1250000  )
        18           Si  tau(  18) = (   0.7500000   0.5000000   0.2500000  )
        19           Si  tau(  19) = (   0.0000000   0.7500000   0.2500000  )
        20           Si  tau(  20) = (   0.2500000   0.7500000   0.0000000  )
        21           Si  tau(  21) = (   0.3750000   0.8750000   0.1250000  )
        22           Si  tau(  22) = (   0.5000000   0.7500000   0.2500000  )
        23           Si  tau(  23) = (   0.7500000   0.7500000   0.0000000  )
        24           Si  tau(  24) = (   0.8750000   0.8750000   0.1250000  )
        25           Si  tau(  25) = (   0.0000000   0.0000000   0.5000000  )
        26           Si  tau(  26) = (   0.2500000   0.2500000   0.5000000  )
        27           Si  tau(  27) = (   0.1250000   0.1250000   0.6250000  )
        28           Si  tau(  28) = (   0.3750000   0.1250000   0.3750000  )
        29           Si  tau(  29) = (   0.5000000   0.0000000   0.5000000  )
        30           Si  tau(  30) = (   0.6250000   0.1250000   0.6250000  )
        31           Si  tau(  31) = (   0.8750000   0.1250000   0.3750000  )
        32           Si  tau(  32) = (   0.7500000   0.2500000   0.5000000  )
        33           Si  tau(  33) = (   0.1250000   0.3750000   0.3750000  )
        34           Si  tau(  34) = (   0.0000000   0.5000000   0.5000000  )
        35           Si  tau(  35) = (   0.1250000   0.6250000   0.6250000  )
        36           Si  tau(  36) = (   0.6250000   0.3750000   0.3750000  )
        37           Si  tau(  37) = (   0.3750000   0.6250000   0.3750000  )
        38           Si  tau(  38) = (   0.3750000   0.3750000   0.6250000  )
        39           Si  tau(  39) = (   0.5000000   0.5000000   0.5000000  )
        40           Si  tau(  40) = (   0.6250000   0.6250000   0.6250000  )
        41           Si  tau(  41) = (   0.8750000   0.6250000   0.3750000  )
        42           Si  tau(  42) = (   0.8750000   0.3750000   0.6250000  )
        43           Si  tau(  43) = (   0.1250000   0.8750000   0.3750000  )
        44           Si  tau(  44) = (   0.2500000   0.7500000   0.5000000  )
        45           Si  tau(  45) = (   0.6250000   0.8750000   0.3750000  )
        46           Si  tau(  46) = (   0.3750000   0.8750000   0.6250000  )
        47           Si  tau(  47) = (   0.7500000   0.7500000   0.5000000  )
        48           Si  tau(  48) = (   0.8750000   0.8750000   0.6250000  )
        49           Si  tau(  49) = (   0.0000000   0.2500000   0.7500000  )
        50           Si  tau(  50) = (   0.2500000   0.0000000   0.7500000  )
        51           Si  tau(  51) = (   0.3750000   0.1250000   0.8750000  )
        52           Si  tau(  52) = (   0.5000000   0.2500000   0.7500000  )
        53           Si  tau(  53) = (   0.7500000   0.0000000   0.7500000  )
        54           Si  tau(  54) = (   0.8750000   0.1250000   0.8750000  )
        55           Si  tau(  55) = (   0.1250000   0.3750000   0.8750000  )
        56           Si  tau(  56) = (   0.2500000   0.5000000   0.7500000  )
        57           Si  tau(  57) = (   0.6250000   0.3750000   0.8750000  )
        58           Si  tau(  58) = (   0.3750000   0.6250000   0.8750000  )
        59           Si  tau(  59) = (   0.7500000   0.5000000   0.7500000  )
        60           Si  tau(  60) = (   0.8750000   0.6250000   0.8750000  )
        61           Si  tau(  61) = (   0.0000000   0.7500000   0.7500000  )
        62           Si  tau(  62) = (   0.1250000   0.8750000   0.8750000  )
        63           Si  tau(  63) = (   0.5000000   0.7500000   0.7500000  )
        64           Si  tau(  64) = (   0.6250000   0.8750000   0.8750000  )

     number of k points=     4
                       cart. coord. in units 2pi/alat
        k(    1) = (   0.0000000   0.0000000   0.0000000), wk =   0.0740741
        k(    2) = (   0.0000000   0.0000000   0.3333333), wk =   0.4444444
        k(    3) = (   0.0000000   0.3333333   0.3333333), wk =   0.8888889
        k(    4) = (   0.3333333   0.3333333   0.3333333), wk =   0.5925926

     Dense  grid:   191735 G-vectors     FFT dimensions: (  72,  72,  72)

     Estimated max dynamical RAM per process >     183.13 MB

     Estimated total dynamical RAM >     732.54 MB

     Initial potential from superposition of free atoms

     starting charge     255.9608, renormalised to     256.0000
     Starting wfcs are  256 randomized atomic wfcs

     total cpu time spent up to now is        5.5 secs

     Self-consistent Calculation

     iteration #  1     ecut=    30.00 Ry     beta= 0.50
     Davidson diagonalization with overlap
     ethr =  1.00E-02,  avg # of iterations =  2.0

     Threshold (ethr) on eigenvalues was too large:
     Diagonalizing with lowered threshold

     Davidson diagonalization with overlap
     ethr =  6.01E-04,  avg # of iterations =  2.0

     total cpu time spent up to now is        6.4 secs

     total energy              =    -504.45469556 Ry
     estimated scf accuracy    <       1.71924563 Ry

     iteration #  2     ecut=    30.00 Ry     beta= 0.50
     Davidson diagonalization with overlap
     ethr =  6.72E-04,  avg # of iterations =  1.0

     total cpu time spent up to now is        6.8 secs

     total energy              =    -504.43082379 Ry
     estimated scf accuracy    <       0.33448465 Ry

     iteration #  3     ecut=    30.00 Ry     beta= 0.50
     Davidson diagonalization with overlap
     ethr =  1.31E-04,  avg # of iterations =  2.0

     total cpu time spent up to now is        7.2 secs

     total energy              =    -504.46053927 Ry
     estimated scf accuracy    <       0.00608665 Ry

     iteration #  4     ecut=    30.00 Ry     beta= 0.50
     Davidson diagonalization with overlap
     ethr =  2.38E-06,  avg # of iterations =  4.5

     total cpu time spent up to now is        7.8 secs

     total energy              =    -504.46396530 Ry
     estimated scf accuracy    <       0.00101750 Ry

     iteration #  5     ecut=    30.00 Ry     beta= 0.50
     Davidson diagonalization with overlap
     ethr =  3.97E-07,  avg # of iterations =  4.0

     total cpu time spent up to now is        8.3 secs

     total energy              =    -504.46425196 Ry
     estimated scf accuracy    <       0.00001897 Ry

     iteration #  6     ecut=    30.00 Ry     beta= 0.50
     Davidson diagonalization with overlap
     ethr =  7.41E-09,  avg # of iterations =  6.3

     total cpu time spent up to now is        9.0 secs

     total energy              =    -504.46426905 Ry
     estimated scf accuracy    <       0.00000768 Ry

     iteration #  7     ecut=    30.00 Ry     beta= 0.50
     Davidson diagonalization with overlap
     ethr =  3.00E-09,  avg # of iterations =  2.8

     total cpu time spent up to now is        9.6 secs

     total energy              =    -504.46426752 Ry
     estimated scf accuracy    <       0.00001003 Ry

     iteration #  8     ecut=    30.00 Ry     beta= 0.50
     Davidson diagonalization with overlap
     ethr =  3.00E-09,  avg # of iterations =  2.0

     total cpu time spent up to now is       10.0 secs

     End of self-consistent calculation

          k = 0.0000 0.0000 0.0000 ( 23871 PWs)   bands (ev):

    -5.7363  -4.6548  -4.6548  -4.6548  -4.6548  -4.6548  -4.6547  -3.6935
    -3.6935  -3.6935  -3.6935  -3.6935  -3.6935  -3.6935  -3.6935  -3.6935
    -3.6935  -3.6935  -3.6935  -3.4066  -3.4066  -3.4066  -3.4066  -1.5936
    -1.5936  -1.5936  -1.5936  -1.5936  -1.5936  -1.4302  -1.4302  -1.4302
    -1.4302  -1.4302  -1.4302  -1.4302  -1.4302  -1.4302  -1.4302  -1.4302
    -1.4302  -0.7431  -0.7431  -0.7431  -0.7431   0.7431   0.7431   0.7431
     0.7431   0.7431   0.7431   0.7431   0.7431   0.7431   0.7431   0.7431
     0.7431   2.3781   2.3781   2.3781   2.3781   2.3781   2.3781   2.3781
     2.3781   2.3781   2.3781   2.3781   2.3781   2.4770   2.4770   2.4770
     2.4770   2.4770   2.4770   2.4770   2.4770   2.4770   2.4770   2.4770
     2.4770   2.7047   2.7047   2.7047   2.7047   2.7047   2.7047   3.3801
     3.3801   3.3801   3.3801   3.3801   3.3801   4.3413   4.3413   4.3413
     4.3413   4.3413   4.3413   4.3413   4.3413   4.3413   4.3413   4.3413
     4.3413   4.9031   4.9031   4.9031   4.9031   4.9031   4.9031   4.9031
     4.9031   4.9031   4.9031   4.9031   4.9031   5.0324   5.0324   5.0324
     5.0324   5.0324   5.0324   5.0324   5.0324   6.2280   6.2280   6.2280

          k = 0.0000 0.0000 0.3333 ( 24044 PWs)   bands (ev):

    -5.6149  -5.2524  -4.5443  -4.5443  -4.5443  -4.5443  -4.2182  -4.2182
    -4.2182  -4.2182  -3.8328  -3.6316  -3.6316  -3.6316  -3.6316  -3.4898
    -3.4898  -3.4898  -3.4898  -3.0064  -3.0064  -3.0064  -3.0063  -2.8037
    -2.2214  -2.2214  -2.2214  -2.2214  -1.5556  -1.5556  -1.5556  -1.5556
    -1.4741  -1.4741  -1.4741  -1.4741  -0.6966  -0.6966  -0.6966  -0.6966
    -0.4626  -0.4626  -0.4626  -0.4626  -0.2394   0.0060   0.0060   0.0060
     0.0060   0.2186   0.2186   0.2186   0.2186   1.2111   1.5352   1.5352
     1.5352   1.5352   2.0217   2.0217   2.0217   2.0217   2.0794   2.0794
     2.0794   2.0794   2.3024   2.3024   2.3024   2.3024   2.5861   2.5861
     2.5861   2.5861   3.0728   3.0728   3.0728   3.0728   3.1309   3.1309
     3.1309   3.1309   3.1520   3.1520   3.1520   3.1520   3.1810   3.1810
     3.1810   3.1810   3.4895   3.4895   3.8143   3.8143   3.9005   3.9005
     3.9005   3.9005   4.1540   4.1540   4.1540   4.1540   4.1839   4.3521
     4.3521   4.3521   4.3521   4.6034   4.6034   4.6034   4.6034   4.9336
     4.9336   4.9337   4.9337   4.9575   4.9575   4.9575   4.9575   4.9982
     4.9982   4.9982   4.9982   5.0367   5.0367   5.5303   5.7991   5.7991

          k = 0.0000 0.3333 0.3333 ( 23941 PWs)   bands (ev):

    -5.4945  -5.1354  -5.1354  -4.7873  -4.4375  -4.4374  -4.1242  -4.1242
    -4.1242  -4.1242  -3.8593  -3.8593  -3.7342  -3.7342  -3.4480  -3.4480
    -3.1649  -3.1649  -3.0260  -3.0260  -3.0260  -3.0260  -2.7264  -2.7264
    -2.5127  -2.5127  -2.4739  -2.4640  -2.4640  -1.9433  -1.9433  -1.7350
    -1.3309  -1.0319  -1.0319  -0.6329  -0.6329  -0.6195  -0.6195  -0.5471
    -0.4201  -0.4201  -0.3203  -0.3203  -0.3203  -0.3203  -0.2760  -0.2760
     0.1291   0.1291   0.5789   0.5789   0.9543   0.9543   0.9543   0.9543
     1.0360   1.0360   1.7876   1.7876   1.8177   1.9803   1.9803   2.2200
     2.2200   2.3854   2.4622   2.4622   2.5064   2.6411   2.6411   2.6411
     2.6411   2.6606   2.6606   3.0813   3.0813   3.1079   3.1079   3.3048
     3.3048   3.3913   3.3913   3.4578   3.4578   3.4694   3.4694   3.4964
     3.4964   3.5729   3.6298   3.6298   3.7929   3.7929   3.7929   3.7929
     3.8169   3.8197   3.8197   3.9357   3.9358   4.1199   4.2351   4.2351
     4.2591   4.2591   4.2591   4.2591   4.4850   4.4850   4.5837   4.5837
     4.5955   4.5955   4.6350   4.6522   4.6522   4.8241   4.8241   4.9214
     4.9214   4.9214   4.9214   5.3653   5.5228   5.5228   5.6650   6.1109

          k = 0.3333 0.3333 0.3333 ( 23984 PWs)   bands (ev):

    -5.3753  -5.0202  -5.0202  -5.0202  -4.6787  -4.6787  -4.6787  -4.3602
    -3.6433  -3.6433  -3.6433  -3.3869  -3.3869  -3.3869  -3.3869  -3.3869
    -3.3868  -3.2470  -3.2470  -3.2470  -2.6963  -2.6963  -2.6963  -2.6695
    -2.6695  -2.6695  -2.5399  -2.5399  -2.5399  -2.5399  -2.5399  -2.5399
    -0.5728  -0.5728  -0.5728  -0.5134  -0.5134  -0.5134  -0.5134  -0.5134
    -0.5134  -0.3801  -0.3801  -0.3801  -0.3427  -0.3427  -0.3427   0.1986
     0.1986   0.1986   0.1986   0.1986   0.1986   0.7666   0.7666   0.7666
     0.8912   1.8232   1.8232   1.8232   2.2813   2.2813   2.2813   2.2813
     2.2813   2.2813   2.3319   2.3319   2.3319   2.5987   2.5987   2.5987
     2.7951   2.7951   2.7951   3.0053   3.0053   3.0053   3.0053   3.0053
     3.0053   3.2419   3.2419   3.2419   3.4511   3.4511   3.4511   3.6105
     3.6105   3.6105   3.6105   3.6105   3.6105   3.6779   3.6779   3.6779
     3.8439   3.9881   3.9881   3.9881   4.1046   4.1046   4.1046   4.1046
     4.1046   4.1046   4.2067   4.2067   4.2067   4.4551   4.4551   4.4551
     4.5390   4.5390   4.5390   5.1231   5.1231   5.1231   5.2300   5.2300
     5.3013   5.3013   5.3013   5.5472   5.5472   5.5472   5.7790   5.7790

     highest occupied level (ev):     6.2280

!    total energy              =    -504.46426812 Ry
     estimated scf accuracy    <       0.00000004 Ry

     The total energy is the sum of the following terms:
     one-electron contribution =     151.90250905 Ry
     hartree contribution      =      35.20105171 Ry
     xc contribution           =    -154.07091996 Ry
     ewald contribution        =    -537.49690892 Ry

     convergence has been achieved in   8 iterations

     Forces acting on atoms (cartesian axes, Ry/au):

     atom    1 type  1   force =     0.00000000    0.00000000    0.00000000
     atom    2 type  1   force =    -0.00000080   -0.00000286   -0.00000286
     atom    3 type  1   force =    -0.00000286   -0.00000080   -0.00000286
     atom    4 type  1   force =    -0.00000286   -0.00000286   -0.00000080
     atom    5 type  1   force =    -0.00000310   -0.00000310   -0.00000310
     atom    6 type  1   force =     0.00000000    0.00000000    0.00000000
     atom    7 type  1   force =     0.00000089   -0.00000268   -0.00000268
     atom    8 type  1   force =     0.00000205   -0.00000194   -0.00000194
     atom    9 type  1   force =     0.00000286    0.00000080   -0.00000286
     atom   10 type  1   force =     0.00000286   -0.00000286    0.00000080
     atom   11 type  1   force =     0.00000000    0.00000000    0.00000000
     atom   12 type  1   force =    -0.00000268    0.00000089   -0.00000268
     atom   13 type  1   force =    -0.00000194    0.00000205   -0.00000194
     atom   14 type  1   force =    -0.00000120   -0.00000120   -0.00000264
     atom   15 type  1   force =     0.00000000    0.00000000    0.00000000
     atom   16 type  1   force =     0.00000120    0.00000120   -0.00000264
     atom   17 type  1   force =     0.00000194   -0.00000205   -0.00000194
     atom   18 type  1   force =     0.00000268   -0.00000089   -0.00000268
     atom   19 type  1   force =     0.00000080    0.00000286   -0.00000286
     atom   20 type  1   force =    -0.00000286    0.00000286    0.00000080
     atom   21 type  1   force =    -0.00000205    0.00000194   -0.00000194
     atom   22 type  1   force =    -0.00000089    0.00000268   -0.00000268
     atom   23 type  1   force =     0.00000286    0.00000286   -0.00000080
     atom   24 type  1   force =     0.00000310    0.00000310   -0.00000310
     atom   25 type  1   force =     0.00000000    0.00000000    0.00000000
     atom   26 type  1   force =    -0.00000268   -0.00000268    0.00000089
     atom   27 type  1   force =    -0.00000194   -0.00000194    0.00000205
     atom   28 type  1   force =    -0.00000120   -0.00000264   -0.00000120
     atom   29 type  1   force =     0.00000000    0.00000000    0.00000000
     atom   30 type  1   force =     0.00000120   -0.00000264    0.00000120
     atom   31 type  1   force =     0.00000194   -0.00000194   -0.00000205
     atom   32 type  1   force =     0.00000268   -0.00000268   -0.00000089
     atom   33 type  1   force =    -0.00000264   -0.00000120   -0.00000120
     atom   34 type  1   force =     0.00000000    0.00000000    0.00000000
     atom   35 type  1   force =    -0.00000264    0.00000120    0.00000120
     atom   36 type  1   force =     0.00000177   -0.00000177   -0.00000177
     atom   37 type  1   force =    -0.00000177    0.00000177   -0.00000177
     atom   38 type  1   force =    -0.00000177   -0.00000177    0.00000177
     atom   39 type  1   force =     0.00000000    0.00000000    0.00000000
     atom   40 type  1   force =     0.00000177    0.00000177    0.00000177
     atom   41 type  1   force =     0.00000264    0.00000120   -0.00000120
     atom   42 type  1   force =     0.00000264   -0.00000120    0.00000120
     atom   43 type  1   force =    -0.00000194    0.00000194   -0.00000205
     atom   44 type  1   force =    -0.00000268    0.00000268   -0.00000089
     atom   45 type  1   force =     0.00000120    0.00000264   -0.00000120
     atom   46 type  1   force =    -0.00000120    0.00000264    0.00000120
     atom   47 type  1   force =     0.00000268    0.00000268    0.00000089
     atom   48 type  1   force =     0.00000194    0.00000194    0.00000205
     atom   49 type  1   force =     0.00000080   -0.00000286    0.00000286
     atom   50 type  1   force =    -0.00000286    0.00000080    0.00000286
     atom   51 type  1   force =    -0.00000205   -0.00000194    0.00000194
     atom   52 type  1   force =    -0.00000089   -0.00000268    0.00000268
     atom   53 type  1   force =     0.00000286   -0.00000080    0.00000286
     atom   54 type  1   force =     0.00000310   -0.00000310    0.00000310
     atom   55 type  1   force =    -0.00000194   -0.00000205    0.00000194
     atom   56 type  1   force =    -0.00000268   -0.00000089    0.00000268
     atom   57 type  1   force =     0.00000120   -0.00000120    0.00000264
     atom   58 type  1   force =    -0.00000120    0.00000120    0.00000264
     atom   59 type  1   force =     0.00000268    0.00000089    0.00000268
     atom   60 type  1   force =     0.00000194    0.00000205    0.00000194
     atom   61 type  1   force =    -0.00000080    0.00000286    0.00000286
     atom   62 type  1   force =    -0.00000310    0.00000310    0.00000310
     atom   63 type  1   force =     0.00000089    0.00000268    0.00000268
     atom   64 type  1   force =     0.00000205    0.00000194    0.00000194

     Total force =     0.000028     Total SCF correction =     0.000167
     SCF correction compared to forces is large: reduce conv_thr to get better values


     Computing stress (Cartesian axis) and pressure

          total   stress  (Ry/bohr**3)                   (kbar)     P=       22.65
   0.00015399   0.00000000   0.00000000           22.65        0.00        0.00
   0.00000000   0.00015399   0.00000000            0.00       22.65        0.00
   0.00000000   0.00000000   0.00015399            0.00        0.00       22.65


     BFGS Geometry Optimization
     Energy error            =      0.0E+00 Ry
     Gradient error          =      3.1E-06 Ry/Bohr
     Cell gradient error     =      2.3E+01 kbar

     number of scf cycles    =   1
     number of bfgs steps    =   0

     enthalpy           new  =    -504.4642681178 Ry

     new trust radius        =       0.0715975724 bohr
     new conv_thr            =       0.0000010000 Ry

     new unit-cell volume =   8747.02306 a.u.^3 (  1296.17509 Ang^3 )
     density =      2.30275 g/cm^3

CELL_PARAMETERS (angstrom)
  10.903214518   0.000000000   0.000000000
   0.000000000  10.903214518   0.000000000
   0.000000000   0.000000000  10.903214518

ATOMIC_POSITIONS (angstrom)
Si            0.0000000000        0.0000000000        0.0000000000
Si           -0.0000004254        2.7258021076        2.7258021076
Si            2.7258021076       -0.0000004254        2.7258021076
Si            2.7258021076        2.7258021076       -0.0000004254
Si            1.3629001665        1.3629001665        1.3629001665
Si            5.4516072591        0.0000000000        0.0000000000
Si            5.4516077295        2.7258022079        2.7258022079
Si            6.8145101642        1.3629007852        1.3629007852
Si            8.1774124106        0.0000004254        2.7258021076
Si            8.1774124106        2.7258021076        0.0000004254
Si            0.0000000000        5.4516072591        0.0000000000
Si            2.7258022079        5.4516077295        2.7258022079
Si            1.3629007852        6.8145101642        1.3629007852
Si            4.0887048052        4.0887048052        1.3629004127
Si            5.4516072591        5.4516072591        0.0000000000
Si            6.8145097129        6.8145097129        1.3629004127
Si            9.5403137330        4.0887043540        1.3629007852
Si            8.1774123103        5.4516067887        2.7258022079
Si            0.0000004254        8.1774124106        2.7258021076
Si            2.7258021076        8.1774124106        0.0000004254
Si            4.0887043540        9.5403137330        1.3629007852
Si            5.4516067887        8.1774123103        2.7258022079
Si            8.1774124106        8.1774124106       -0.0000004254
Si            9.5403143517        9.5403143517        1.3629001665
Si            0.0000000000        0.0000000000        5.4516072591
Si            2.7258022079        2.7258022079        5.4516077295
Si            1.3629007852        1.3629007852        6.8145101642
Si            4.0887048052        1.3629004127        4.0887048052
Si            5.4516072591        0.0000000000        5.4516072591
Si            6.8145097129        1.3629004127        6.8145097129
Si            9.5403137330        1.3629007852        4.0887043540
Si            8.1774123103        2.7258022079        5.4516067887
Si            1.3629004127        4.0887048052        4.0887048052
Si            0.0000000000        5.4516072591        5.4516072591
Si            1.3629004127        6.8145097129        6.8145097129
Si            6.8145100161        4.0887045021        4.0887045021
Si            4.0887045021        6.8145100161        4.0887045021
Si            4.0887045021        4.0887045021        6.8145100161
Si            5.4516072591        5.4516072591        5.4516072591
Si            6.8145100161        6.8145100161        6.8145100161
Si            9.5403141055        6.8145097129        4.0887048052
Si            9.5403141055        4.0887048052        6.8145097129
Si            1.3629007852        9.5403137330        4.0887043540
Si            2.7258022079        8.1774123103        5.4516067887
Si            6.8145097129        9.5403141055        4.0887048052
Si            4.0887048052        9.5403141055        6.8145097129
Si            8.1774123103        8.1774123103        5.4516077295
Si            9.5403137330        9.5403137330        6.8145101642
Si            0.0000004254        2.7258021076        8.1774124106
Si            2.7258021076        0.0000004254        8.1774124106
Si            4.0887043540        1.3629007852        9.5403137330
Si            5.4516067887        2.7258022079        8.1774123103
Si            8.1774124106       -0.0000004254        8.1774124106
Si            9.5403143517        1.3629001665        9.5403143517
Si            1.3629007852        4.0887043540        9.5403137330
Si            2.7258022079        5.4516067887        8.1774123103
Si            6.8145097129        4.0887048052        9.5403141055
Si            4.0887048052        6.8145097129        9.5403141055
Si            8.1774123103        5.4516077295        8.1774123103
Si            9.5403137330        6.8145101642        9.5403137330
Si           -0.0000004254        8.1774124106        8.1774124106
Si            1.3629001665        9.5403143517        9.5403143517
Si            5.4516077295        8.1774123103        8.1774123103
Si            6.8145101642        9.5403137330        9.5403137330



     Writing config-only to output data dir ./pwscf.save/
     NEW-OLD atomic charge density approx. for the potential
     extrapolated charge  258.93360, renormalised to  256.00000

     total cpu time spent up to now is       12.1 secs

     Self-consistent Calculation

     iteration #  1     ecut=    30.00 Ry     beta= 0.50
     Davidson diagonalization with overlap
     ethr =  1.00E-06,  avg # of iterations =  5.0

     total cpu time spent up to now is       12.8 secs

     total energy              =    -504.47321066 Ry
     estimated scf accuracy    <       0.00142658 Ry

     iteration #  2     ecut=    30.00 Ry     beta= 0.50
     Davidson diagonalization with overlap
     ethr =  5.57E-07,  avg # of iterations =  3.8

     total cpu time spent up to now is       13.4 secs

     total energy              =    -504.47599828 Ry
     estimated scf accuracy    <       0.00059136 Ry

     iteration #  3     ecut=    30.00 Ry     beta= 0.50
     Davidson diagonalization with overlap
     ethr =  2.31E-07,  avg # of iterations =  1.0

     total cpu time spent up to now is       13.8 secs

     total energy              =    -504.47591118 Ry
     estimated scf accuracy    <       0.00024954 Ry

     iteration #  4     ecut=    30.00 Ry     beta= 0.50
     Davidson diagonalization with overlap
     ethr =  9.75E-08,  avg # of iterations =  2.0

     total cpu time spent up to now is       14.2 secs

     total energy              =    -504.47593818 Ry
     estimated scf accuracy    <       0.00001249 Ry

     iteration #  5     ecut=    30.00 Ry     beta= 0.50
     Davidson diagonalization with overlap
     ethr =  4.88E-09,  avg # of iterations =  2.5

     total cpu time spent up to now is       14.7 secs

     total energy              =    -504.47593876 Ry
     estimated scf accuracy    <       0.00000572 Ry

     iteration #  6     ecut=    30.00 Ry     beta= 0.50
     Davidson diagonalization with overlap
     ethr =  2.23E-09,  avg # of iterations =  1.0

     total cpu time spent up to now is       15.1 secs

     total energy              =    -504.47593717 Ry
     estimated scf accuracy    <       0.00000523 Ry

     iteration #  7     ecut=    30.00 Ry     beta= 0.50
     Davidson diagonalization with overlap
     ethr =  2.04E-09,  avg # of iterations =  2.3

     total cpu time spent up to now is       15.5 secs

     total energy              =    -504.47593619 Ry
     estimated scf accuracy    <       0.00000360 Ry

     iteration #  8     ecut=    30.00 Ry     beta= 0.50
     Davidson diagonalization with overlap
     ethr =  1.40E-09,  avg # of iterations =  3.0

     total cpu time spent up to now is       16.0 secs

     End of self-consistent calculation

          k = 0.0000 0.0000 0.0000 ( 23871 PWs)   bands (ev):

    -5.7772  -4.7064  -4.7064  -4.7064  -4.7064  -4.7064  -4.7064  -3.7563
    -3.7563  -3.7563  -3.7563  -3.7563  -3.7563  -3.7563  -3.7563  -3.7563
    -3.7563  -3.7563  -3.7563  -3.4764  -3.4764  -3.4764  -3.4764  -1.6762
    -1.6762  -1.6762  -1.6762  -1.6762  -1.6762  -1.5179  -1.5179  -1.5179
    -1.5179  -1.5179  -1.5179  -1.5179  -1.5179  -1.5179  -1.5179  -1.5179
    -1.5179  -0.8093  -0.8093  -0.8093  -0.8093   0.6442   0.6442   0.6442
     0.6442   0.6442   0.6442   0.6442   0.6442   0.6442   0.6442   0.6442
     0.6442   2.3067   2.3067   2.3067   2.3067   2.3067   2.3067   2.3067
     2.3067   2.3067   2.3067   2.3067   2.3067   2.4013   2.4013   2.4013
     2.4013   2.4013   2.4013   2.4013   2.4013   2.4013   2.4013   2.4013
     2.4013   2.5829   2.5829   2.5829   2.5829   2.5829   2.5829   3.2904
     3.2904   3.2904   3.2904   3.2904   3.2904   4.2429   4.2429   4.2429
     4.2429   4.2429   4.2429   4.2429   4.2429   4.2429   4.2429   4.2429
     4.2429   4.7962   4.7962   4.7962   4.7962   4.7962   4.7962   4.7962
     4.7962   4.7962   4.7962   4.7962   4.7962   4.9227   4.9227   4.9227
     4.9227   4.9227   4.9227   4.9227   4.9227   6.1084   6.1084   6.1084

          k = 0.0000 0.0000 0.3321 ( 24044 PWs)   bands (ev):

    -5.6569  -5.2981  -4.5972  -4.5972  -4.5972  -4.5972  -4.2748  -4.2748
    -4.2748  -4.2748  -3.8927  -3.6957  -3.6957  -3.6957  -3.6957  -3.5573
    -3.5573  -3.5573  -3.5573  -3.0773  -3.0773  -3.0773  -3.0773  -2.8741
    -2.3015  -2.3015  -2.3015  -2.3015  -1.6394  -1.6394  -1.6394  -1.6394
    -1.5604  -1.5604  -1.5604  -1.5604  -0.7887  -0.7887  -0.7887  -0.7887
    -0.5340  -0.5340  -0.5340  -0.5340  -0.3356  -0.0889  -0.0889  -0.0889
    -0.0889   0.1340   0.1340   0.1340   0.1340   1.1012   1.4299   1.4299
     1.4299   1.4299   1.9537   1.9537   1.9537   1.9537   2.0092   2.0092
     2.0092   2.0092   2.1880   2.1880   2.1880   2.1880   2.5111   2.5111
     2.5111   2.5111   2.9891   2.9891   2.9891   2.9891   3.0475   3.0475
     3.0475   3.0475   3.0700   3.0700   3.0700   3.0700   3.0903   3.0903
     3.0903   3.0903   3.3988   3.3988   3.7207   3.7207   3.8081   3.8081
     3.8081   3.8081   4.0544   4.0575   4.0575   4.0575   4.0575   4.2471
     4.2471   4.2471   4.2471   4.5001   4.5001   4.5001   4.5001   4.8262
     4.8262   4.8262   4.8262   4.8502   4.8502   4.8502   4.8502   4.8893
     4.8893   4.8893   4.8893   4.9315   4.9315   5.4017   5.6855   5.6855

          k = 0.0000 0.3321 0.3321 ( 23941 PWs)   bands (ev):

    -5.5377  -5.1822  -5.1822  -4.8378  -4.4916  -4.4916  -4.1821  -4.1821
    -4.1821  -4.1821  -3.9211  -3.9211  -3.7954  -3.7954  -3.5129  -3.5129
    -3.2369  -3.2369  -3.0979  -3.0979  -3.0979  -3.0979  -2.7980  -2.7980
    -2.5879  -2.5879  -2.5520  -2.5424  -2.5424  -2.0270  -2.0270  -1.8193
    -1.4155  -1.1195  -1.1195  -0.7060  -0.7060  -0.7041  -0.7041  -0.6372
    -0.5158  -0.5158  -0.4026  -0.4026  -0.4026  -0.4026  -0.3725  -0.3725
     0.0501   0.0501   0.4774   0.4774   0.8627   0.8627   0.8627   0.8627
     0.9284   0.9284   1.6847   1.6847   1.7521   1.9137   1.9137   2.1450
     2.1450   2.3126   2.3873   2.3873   2.3963   2.5572   2.5572   2.5572
     2.5572   2.5826   2.5826   3.0006   3.0006   3.0235   3.0235   3.2188
     3.2188   3.3039   3.3039   3.3697   3.3697   3.3788   3.3788   3.3835
     3.3835   3.4812   3.5307   3.5307   3.6955   3.6955   3.6955   3.6955
     3.7262   3.7273   3.7273   3.8429   3.8429   4.0222   4.1319   4.1319
     4.1613   4.1613   4.1613   4.1613   4.3846   4.3846   4.4812   4.4812
     4.4961   4.4961   4.5146   4.5430   4.5430   4.7183   4.7183   4.8140
     4.8140   4.8140   4.8140   5.2574   5.4079   5.4079   5.5492   5.9915

          k = 0.3321 0.3321 0.3321 ( 23984 PWs)   bands (ev):

    -5.4198  -5.0683  -5.0683  -5.0683  -4.7305  -4.7305  -4.7305  -4.4158
    -3.7058  -3.7058  -3.7058  -3.4532  -3.4532  -3.4532  -3.4532  -3.4532
    -3.4532  -3.3167  -3.3167  -3.3167  -2.7726  -2.7726  -2.7726  -2.7425
    -2.7425  -2.7425  -2.6161  -2.6161  -2.6161  -2.6161  -2.6161  -2.6161
    -0.6547  -0.6547  -0.6547  -0.6035  -0.6035  -0.6035  -0.6035  -0.6035
    -0.6035  -0.4567  -0.4567  -0.4567  -0.4377  -0.4377  -0.4377   0.1085
     0.1085   0.1085   0.1085   0.1085   0.1085   0.6655   0.6655   0.6655
     0.8053   1.7266   1.7266   1.7266   2.2075   2.2075   2.2075   2.2075
     2.2075   2.2075   2.2540   2.2540   2.2540   2.5225   2.5225   2.5225
     2.6896   2.6896   2.6896   2.9172   2.9172   2.9172   2.9172   2.9172
     2.9172   3.1545   3.1545   3.1545   3.3547   3.3547   3.3547   3.5210
     3.5210   3.5210   3.5210   3.5210   3.5210   3.5852   3.5852   3.5852
     3.7328   3.8925   3.8925   3.8925   4.0090   4.0090   4.0090   4.0090
     4.0090   4.0090   4.1080   4.1080   4.1080   4.3536   4.3536   4.3536
     4.4353   4.4353   4.4353   5.0160   5.0160   5.0160   5.1192   5.1192
     5.1868   5.1868   5.1868   5.4327   5.4327   5.4327   5.6642   5.6642

     highest occupied level (ev):     6.1084

!    total energy              =    -504.47593682 Ry
     estimated scf accuracy    <       0.00000034 Ry

     The total energy is the sum of the following terms:
     one-electron contribution =     149.12477645 Ry
     hartree contribution      =      35.52003408 Ry
     xc contribution           =    -153.68517312 Ry
     ewald contribution        =    -535.43557423 Ry

     convergence has been achieved in   8 iterations

     Forces acting on atoms (cartesian axes, Ry/au):

     atom    1 type  1   force =     0.00000000    0.00000000    0.00000000
     atom    2 type  1   force =    -0.00000028    0.00001375    0.00001375
     atom    3 type  1   force =     0.00001375   -0.00000028    0.00001375
     atom    4 type  1   force =     0.00001375    0.00001375   -0.00000028
     atom    5 type  1   force =     0.00000935    0.00000935    0.00000935
     atom    6 type  1   force =     0.00000000    0.00000000    0.00000000
     atom    7 type  1   force =     0.00000073    0.00001257    0.00001257
     atom    8 type  1   force =    -0.00000973    0.00001038    0.00001038
     atom    9 type  1   force =    -0.00001375    0.00000028    0.00001375
     atom   10 type  1   force =    -0.00001375    0.00001375    0.00000028
     atom   11 type  1   force =     0.00000000    0.00000000    0.00000000
     atom   12 type  1   force =     0.00001257    0.00000073    0.00001257
     atom   13 type  1   force =     0.00001038   -0.00000973    0.00001038
     atom   14 type  1   force =     0.00000923    0.00000923    0.00001106
     atom   15 type  1   force =     0.00000000    0.00000000    0.00000000
     atom   16 type  1   force =    -0.00000923   -0.00000923    0.00001106
     atom   17 type  1   force =    -0.00001038    0.00000973    0.00001038
     atom   18 type  1   force =    -0.00001257   -0.00000073    0.00001257
     atom   19 type  1   force =     0.00000028   -0.00001375    0.00001375
     atom   20 type  1   force =     0.00001375   -0.00001375    0.00000028
     atom   21 type  1   force =     0.00000973   -0.00001038    0.00001038
     atom   22 type  1   force =    -0.00000073   -0.00001257    0.00001257
     atom   23 type  1   force =    -0.00001375   -0.00001375   -0.00000028
     atom   24 type  1   force =    -0.00000935   -0.00000935    0.00000935
     atom   25 type  1   force =     0.00000000    0.00000000    0.00000000
     atom   26 type  1   force =     0.00001257    0.00001257    0.00000073
     atom   27 type  1   force =     0.00001038    0.00001038   -0.00000973
     atom   28 type  1   force =     0.00000923    0.00001106    0.00000923
     atom   29 type  1   force =     0.00000000    0.00000000    0.00000000
     atom   30 type  1   force =    -0.00000923    0.00001106   -0.00000923
     atom   31 type  1   force =    -0.00001038    0.00001038    0.00000973
     atom   32 type  1   force =    -0.00001257    0.00001257   -0.00000073
     atom   33 type  1   force =     0.00001106    0.00000923    0.00000923
     atom   34 type  1   force =     0.00000000    0.00000000    0.00000000
     atom   35 type  1   force =     0.00001106   -0.00000923   -0.00000923
     atom   36 type  1   force =    -0.00000725    0.00000725    0.00000725
     atom   37 type  1   force =     0.00000725   -0.00000725    0.00000725
     atom   38 type  1   force =     0.00000725    0.00000725   -0.00000725
     atom   39 type  1   force =     0.00000000    0.00000000    0.00000000
     atom   40 type  1   force =    -0.00000725   -0.00000725   -0.00000725
     atom   41 type  1   force =    -0.00001106   -0.00000923    0.00000923
     atom   42 type  1   force =    -0.00001106    0.00000923   -0.00000923
     atom   43 type  1   force =     0.00001038   -0.00001038    0.00000973
     atom   44 type  1   force =     0.00001257   -0.00001257   -0.00000073
     atom   45 type  1   force =    -0.00000923   -0.00001106    0.00000923
     atom   46 type  1   force =     0.00000923   -0.00001106   -0.00000923
     atom   47 type  1   force =    -0.00001257   -0.00001257    0.00000073
     atom   48 type  1   force =    -0.00001038   -0.00001038   -0.00000973
     atom   49 type  1   force =     0.00000028    0.00001375   -0.00001375
     atom   50 type  1   force =     0.00001375    0.00000028   -0.00001375
     atom   51 type  1   force =     0.00000973    0.00001038   -0.00001038
     atom   52 type  1   force =    -0.00000073    0.00001257   -0.00001257
     atom   53 type  1   force =    -0.00001375   -0.00000028   -0.00001375
     atom   54 type  1   force =    -0.00000935    0.00000935   -0.00000935
     atom   55 type  1   force =     0.00001038    0.00000973   -0.00001038
     atom   56 type  1   force =     0.00001257   -0.00000073   -0.00001257
     atom   57 type  1   force =    -0.00000923    0.00000923   -0.00001106
     atom   58 type  1   force =     0.00000923   -0.00000923   -0.00001106
     atom   59 type  1   force =    -0.00001257    0.00000073   -0.00001257
     atom   60 type  1   force =    -0.00001038   -0.00000973   -0.00001038
     atom   61 type  1   force =    -0.00000028   -0.00001375   -0.00001375
     atom   62 type  1   force =     0.00000935   -0.00000935   -0.00000935
     atom   63 type  1   force =     0.00000073   -0.00001257   -0.00001257
     atom   64 type  1   force =    -0.00000973   -0.00001038   -0.00001038

     Total force =     0.000131     Total SCF correction =     0.001151
     SCF correction compared to forces is large: reduce conv_thr to get better values


     Computing stress (Cartesian axis) and pressure

          total   stress  (Ry/bohr**3)                   (kbar)     P=       11.71
   0.00007962   0.00000000   0.00000000           11.71        0.00        0.00
   0.00000000   0.00007962   0.00000000            0.00       11.71        0.00
   0.00000000   0.00000000   0.00007962            0.00        0.00       11.71

     Energy error            =      1.2E-02 Ry
     Gradient error          =      1.4E-05 Ry/Bohr
     Cell gradient error     =      1.2E+01 kbar

     number of scf cycles    =   2
     number of bfgs steps    =   1

     enthalpy           old  =    -504.4642681178 Ry
     enthalpy           new  =    -504.4759368239 Ry

     CASE: enthalpy          _new < enthalpy          _old

     new trust radius        =       0.0780386382 bohr
     new conv_thr            =       0.0000000100 Ry

     new unit-cell volume =   8856.95951 a.u.^3 (  1312.46599 Ang^3 )
     density =      2.27417 g/cm^3

CELL_PARAMETERS (angstrom)
  10.948703279   0.000000000   0.000000000
   0.000000000  10.948703279   0.000000000
   0.000000000   0.000000000  10.948703279

ATOMIC_POSITIONS (angstrom)
Si            0.0000000000        0.0000000000        0.0000000000
Si           -0.0000007381        2.7371896698        2.7371896698
Si            2.7371896698       -0.0000007381        2.7371896698
Si            2.7371896698        2.7371896698       -0.0000007381
Si            1.3685967031        1.3685967031        1.3685967031
Si            5.4743516396        0.0000000000        0.0000000000
Si            5.4743529330        2.7371884495        2.7371884495
Si            6.8429297693        1.3685984844        1.3685984844
Si            8.2115136094        0.0000007381        2.7371896698
Si            8.2115136094        2.7371896698        0.0000007381
Si            0.0000000000        5.4743516396        0.0000000000
Si            2.7371884495        5.4743529330        2.7371884495
Si            1.3685984844        6.8429297693        1.3685984844
Si            4.1057734094        4.1057734094        1.3685988697
Si            5.4743516396        5.4743516396        0.0000000000
Si            6.8429298698        6.8429298698        1.3685988697
Si            9.5801047947        4.1057735099        1.3685984844
Si            8.2115148297        5.4743503462        2.7371884495
Si            0.0000007381        8.2115136094        2.7371896698
Si            2.7371896698        8.2115136094        0.0000007381
Si            4.1057735099        9.5801047947        1.3685984844
Si            5.4743503462        8.2115148297        2.7371884495
Si            8.2115136094        8.2115136094       -0.0000007381
Si            9.5801065760        9.5801065760        1.3685967031
Si            0.0000000000        0.0000000000        5.4743516396
Si            2.7371884495        2.7371884495        5.4743529330
Si            1.3685984844        1.3685984844        6.8429297693
Si            4.1057734094        1.3685988697        4.1057734094
Si            5.4743516396        0.0000000000        5.4743516396
Si            6.8429298698        1.3685988697        6.8429298698
Si            9.5801047947        1.3685984844        4.1057735099
Si            8.2115148297        2.7371884495        5.4743503462
Si            1.3685988697        4.1057734094        4.1057734094
Si            0.0000000000        5.4743516396        5.4743516396
Si            1.3685988697        6.8429298698        6.8429298698
Si            6.8429323913        4.1057708879        4.1057708879
Si            4.1057708879        6.8429323913        4.1057708879
Si            4.1057708879        4.1057708879        6.8429323913
Si            5.4743516396        5.4743516396        5.4743516396
Si            6.8429323913        6.8429323913        6.8429323913
Si            9.5801044095        6.8429298698        4.1057734094
Si            9.5801044095        4.1057734094        6.8429298698
Si            1.3685984844        9.5801047947        4.1057735099
Si            2.7371884495        8.2115148297        5.4743503462
Si            6.8429298698        9.5801044095        4.1057734094
Si            4.1057734094        9.5801044095        6.8429298698
Si            8.2115148297        8.2115148297        5.4743529330
Si            9.5801047947        9.5801047947        6.8429297693
Si            0.0000007381        2.7371896698        8.2115136094
Si            2.7371896698        0.0000007381        8.2115136094
Si            4.1057735099        1.3685984844        9.5801047947
Si            5.4743503462        2.7371884495        8.2115148297
Si            8.2115136094       -0.0000007381        8.2115136094
Si            9.5801065760        1.3685967031        9.5801065760
Si            1.3685984844        4.1057735099        9.5801047947
Si            2.7371884495        5.4743503462        8.2115148297
Si            6.8429298698        4.1057734094        9.5801044095
Si            4.1057734094        6.8429298698        9.5801044095
Si            8.2115148297        5.4743529330        8.2115148297
Si            9.5801047947        6.8429297693        9.5801047947
Si           -0.0000007381        8.2115136094        8.2115136094
Si            1.3685967031        9.5801065760        9.5801065760
Si            5.4743529330        8.2115148297        8.2115148297
Si            6.8429297693        9.5801047947        9.5801047947



     Writing config-only to output data dir ./pwscf.save/
     NEW-OLD atomic charge density approx. for the potential
     extrapolated charge  259.17710, renormalised to  256.00000

     total cpu time spent up to now is       18.2 secs

     Self-consistent Calculation

     iteration #  1     ecut=    30.00 Ry     beta= 0.50
     Davidson diagonalization with overlap
     ethr =  1.00E-06,  avg # of iterations =  5.0

     total cpu time spent up to now is       18.8 secs

     total energy              =    -504.47722317 Ry
     estimated scf accuracy    <       0.00169124 Ry

     iteration #  2     ecut=    30.00 Ry     beta= 0.50
     Davidson diagonalization with overlap
     ethr =  6.61E-07,  avg # of iterations =  3.8

     total cpu time spent up to now is       19.4 secs

     total energy              =    -504.48051684 Ry
     estimated scf accuracy    <       0.00071199 Ry

     iteration #  3     ecut=    30.00 Ry     beta= 0.50
     Davidson diagonalization with overlap
     ethr =  2.78E-07,  avg # of iterations =  1.3

     total cpu time spent up to now is       19.8 secs

     total energy              =    -504.48043933 Ry
     estimated scf accuracy    <       0.00029727 Ry

     iteration #  4     ecut=    30.00 Ry     beta= 0.50
     Davidson diagonalization with overlap
     ethr =  1.16E-07,  avg # of iterations =  1.0

     total cpu time spent up to now is       20.2 secs

     total energy              =    -504.48044281 Ry
     estimated scf accuracy    <       0.00002910 Ry

     iteration #  5     ecut=    30.00 Ry     beta= 0.50
     Davidson diagonalization with overlap
     ethr =  1.14E-08,  avg # of iterations =  2.5

     total cpu time spent up to now is       20.7 secs

     total energy              =    -504.48044708 Ry
     estimated scf accuracy    <       0.00000738 Ry

     iteration #  6     ecut=    30.00 Ry     beta= 0.50
     Davidson diagonalization with overlap
     ethr =  2.88E-09,  avg # of iterations =  2.5

     total cpu time spent up to now is       21.1 secs

     total energy              =    -504.48044746 Ry
     estimated scf accuracy    <       0.00000021 Ry

     iteration #  7     ecut=    30.00 Ry     beta= 0.50
     Davidson diagonalization with overlap
     ethr =  8.13E-11,  avg # of iterations =  5.0

     total cpu time spent up to now is       21.8 secs

     total energy              =    -504.48044751 Ry
     estimated scf accuracy    <       0.00000060 Ry

     iteration #  8     ecut=    30.00 Ry     beta= 0.50
     Davidson diagonalization with overlap
     ethr =  8.13E-11,  avg # of iterations =  3.3

     total cpu time spent up to now is       22.3 secs

     total energy              =    -504.48044762 Ry
     estimated scf accuracy    <       0.00000002 Ry

     iteration #  9     ecut=    30.00 Ry     beta= 0.50
     Davidson diagonalization with overlap
     ethr =  7.08E-12,  avg # of iterations =  4.0

     total cpu time spent up to now is       22.9 secs

     End of self-consistent calculation

          k = 0.0000 0.0000 0.0000 ( 23871 PWs)   bands (ev):

    -5.8210  -4.7617  -4.7617  -4.7617  -4.7617  -4.7617  -4.7617  -3.8236
    -3.8236  -3.8236  -3.8236  -3.8236  -3.8236  -3.8236  -3.8236  -3.8236
    -3.8236  -3.8236  -3.8236  -3.5513  -3.5513  -3.5513  -3.5513  -1.7650
    -1.7650  -1.7650  -1.7650  -1.7650  -1.7650  -1.6121  -1.6121  -1.6121
    -1.6121  -1.6121  -1.6121  -1.6121  -1.6121  -1.6121  -1.6121  -1.6121
    -1.6120  -0.8805  -0.8805  -0.8805  -0.8805   0.5379   0.5379   0.5379
     0.5379   0.5379   0.5379   0.5379   0.5379   0.5379   0.5379   0.5379
     0.5379   2.2302   2.2302   2.2302   2.2302   2.2302   2.2302   2.2302
     2.2302   2.2302   2.2302   2.2302   2.2302   2.3202   2.3202   2.3202
     2.3202   2.3202   2.3202   2.3202   2.3202   2.3202   2.3202   2.3202
     2.3202   2.4519   2.4519   2.4519   2.4519   2.4519   2.4519   3.1943
     3.1943   3.1943   3.1943   3.1943   3.1943   4.1375   4.1375   4.1375
     4.1375   4.1375   4.1375   4.1375   4.1375   4.1375   4.1375   4.1375
     4.1375   4.6817   4.6817   4.6817   4.6817   4.6817   4.6817   4.6817
     4.6817   4.6817   4.6817   4.6817   4.6817   4.8052   4.8052   4.8052
     4.8052   4.8052   4.8052   4.8052   4.8052   5.9801   5.9801   5.9801

          k = 0.0000 0.0000 0.3307 ( 24044 PWs)   bands (ev):

    -5.7021  -5.3470  -4.6539  -4.6539  -4.6539  -4.6539  -4.3355  -4.3355
    -4.3355  -4.3355  -3.9569  -3.7645  -3.7645  -3.7645  -3.7644  -3.6298
    -3.6298  -3.6298  -3.6298  -3.1534  -3.1534  -3.1534  -3.1534  -2.9496
    -2.3874  -2.3874  -2.3874  -2.3874  -1.7293  -1.7293  -1.7293  -1.7293
    -1.6530  -1.6530  -1.6530  -1.6530  -0.8875  -0.8875  -0.8875  -0.8875
    -0.6109  -0.6109  -0.6109  -0.6109  -0.4390  -0.1909  -0.1909  -0.1909
    -0.1909   0.0429   0.0429   0.0429   0.0429   0.9831   1.3166   1.3166
     1.3166   1.3166   1.8809   1.8809   1.8809   1.8810   1.9340   1.9340
     1.9340   1.9340   2.0649   2.0649   2.0649   2.0649   2.4306   2.4306
     2.4306   2.4306   2.8993   2.8993   2.8993   2.8993   2.9581   2.9581
     2.9581   2.9581   2.9822   2.9822   2.9822   2.9822   2.9932   2.9932
     2.9932   2.9932   3.3017   3.3017   3.6205   3.6205   3.7090   3.7090
     3.7090   3.7090   3.9149   3.9540   3.9540   3.9540   3.9540   4.1346
     4.1346   4.1346   4.1346   4.3894   4.3894   4.3894   4.3894   4.7110
     4.7110   4.7110   4.7110   4.7352   4.7352   4.7352   4.7352   4.7726
     4.7726   4.7726   4.7726   4.8188   4.8188   5.2630   5.5636   5.5636

          k = 0.0000 0.3307 0.3307 ( 23941 PWs)   bands (ev):

    -5.5842  -5.2325  -5.2325  -4.8920  -4.5497  -4.5497  -4.2443  -4.2443
    -4.2443  -4.2443  -3.9875  -3.9875  -3.8610  -3.8610  -3.5826  -3.5826
    -3.3141  -3.3141  -3.1751  -3.1751  -3.1751  -3.1751  -2.8749  -2.8749
    -2.6687  -2.6687  -2.6356  -2.6266  -2.6266  -2.1168  -2.1168  -1.9098
    -1.5063  -1.2135  -1.2135  -0.7990  -0.7990  -0.7808  -0.7807  -0.7340
    -0.6186  -0.6186  -0.4913  -0.4913  -0.4913  -0.4913  -0.4761  -0.4761
    -0.0350  -0.0350   0.3683   0.3683   0.7641   0.7641   0.7641   0.7641
     0.8127   0.8127   1.5738   1.5738   1.6819   1.8422   1.8422   2.0649
     2.0649   2.2346   2.2779   2.3072   2.3072   2.4675   2.4675   2.4675
     2.4675   2.4991   2.4991   2.9141   2.9141   2.9331   2.9331   3.1267
     3.1267   3.2102   3.2102   3.2522   3.2522   3.2754   3.2754   3.2914
     3.2914   3.3829   3.4247   3.4247   3.5913   3.5913   3.5913   3.5913
     3.6283   3.6283   3.6289   3.7433   3.7433   3.9175   4.0214   4.0214
     4.0565   4.0565   4.0565   4.0565   4.2769   4.2769   4.3714   4.3714
     4.3848   4.3895   4.3895   4.4261   4.4261   4.6049   4.6049   4.6988
     4.6988   4.6988   4.6988   5.1416   5.2848   5.2848   5.4251   5.8634

          k = 0.3307 0.3307 0.3307 ( 23984 PWs)   bands (ev):

    -5.4675  -5.1199  -5.1199  -5.1199  -4.7861  -4.7861  -4.7861  -4.4755
    -3.7728  -3.7728  -3.7728  -3.5243  -3.5243  -3.5243  -3.5243  -3.5243
    -3.5243  -3.3915  -3.3915  -3.3915  -2.8545  -2.8545  -2.8545  -2.8208
    -2.8208  -2.8207  -2.6979  -2.6979  -2.6979  -2.6979  -2.6979  -2.6979
    -0.7429  -0.7429  -0.7429  -0.7003  -0.7003  -0.7003  -0.7002  -0.7002
    -0.7002  -0.5398  -0.5398  -0.5398  -0.5393  -0.5393  -0.5393   0.0116
     0.0116   0.0116   0.0116   0.0116   0.0116   0.5567   0.5567   0.5567
     0.7129   1.6226   1.6226   1.6226   2.1284   2.1284   2.1284   2.1284
     2.1284   2.1284   2.1707   2.1707   2.1707   2.4408   2.4408   2.4408
     2.5761   2.5761   2.5761   2.8230   2.8230   2.8230   2.8230   2.8230
     2.8230   3.0609   3.0609   3.0609   3.2516   3.2516   3.2516   3.4250
     3.4250   3.4250   3.4250   3.4250   3.4250   3.4859   3.4859   3.4859
     3.6131   3.7900   3.7900   3.7900   3.9065   3.9065   3.9065   3.9065
     3.9065   3.9065   4.0023   4.0023   4.0023   4.2448   4.2448   4.2448
     4.3241   4.3241   4.3241   4.9012   4.9012   4.9012   5.0005   5.0005
     5.0641   5.0641   5.0641   5.3100   5.3100   5.3100   5.5411   5.5411

     highest occupied level (ev):     5.9801

!    total energy              =    -504.48044762 Ry
     estimated scf accuracy    <          8.7E-09 Ry

     The total energy is the sum of the following terms:
     one-electron contribution =     146.13186836 Ry
     hartree contribution      =      35.86964647 Ry
     xc contribution           =    -153.27097145 Ry
     ewald contribution        =    -533.21099099 Ry

     convergence has been achieved in   9 iterations

     Forces acting on atoms (cartesian axes, Ry/au):

     atom    1 type  1   force =     0.00000000    0.00000000    0.00000000
     atom    2 type  1   force =     0.00000052   -0.00000263   -0.00000263
     atom    3 type  1   force =    -0.00000263    0.00000052   -0.00000263
     atom    4 type  1   force =    -0.00000263   -0.00000263    0.00000052
     atom    5 type  1   force =    -0.00000155   -0.00000155   -0.00000155
     atom    6 type  1   force =     0.00000000    0.00000000    0.00000000
     atom    7 type  1   force =    -0.00000056   -0.00000223   -0.00000223
     atom    8 type  1   force =     0.00000187   -0.00000262   -0.00000262
     atom    9 type  1   force =     0.00000263   -0.00000052   -0.00000263
     atom   10 type  1   force =     0.00000263   -0.00000263   -0.00000052
     atom   11 type  1   force =     0.00000000    0.00000000    0.00000000
     atom   12 type  1   force =    -0.00000223   -0.00000056   -0.00000223
     atom   13 type  1   force =    -0.00000262    0.00000187   -0.00000262
     atom   14 type  1   force =    -0.00000182   -0.00000182   -0.00000252
     atom   15 type  1   force =     0.00000000    0.00000000    0.00000000
     atom   16 type  1   force =     0.00000182    0.00000182   -0.00000252
     atom   17 type  1   force =     0.00000262   -0.00000187   -0.00000262
     atom   18 type  1   force =     0.00000223    0.00000056   -0.00000223
     atom   19 type  1   force =    -0.00000052    0.00000263   -0.00000263
     atom   20 type  1   force =    -0.00000263    0.00000263   -0.00000052
     atom   21 type  1   force =    -0.00000187    0.00000262   -0.00000262
     atom   22 type  1   force =     0.00000056    0.00000223   -0.00000223
     atom   23 type  1   force =     0.00000263    0.00000263    0.00000052
     atom   24 type  1   force =     0.00000155    0.00000155   -0.00000155
     atom   25 type  1   force =     0.00000000    0.00000000    0.00000000
     atom   26 type  1   force =    -0.00000223   -0.00000223   -0.00000056
     atom   27 type  1   force =    -0.00000262   -0.00000262    0.00000187
     atom   28 type  1   force =    -0.00000182   -0.00000252   -0.00000182
     atom   29 type  1   force =     0.00000000    0.00000000    0.00000000
     atom   30 type  1   force =     0.00000182   -0.00000252    0.00000182
     atom   31 type  1   force =     0.00000262   -0.00000262   -0.00000187
     atom   32 type  1   force =     0.00000223   -0.00000223    0.00000056
     atom   33 type  1   force =    -0.00000252   -0.00000182   -0.00000182
     atom   34 type  1   force =     0.00000000    0.00000000    0.00000000
     atom   35 type  1   force =    -0.00000252    0.00000182    0.00000182
     atom   36 type  1   force =     0.00000097   -0.00000097   -0.00000097
     atom   37 type  1   force =    -0.00000097    0.00000097   -0.00000097
     atom   38 type  1   force =    -0.00000097   -0.00000097    0.00000097
     atom   39 type  1   force =     0.00000000    0.00000000    0.00000000
     atom   40 type  1   force =     0.00000097    0.00000097    0.00000097
     atom   41 type  1   force =     0.00000252    0.00000182   -0.00000182
     atom   42 type  1   force =     0.00000252   -0.00000182    0.00000182
     atom   43 type  1   force =    -0.00000262    0.00000262   -0.00000187
     atom   44 type  1   force =    -0.00000223    0.00000223    0.00000056
     atom   45 type  1   force =     0.00000182    0.00000252   -0.00000182
     atom   46 type  1   force =    -0.00000182    0.00000252    0.00000182
     atom   47 type  1   force =     0.00000223    0.00000223   -0.00000056
     atom   48 type  1   force =     0.00000262    0.00000262    0.00000187
     atom   49 type  1   force =    -0.00000052   -0.00000263    0.00000263
     atom   50 type  1   force =    -0.00000263   -0.00000052    0.00000263
     atom   51 type  1   force =    -0.00000187   -0.00000262    0.00000262
     atom   52 type  1   force =     0.00000056   -0.00000223    0.00000223
     atom   53 type  1   force =     0.00000263    0.00000052    0.00000263
     atom   54 type  1   force =     0.00000155   -0.00000155    0.00000155
     atom   55 type  1   force =    -0.00000262   -0.00000187    0.00000262
     atom   56 type  1   force =    -0.00000223    0.00000056    0.00000223
     atom   57 type  1   force =     0.00000182   -0.00000182    0.00000252
     atom   58 type  1   force =    -0.00000182    0.00000182    0.00000252
     atom   59 type  1   force =     0.00000223   -0.00000056    0.00000223
     atom   60 type  1   force =     0.00000262    0.00000187    0.00000262
     atom   61 type  1   force =     0.00000052    0.00000263    0.00000263
     atom   62 type  1   force =    -0.00000155    0.00000155    0.00000155
     atom   63 type  1   force =    -0.00000056    0.00000223    0.00000223
     atom   64 type  1   force =     0.00000187    0.00000262    0.00000262

     Total force =     0.000026     Total SCF correction =     0.000113
     SCF correction compared to forces is large: reduce conv_thr to get better values


     Computing stress (Cartesian axis) and pressure

          total   stress  (Ry/bohr**3)                   (kbar)     P=        0.48
   0.00000326   0.00000000   0.00000000            0.48        0.00        0.00
   0.00000000   0.00000326   0.00000000            0.00        0.48        0.00
   0.00000000   0.00000000   0.00000326            0.00        0.00        0.48

     Energy error            =      4.5E-03 Ry
     Gradient error          =      2.6E-06 Ry/Bohr
     Cell gradient error     =      4.8E-01 kbar

     number of scf cycles    =   3
     number of bfgs steps    =   2

     enthalpy           old  =    -504.4759368239 Ry
     enthalpy           new  =    -504.4804476161 Ry

     CASE: enthalpy          _new < enthalpy          _old

     new trust radius        =       0.0033655112 bohr
     new conv_thr            =       0.0000000100 Ry

     new unit-cell volume =   8861.71136 a.u.^3 (  1313.17014 Ang^3 )
     density =      2.27295 g/cm^3

CELL_PARAMETERS (angstrom)
  10.950660958   0.000000000   0.000000000
   0.000000000  10.950660958   0.000000000
   0.000000000   0.000000000  10.950660958

ATOMIC_POSITIONS (angstrom)
Si            0.0000000000        0.0000000000        0.0000000000
Si           -0.0000004532        2.7376779603        2.7376779603
Si            2.7376779603       -0.0000004532        2.7376779603
Si            2.7376779603        2.7376779603       -0.0000004532
Si            1.3688407804        1.3688407804        1.3688407804
Si            5.4753304789        0.0000000000        0.0000000000
Si            5.4753314742        2.7376769331        2.7376769331
Si            6.8441541192        1.3688419846        1.3688419846
Si            8.2129829975        0.0000004532        2.7376779603
Si            8.2129829975        2.7376779603        0.0000004532
Si            0.0000000000        5.4753304789        0.0000000000
Si            2.7376769331        5.4753314742        2.7376769331
Si            1.3688419846        6.8441541192        1.3688419846
Si            4.1065067516        4.1065067516        1.3688424444
Si            5.4753304789        5.4753304789        0.0000000000
Si            6.8441542063        6.8441542063        1.3688424444
Si            9.5818189733        4.1065068387        1.3688419846
Si            8.2129840248        5.4753294836        2.7376769331
Si            0.0000004532        8.2129829975        2.7376779603
Si            2.7376779603        8.2129829975        0.0000004532
Si            4.1065068387        9.5818189733        1.3688419846
Si            5.4753294836        8.2129840248        2.7376769331
Si            8.2129829975        8.2129829975       -0.0000004532
Si            9.5818201775        9.5818201775        1.3688407804
Si            0.0000000000        0.0000000000        5.4753304789
Si            2.7376769331        2.7376769331        5.4753314742
Si            1.3688419846        1.3688419846        6.8441541192
Si            4.1065067516        1.3688424444        4.1065067516
Si            5.4753304789        0.0000000000        5.4753304789
Si            6.8441542063        1.3688424444        6.8441542063
Si            9.5818189733        1.3688419846        4.1065068387
Si            8.2129840248        2.7376769331        5.4753294836
Si            1.3688424444        4.1065067516        4.1065067516
Si            0.0000000000        5.4753304789        5.4753304789
Si            1.3688424444        6.8441542063        6.8441542063
Si            6.8441563041        4.1065046537        4.1065046537
Si            4.1065046537        6.8441563041        4.1065046537
Si            4.1065046537        4.1065046537        6.8441563041
Si            5.4753304789        5.4753304789        5.4753304789
Si            6.8441563041        6.8441563041        6.8441563041
Si            9.5818185135        6.8441542063        4.1065067516
Si            9.5818185135        4.1065067516        6.8441542063
Si            1.3688419846        9.5818189733        4.1065068387
Si            2.7376769331        8.2129840248        5.4753294836
Si            6.8441542063        9.5818185135        4.1065067516
Si            4.1065067516        9.5818185135        6.8441542063
Si            8.2129840248        8.2129840248        5.4753314742
Si            9.5818189733        9.5818189733        6.8441541192
Si            0.0000004532        2.7376779603        8.2129829975
Si            2.7376779603        0.0000004532        8.2129829975
Si            4.1065068387        1.3688419846        9.5818189733
Si            5.4753294836        2.7376769331        8.2129840248
Si            8.2129829975       -0.0000004532        8.2129829975
Si            9.5818201775        1.3688407804        9.5818201775
Si            1.3688419846        4.1065068387        9.5818189733
Si            2.7376769331        5.4753294836        8.2129840248
Si            6.8441542063        4.1065067516        9.5818185135
Si            4.1065067516        6.8441542063        9.5818185135
Si            8.2129840248        5.4753314742        8.2129840248
Si            9.5818189733        6.8441541192        9.5818189733
Si           -0.0000004532        8.2129829975        8.2129829975
Si            1.3688407804        9.5818201775        9.5818201775
Si            5.4753314742        8.2129840248        8.2129840248
Si            6.8441541192        9.5818189733        9.5818189733



     Writing config-only to output data dir ./pwscf.save/
     NEW-OLD atomic charge density approx. for the potential
     extrapolated charge  256.13725, renormalised to  256.00000

     total cpu time spent up to now is       25.0 secs

     Self-consistent Calculation

     iteration #  1     ecut=    30.00 Ry     beta= 0.50
     Davidson diagonalization with overlap
     ethr =  1.00E-06,  avg # of iterations =  1.3

     Threshold (ethr) on eigenvalues was too large:
     Diagonalizing with lowered threshold

     Davidson diagonalization with overlap
     ethr =  1.34E-09,  avg # of iterations =  4.8

     total cpu time spent up to now is       26.0 secs

     total energy              =    -504.48044918 Ry
     estimated scf accuracy    <       0.00000346 Ry

     iteration #  2     ecut=    30.00 Ry     beta= 0.50
     Davidson diagonalization with overlap
     ethr =  1.35E-09,  avg # of iterations =  3.8

     total cpu time spent up to now is       26.6 secs

     total energy              =    -504.48045543 Ry
     estimated scf accuracy    <       0.00000145 Ry

     iteration #  3     ecut=    30.00 Ry     beta= 0.50
     Davidson diagonalization with overlap
     ethr =  5.65E-10,  avg # of iterations =  2.0

     total cpu time spent up to now is       27.0 secs

     total energy              =    -504.48045545 Ry
     estimated scf accuracy    <       0.00000056 Ry

     iteration #  4     ecut=    30.00 Ry     beta= 0.50
     Davidson diagonalization with overlap
     ethr =  2.20E-10,  avg # of iterations =  1.0

     total cpu time spent up to now is       27.4 secs

     total energy              =    -504.48045532 Ry
     estimated scf accuracy    <       0.00000034 Ry

     iteration #  5     ecut=    30.00 Ry     beta= 0.50
     Davidson diagonalization with overlap
     ethr =  1.32E-10,  avg # of iterations =  2.8

     total cpu time spent up to now is       27.9 secs

     total energy              =    -504.48045534 Ry
     estimated scf accuracy    <       0.00000021 Ry

     iteration #  6     ecut=    30.00 Ry     beta= 0.50
     Davidson diagonalization with overlap
     ethr =  8.08E-11,  avg # of iterations =  2.0

     total cpu time spent up to now is       28.4 secs

     total energy              =    -504.48045535 Ry
     estimated scf accuracy    <       0.00000003 Ry

     iteration #  7     ecut=    30.00 Ry     beta= 0.50
     Davidson diagonalization with overlap
     ethr =  1.28E-11,  avg # of iterations =  3.8

     total cpu time spent up to now is       28.9 secs

     End of self-consistent calculation

          k = 0.0000 0.0000 0.0000 ( 23871 PWs)   bands (ev):

    -5.8228  -4.7640  -4.7640  -4.7640  -4.7640  -4.7640  -4.7640  -3.8264
    -3.8264  -3.8264  -3.8264  -3.8264  -3.8264  -3.8264  -3.8264  -3.8264
    -3.8264  -3.8264  -3.8264  -3.5544  -3.5544  -3.5544  -3.5544  -1.7687
    -1.7687  -1.7687  -1.7687  -1.7687  -1.7687  -1.6160  -1.6160  -1.6160
    -1.6160  -1.6160  -1.6160  -1.6160  -1.6160  -1.6160  -1.6160  -1.6160
    -1.6160  -0.8835  -0.8835  -0.8835  -0.8835   0.5334   0.5334   0.5334
     0.5334   0.5334   0.5334   0.5334   0.5334   0.5334   0.5334   0.5334
     0.5334   2.2270   2.2270   2.2270   2.2270   2.2270   2.2270   2.2270
     2.2270   2.2270   2.2270   2.2270   2.2270   2.3168   2.3168   2.3168
     2.3168   2.3168   2.3168   2.3168   2.3168   2.3168   2.3168   2.3168
     2.3168   2.4464   2.4464   2.4464   2.4464   2.4464   2.4464   3.1902
     3.1902   3.1902   3.1902   3.1902   3.1902   4.1330   4.1330   4.1330
     4.1330   4.1330   4.1330   4.1330   4.1330   4.1330   4.1330   4.1330
     4.1330   4.6769   4.6769   4.6769   4.6769   4.6769   4.6769   4.6769
     4.6769   4.6769   4.6769   4.6769   4.6769   4.8002   4.8002   4.8003
     4.8003   4.8003   4.8003   4.8003   4.8003   5.9747   5.9747   5.9747

          k = 0.0000 0.0000 0.3306 ( 24044 PWs)   bands (ev):

    -5.7039  -5.3491  -4.6563  -4.6563  -4.6563  -4.6563  -4.3380  -4.3380
    -4.3380  -4.3380  -3.9596  -3.7673  -3.7673  -3.7673  -3.7673  -3.6328
    -3.6328  -3.6328  -3.6328  -3.1566  -3.1566  -3.1566  -3.1566  -2.9527
    -2.3910  -2.3910  -2.3910  -2.3910  -1.7331  -1.7331  -1.7331  -1.7331
    -1.6569  -1.6569  -1.6569  -1.6569  -0.8917  -0.8917  -0.8917  -0.8917
    -0.6141  -0.6141  -0.6141  -0.6141  -0.4433  -0.1952  -0.1952  -0.1952
    -0.1952   0.0391   0.0391   0.0391   0.0391   0.9782   1.3118   1.3119
     1.3119   1.3119   1.8779   1.8779   1.8779   1.8779   1.9309   1.9309
     1.9309   1.9309   2.0598   2.0598   2.0598   2.0598   2.4273   2.4273
     2.4273   2.4273   2.8956   2.8956   2.8956   2.8956   2.9544   2.9544
     2.9544   2.9544   2.9785   2.9785   2.9785   2.9785   2.9891   2.9891
     2.9891   2.9891   3.2976   3.2976   3.6163   3.6163   3.7048   3.7048
     3.7048   3.7048   3.9090   3.9497   3.9497   3.9497   3.9497   4.1298
     4.1298   4.1298   4.1298   4.3847   4.3847   4.3847   4.3847   4.7062
     4.7062   4.7062   4.7062   4.7303   4.7303   4.7303   4.7303   4.7677
     4.7677   4.7677   4.7677   4.8140   4.8140   5.2572   5.5585   5.5585

          k = 0.0000 0.3306 0.3306 ( 23941 PWs)   bands (ev):

    -5.5861  -5.2346  -5.2346  -4.8943  -4.5521  -4.5521  -4.2469  -4.2469
    -4.2469  -4.2469  -3.9902  -3.9902  -3.8637  -3.8637  -3.5855  -3.5855
    -3.3174  -3.3174  -3.1783  -3.1783  -3.1783  -3.1783  -2.8781  -2.8781
    -2.6721  -2.6721  -2.6391  -2.6301  -2.6301  -2.1206  -2.1206  -1.9136
    -1.5101  -1.2174  -1.2174  -0.8029  -0.8029  -0.7840  -0.7840  -0.7380
    -0.6229  -0.6229  -0.4950  -0.4950  -0.4950  -0.4950  -0.4805  -0.4805
    -0.0386  -0.0386   0.3637   0.3637   0.7600   0.7600   0.7600   0.7600
     0.8079   0.8079   1.5692   1.5692   1.6789   1.8392   1.8392   2.0615
     2.0615   2.2314   2.2729   2.3038   2.3038   2.4637   2.4637   2.4637
     2.4637   2.4956   2.4956   2.9105   2.9105   2.9293   2.9293   3.1228
     3.1228   3.2063   3.2063   3.2469   3.2469   3.2714   3.2714   3.2875
     3.2875   3.3788   3.4203   3.4203   3.5869   3.5869   3.5869   3.5869
     3.6242   3.6242   3.6248   3.7391   3.7391   3.9131   4.0168   4.0168
     4.0521   4.0521   4.0521   4.0521   4.2724   4.2724   4.3668   4.3668
     4.3794   4.3850   4.3850   4.4212   4.4212   4.6001   4.6001   4.6940
     4.6940   4.6940   4.6940   5.1368   5.2796   5.2796   5.4199   5.8580

          k = 0.3306 0.3306 0.3306 ( 23984 PWs)   bands (ev):

    -5.4695  -5.1221  -5.1221  -5.1221  -4.7884  -4.7884  -4.7884  -4.4780
    -3.7756  -3.7756  -3.7756  -3.5273  -3.5273  -3.5273  -3.5273  -3.5273
    -3.5273  -3.3946  -3.3946  -3.3946  -2.8579  -2.8579  -2.8579  -2.8240
    -2.8240  -2.8240  -2.7014  -2.7014  -2.7014  -2.7014  -2.7014  -2.7014
    -0.7466  -0.7466  -0.7466  -0.7043  -0.7043  -0.7043  -0.7043  -0.7043
    -0.7043  -0.5441  -0.5441  -0.5441  -0.5428  -0.5428  -0.5428   0.0075
     0.0075   0.0075   0.0075   0.0075   0.0075   0.5521   0.5521   0.5521
     0.7091   1.6183   1.6183   1.6183   2.1251   2.1251   2.1251   2.1251
     2.1251   2.1251   2.1672   2.1672   2.1672   2.4374   2.4374   2.4374
     2.5713   2.5713   2.5713   2.8190   2.8190   2.8190   2.8190   2.8190
     2.8190   3.0570   3.0570   3.0570   3.2473   3.2473   3.2473   3.4210
     3.4210   3.4210   3.4210   3.4210   3.4210   3.4817   3.4817   3.4817
     3.6081   3.7857   3.7857   3.7857   3.9022   3.9022   3.9022   3.9022
     3.9022   3.9022   3.9978   3.9978   3.9978   4.2403   4.2403   4.2403
     4.3195   4.3195   4.3195   4.8964   4.8964   4.8964   4.9955   4.9955
     5.0589   5.0589   5.0589   5.3049   5.3049   5.3049   5.5359   5.5359

     highest occupied level (ev):     5.9747

!    total energy              =    -504.48045535 Ry
     estimated scf accuracy    <          9.3E-09 Ry

     The total energy is the sum of the following terms:
     one-electron contribution =     146.00405356 Ry
     hartree contribution      =      35.88421322 Ry
     xc contribution           =    -153.25305466 Ry
     ewald contribution        =    -533.11566747 Ry

     convergence has been achieved in   7 iterations

     Forces acting on atoms (cartesian axes, Ry/au):

     atom    1 type  1   force =     0.00000000    0.00000000    0.00000000
     atom    2 type  1   force =     0.00000032   -0.00000477   -0.00000477
     atom    3 type  1   force =    -0.00000477    0.00000032   -0.00000477
     atom    4 type  1   force =    -0.00000477   -0.00000477    0.00000032
     atom    5 type  1   force =    -0.00000298   -0.00000298   -0.00000298
     atom    6 type  1   force =     0.00000000    0.00000000    0.00000000
     atom    7 type  1   force =    -0.00000059   -0.00000419   -0.00000419
     atom    8 type  1   force =     0.00000340   -0.00000394   -0.00000394
     atom    9 type  1   force =     0.00000477   -0.00000032   -0.00000477
     atom   10 type  1   force =     0.00000477   -0.00000477   -0.00000032
     atom   11 type  1   force =     0.00000000    0.00000000    0.00000000
     atom   12 type  1   force =    -0.00000419   -0.00000059   -0.00000419
     atom   13 type  1   force =    -0.00000394    0.00000340   -0.00000394
     atom   14 type  1   force =    -0.00000322   -0.00000322   -0.00000372
     atom   15 type  1   force =     0.00000000    0.00000000    0.00000000
     atom   16 type  1   force =     0.00000322    0.00000322   -0.00000372
     atom   17 type  1   force =     0.00000394   -0.00000340   -0.00000394
     atom   18 type  1   force =     0.00000419    0.00000059   -0.00000419
     atom   19 type  1   force =    -0.00000032    0.00000477   -0.00000477
     atom   20 type  1   force =    -0.00000477    0.00000477   -0.00000032
     atom   21 type  1   force =    -0.00000340    0.00000394   -0.00000394
     atom   22 type  1   force =     0.00000059    0.00000419   -0.00000419
     atom   23 type  1   force =     0.00000477    0.00000477    0.00000032
     atom   24 type  1   force =     0.00000298    0.00000298   -0.00000298
     atom   25 type  1   force =     0.00000000    0.00000000    0.00000000
     atom   26 type  1   force =    -0.00000419   -0.00000419   -0.00000059
     atom   27 type  1   force =    -0.00000394   -0.00000394    0.00000340
     atom   28 type  1   force =    -0.00000322   -0.00000372   -0.00000322
     atom   29 type  1   force =     0.00000000    0.00000000    0.00000000
     atom   30 type  1   force =     0.00000322   -0.00000372    0.00000322
     atom   31 type  1   force =     0.00000394   -0.00000394   -0.00000340
     atom   32 type  1   force =     0.00000419   -0.00000419    0.00000059
     atom   33 type  1   force =    -0.00000372   -0.00000322   -0.00000322
     atom   34 type  1   force =     0.00000000    0.00000000    0.00000000
     atom   35 type  1   force =    -0.00000372    0.00000322    0.00000322
     atom   36 type  1   force =     0.00000220   -0.00000220   -0.00000220
     atom   37 type  1   force =    -0.00000220    0.00000220   -0.00000220
     atom   38 type  1   force =    -0.00000220   -0.00000220    0.00000220
     atom   39 type  1   force =     0.00000000    0.00000000    0.00000000
     atom   40 type  1   force =     0.00000220    0.00000220    0.00000220
     atom   41 type  1   force =     0.00000372    0.00000322   -0.00000322
     atom   42 type  1   force =     0.00000372   -0.00000322    0.00000322
     atom   43 type  1   force =    -0.00000394    0.00000394   -0.00000340
     atom   44 type  1   force =    -0.00000419    0.00000419    0.00000059
     atom   45 type  1   force =     0.00000322    0.00000372   -0.00000322
     atom   46 type  1   force =    -0.00000322    0.00000372    0.00000322
     atom   47 type  1   force =     0.00000419    0.00000419   -0.00000059
     atom   48 type  1   force =     0.00000394    0.00000394    0.00000340
     atom   49 type  1   force =    -0.00000032   -0.00000477    0.00000477
     atom   50 type  1   force =    -0.00000477   -0.00000032    0.00000477
     atom   51 type  1   force =    -0.00000340   -0.00000394    0.00000394
     atom   52 type  1   force =     0.00000059   -0.00000419    0.00000419
     atom   53 type  1   force =     0.00000477    0.00000032    0.00000477
     atom   54 type  1   force =     0.00000298   -0.00000298    0.00000298
     atom   55 type  1   force =    -0.00000394   -0.00000340    0.00000394
     atom   56 type  1   force =    -0.00000419    0.00000059    0.00000419
     atom   57 type  1   force =     0.00000322   -0.00000322    0.00000372
     atom   58 type  1   force =    -0.00000322    0.00000322    0.00000372
     atom   59 type  1   force =     0.00000419   -0.00000059    0.00000419
     atom   60 type  1   force =     0.00000394    0.00000340    0.00000394
     atom   61 type  1   force =     0.00000032    0.00000477    0.00000477
     atom   62 type  1   force =    -0.00000298    0.00000298    0.00000298
     atom   63 type  1   force =    -0.00000059    0.00000419    0.00000419
     atom   64 type  1   force =     0.00000340    0.00000394    0.00000394

[...]
        40           Si  tau(  40) = (   0.6301357   0.6301357   0.6301357  )
        41           Si  tau(  41) = (   0.8821900   0.6301355   0.3780826  )
        42           Si  tau(  42) = (   0.8821900   0.3780826   0.6301355  )
        43           Si  tau(  43) = (   0.1260281   0.8821900   0.3780826  )
        44           Si  tau(  44) = (   0.2520556   0.7561626   0.5041090  )
        45           Si  tau(  45) = (   0.6301355   0.8821900   0.3780826  )
        46           Si  tau(  46) = (   0.3780826   0.8821900   0.6301355  )
        47           Si  tau(  47) = (   0.7561626   0.7561626   0.5041092  )
        48           Si  tau(  48) = (   0.8821900   0.8821900   0.6301355  )
        49           Si  tau(  49) = (   0.0000000   0.2520557   0.7561625  )
        50           Si  tau(  50) = (   0.2520557   0.0000000   0.7561625  )
        51           Si  tau(  51) = (   0.3780826   0.1260281   0.8821900  )
        52           Si  tau(  52) = (   0.5041090   0.2520556   0.7561626  )
        53           Si  tau(  53) = (   0.7561625  -0.0000000   0.7561625  )
        54           Si  tau(  54) = (   0.8821902   0.1260280   0.8821902  )
        55           Si  tau(  55) = (   0.1260281   0.3780826   0.8821900  )
        56           Si  tau(  56) = (   0.2520556   0.5041090   0.7561626  )
        57           Si  tau(  57) = (   0.6301355   0.3780826   0.8821900  )
        58           Si  tau(  58) = (   0.3780826   0.6301355   0.8821900  )
        59           Si  tau(  59) = (   0.7561626   0.5041092   0.7561626  )
        60           Si  tau(  60) = (   0.8821900   0.6301355   0.8821900  )
        61           Si  tau(  61) = (  -0.0000000   0.7561625   0.7561625  )
        62           Si  tau(  62) = (   0.1260280   0.8821902   0.8821902  )
        63           Si  tau(  63) = (   0.5041092   0.7561626   0.7561626  )
        64           Si  tau(  64) = (   0.6301355   0.8821900   0.8821900  )

     number of k points=     4
                       cart. coord. in units 2pi/alat
        k(    1) = (   0.0000000   0.0000000   0.0000000), wk =   0.0740741
        k(    2) = (   0.0000000   0.0000000   0.3306163), wk =   0.4444444
        k(    3) = (   0.0000000   0.3306163   0.3306163), wk =   0.8888889
        k(    4) = (   0.3306163   0.3306163   0.3306163), wk =   0.5925926

     Dense  grid:   196757 G-vectors     FFT dimensions: (  75,  75,  75)

     Estimated max dynamical RAM per process >     188.74 MB

     Estimated total dynamical RAM >     754.95 MB

     Initial potential from superposition of free atoms

     starting charge     255.9608, renormalised to     256.0000
     Starting wfcs are  256 randomized atomic wfcs

     total cpu time spent up to now is       31.4 secs

     Self-consistent Calculation

     iteration #  1     ecut=    30.00 Ry     beta= 0.50
     Davidson diagonalization with overlap
     ethr =  1.00E-06,  avg # of iterations = 10.3

     total cpu time spent up to now is       32.9 secs

     total energy              =    -504.47714900 Ry
     estimated scf accuracy    <       1.74034941 Ry

     iteration #  2     ecut=    30.00 Ry     beta= 0.50
     Davidson diagonalization with overlap
     ethr =  6.80E-04,  avg # of iterations =  1.0

     total cpu time spent up to now is       33.4 secs

     total energy              =    -504.46036341 Ry
     estimated scf accuracy    <       0.31062046 Ry

     iteration #  3     ecut=    30.00 Ry     beta= 0.50
     Davidson diagonalization with overlap
     ethr =  1.21E-04,  avg # of iterations =  1.5

     total cpu time spent up to now is       33.8 secs

     total energy              =    -504.47964931 Ry
     estimated scf accuracy    <       0.00481069 Ry

     iteration #  4     ecut=    30.00 Ry     beta= 0.50
     Davidson diagonalization with overlap
     ethr =  1.88E-06,  avg # of iterations =  4.5

     total cpu time spent up to now is       34.5 secs

     total energy              =    -504.48264185 Ry
     estimated scf accuracy    <       0.00009421 Ry

     iteration #  5     ecut=    30.00 Ry     beta= 0.50
     Davidson diagonalization with overlap
     ethr =  3.68E-08,  avg # of iterations =  5.8

     total cpu time spent up to now is       35.4 secs

     total energy              =    -504.48281072 Ry
     estimated scf accuracy    <       0.00001429 Ry

     iteration #  6     ecut=    30.00 Ry     beta= 0.50
     Davidson diagonalization with overlap
     ethr =  5.58E-09,  avg # of iterations =  3.5

     total cpu time spent up to now is       36.1 secs

     total energy              =    -504.48281071 Ry
     estimated scf accuracy    <       0.00002683 Ry

     iteration #  7     ecut=    30.00 Ry     beta= 0.50
     Davidson diagonalization with overlap
     ethr =  5.58E-09,  avg # of iterations =  1.0

     total cpu time spent up to now is       36.5 secs

     total energy              =    -504.48280890 Ry
     estimated scf accuracy    <       0.00000640 Ry

     iteration #  8     ecut=    30.00 Ry     beta= 0.50
     Davidson diagonalization with overlap
     ethr =  2.50E-09,  avg # of iterations =  2.0

     total cpu time spent up to now is       37.0 secs

     total energy              =    -504.48280931 Ry
     estimated scf accuracy    <       0.00000022 Ry

     iteration #  9     ecut=    30.00 Ry     beta= 0.50
     Davidson diagonalization with overlap
     ethr =  8.41E-11,  avg # of iterations =  6.5

     total cpu time spent up to now is       37.8 secs

     total energy              =    -504.48280940 Ry
     estimated scf accuracy    <       0.00000001 Ry

     iteration # 10     ecut=    30.00 Ry     beta= 0.50
     Davidson diagonalization with overlap
     ethr =  4.81E-12,  avg # of iterations =  5.0

     total cpu time spent up to now is       38.5 secs

     End of self-consistent calculation

          k = 0.0000 0.0000 0.0000 ( 24573 PWs)   bands (ev):

    -5.8229  -4.7641  -4.7641  -4.7641  -4.7641  -4.7641  -4.7641  -3.8264
    -3.8264  -3.8264  -3.8264  -3.8264  -3.8264  -3.8264  -3.8264  -3.8264
    -3.8264  -3.8264  -3.8264  -3.5545  -3.5545  -3.5545  -3.5545  -1.7689
    -1.7689  -1.7689  -1.7689  -1.7689  -1.7689  -1.6161  -1.6161  -1.6161
    -1.6161  -1.6161  -1.6161  -1.6161  -1.6161  -1.6161  -1.6161  -1.6161
    -1.6161  -0.8835  -0.8835  -0.8835  -0.8835   0.5334   0.5334   0.5334
     0.5334   0.5334   0.5334   0.5334   0.5334   0.5334   0.5334   0.5334
     0.5334   2.2269   2.2269   2.2269   2.2269   2.2269   2.2269   2.2269
     2.2269   2.2269   2.2269   2.2269   2.2269   2.3168   2.3168   2.3168
     2.3168   2.3168   2.3168   2.3168   2.3168   2.3168   2.3168   2.3168
     2.3168   2.4457   2.4457   2.4457   2.4457   2.4457   2.4457   3.1902
     3.1902   3.1902   3.1902   3.1902   3.1902   4.1327   4.1327   4.1327
     4.1327   4.1327   4.1327   4.1327   4.1327   4.1327   4.1327   4.1327
     4.1327   4.6769   4.6769   4.6769   4.6769   4.6769   4.6769   4.6769
     4.6769   4.6769   4.6769   4.6769   4.6769   4.7999   4.7999   4.7999
     4.7999   4.7999   4.7999   4.7999   4.7999   5.9747   5.9747   5.9747

          k = 0.0000 0.0000 0.3306 ( 24548 PWs)   bands (ev):

    -5.7039  -5.3491  -4.6563  -4.6563  -4.6563  -4.6563  -4.3381  -4.3381
    -4.3381  -4.3380  -3.9596  -3.7673  -3.7673  -3.7673  -3.7673  -3.6328
    -3.6328  -3.6328  -3.6328  -3.1566  -3.1566  -3.1566  -3.1566  -2.9527
    -2.3910  -2.3910  -2.3910  -2.3910  -1.7331  -1.7331  -1.7331  -1.7331
    -1.6569  -1.6569  -1.6569  -1.6569  -0.8918  -0.8918  -0.8918  -0.8918
    -0.6141  -0.6141  -0.6141  -0.6141  -0.4435  -0.1952  -0.1952  -0.1952
    -0.1952   0.0390   0.0390   0.0390   0.0390   0.9778   1.3117   1.3117
     1.3117   1.3117   1.8779   1.8779   1.8779   1.8779   1.9309   1.9309
     1.9309   1.9309   2.0596   2.0596   2.0596   2.0596   2.4272   2.4272
     2.4272   2.4272   2.8955   2.8955   2.8955   2.8955   2.9543   2.9543
     2.9543   2.9543   2.9784   2.9784   2.9784   2.9784   2.9889   2.9889
     2.9889   2.9889   3.2976   3.2976   3.6160   3.6160   3.7045   3.7045
     3.7045   3.7045   3.9081   3.9496   3.9496   3.9496   3.9496   4.1296
     4.1296   4.1296   4.1296   4.3845   4.3845   4.3845   4.3845   4.7059
     4.7059   4.7059   4.7059   4.7302   4.7302   4.7302   4.7302   4.7675
     4.7675   4.7675   4.7675   4.8139   4.8139   5.2571   5.5581   5.5581

          k = 0.0000 0.3306 0.3306 ( 24554 PWs)   bands (ev):

    -5.5861  -5.2346  -5.2346  -4.8943  -4.5521  -4.5521  -4.2469  -4.2469
    -4.2469  -4.2469  -3.9902  -3.9902  -3.8638  -3.8638  -3.5856  -3.5855
    -3.3174  -3.3174  -3.1783  -3.1783  -3.1783  -3.1783  -2.8781  -2.8781
    -2.6721  -2.6721  -2.6392  -2.6301  -2.6301  -2.1206  -2.1206  -1.9137
    -1.5101  -1.2175  -1.2175  -0.8030  -0.8030  -0.7840  -0.7840  -0.7381
    -0.6230  -0.6230  -0.4951  -0.4951  -0.4951  -0.4951  -0.4806  -0.4806
    -0.0386  -0.0386   0.3636   0.3636   0.7599   0.7599   0.7599   0.7599
     0.8078   0.8078   1.5690   1.5690   1.6788   1.8391   1.8391   2.0615
     2.0615   2.2313   2.2727   2.3038   2.3038   2.4636   2.4636   2.4636
     2.4636   2.4955   2.4955   2.9104   2.9104   2.9292   2.9292   3.1227
     3.1227   3.2062   3.2062   3.2468   3.2468   3.2713   3.2713   3.2873
     3.2873   3.3787   3.4201   3.4201   3.5867   3.5867   3.5867   3.5867
     3.6240   3.6240   3.6246   3.7390   3.7390   3.9128   4.0166   4.0166
     4.0519   4.0519   4.0519   4.0519   4.2721   4.2721   4.3664   4.3664
     4.3791   4.3846   4.3846   4.4210   4.4210   4.5998   4.5998   4.6936
     4.6936   4.6936   4.6936   5.1366   5.2793   5.2793   5.4196   5.8579

          k = 0.3306 0.3306 0.3306 ( 24639 PWs)   bands (ev):

    -5.4695  -5.1221  -5.1221  -5.1221  -4.7884  -4.7884  -4.7884  -4.4780
    -3.7757  -3.7757  -3.7756  -3.5273  -3.5273  -3.5273  -3.5273  -3.5273
    -3.5273  -3.3947  -3.3947  -3.3947  -2.8579  -2.8579  -2.8579  -2.8241
    -2.8241  -2.8241  -2.7014  -2.7014  -2.7014  -2.7014  -2.7014  -2.7014
    -0.7466  -0.7466  -0.7466  -0.7044  -0.7044  -0.7044  -0.7044  -0.7044
    -0.7044  -0.5441  -0.5441  -0.5441  -0.5428  -0.5428  -0.5428   0.0074
     0.0074   0.0074   0.0074   0.0074   0.0074   0.5520   0.5520   0.5520
     0.7090   1.6181   1.6181   1.6181   2.1250   2.1250   2.1250   2.1250
     2.1250   2.1250   2.1671   2.1671   2.1671   2.4373   2.4373   2.4373
     2.5710   2.5710   2.5710   2.8187   2.8187   2.8187   2.8187   2.8187
     2.8187   3.0569   3.0569   3.0569   3.2470   3.2470   3.2470   3.4209
     3.4209   3.4209   3.4209   3.4209   3.4209   3.4817   3.4817   3.4817
     3.6080   3.7855   3.7855   3.7855   3.9020   3.9020   3.9020   3.9020
     3.9020   3.9020   3.9976   3.9976   3.9976   4.2400   4.2400   4.2400
     4.3191   4.3191   4.3191   4.8957   4.8957   4.8957   4.9954   4.9954
     5.0584   5.0584   5.0584   5.3044   5.3044   5.3044   5.5355   5.5355

     highest occupied level (ev):     5.9747

!    total energy              =    -504.48280940 Ry
     estimated scf accuracy    <          1.9E-09 Ry

     The total energy is the sum of the following terms:
     one-electron contribution =     146.00043827 Ry
     hartree contribution      =      35.88565007 Ry
     xc contribution           =    -153.25323027 Ry
     ewald contribution        =    -533.11566747 Ry

     convergence has been achieved in  10 iterations

     Forces acting on atoms (cartesian axes, Ry/au):

     atom    1 type  1   force =     0.00000000    0.00000000    0.00000000
     atom    2 type  1   force =     0.00000003   -0.00000101   -0.00000101
     atom    3 type  1   force =    -0.00000101    0.00000003   -0.00000101
     atom    4 type  1   force =    -0.00000101   -0.00000101    0.00000003
     atom    5 type  1   force =    -0.00000381   -0.00000381   -0.00000381
     atom    6 type  1   force =     0.00000000    0.00000000    0.00000000
     atom    7 type  1   force =    -0.00000030    0.00000014    0.00000014
     atom    8 type  1   force =     0.00000423   -0.00000434   -0.00000434
     atom    9 type  1   force =     0.00000101   -0.00000003   -0.00000101
     atom   10 type  1   force =     0.00000101   -0.00000101   -0.00000003
     atom   11 type  1   force =     0.00000000    0.00000000    0.00000000
     atom   12 type  1   force =     0.00000014   -0.00000030    0.00000014
     atom   13 type  1   force =    -0.00000434    0.00000423   -0.00000434
     atom   14 type  1   force =    -0.00000376   -0.00000376   -0.00000422
     atom   15 type  1   force =     0.00000000    0.00000000    0.00000000
     atom   16 type  1   force =     0.00000376    0.00000376   -0.00000422
     atom   17 type  1   force =     0.00000434   -0.00000423   -0.00000434
     atom   18 type  1   force =    -0.00000014    0.00000030    0.00000014
     atom   19 type  1   force =    -0.00000003    0.00000101   -0.00000101
     atom   20 type  1   force =    -0.00000101    0.00000101   -0.00000003
     atom   21 type  1   force =    -0.00000423    0.00000434   -0.00000434
     atom   22 type  1   force =     0.00000030   -0.00000014    0.00000014
     atom   23 type  1   force =     0.00000101    0.00000101    0.00000003
     atom   24 type  1   force =     0.00000381    0.00000381   -0.00000381
     atom   25 type  1   force =     0.00000000    0.00000000    0.00000000
     atom   26 type  1   force =     0.00000014    0.00000014   -0.00000030
     atom   27 type  1   force =    -0.00000434   -0.00000434    0.00000423
     atom   28 type  1   force =    -0.00000376   -0.00000422   -0.00000376
     atom   29 type  1   force =     0.00000000    0.00000000    0.00000000
     atom   30 type  1   force =     0.00000376   -0.00000422    0.00000376
     atom   31 type  1   force =     0.00000434   -0.00000434   -0.00000423
     atom   32 type  1   force =    -0.00000014    0.00000014    0.00000030
     atom   33 type  1   force =    -0.00000422   -0.00000376   -0.00000376
     atom   34 type  1   force =     0.00000000    0.00000000    0.00000000
     atom   35 type  1   force =    -0.00000422    0.00000376    0.00000376
     atom   36 type  1   force =    -0.00000039    0.00000039    0.00000039
     atom   37 type  1   force =     0.00000039   -0.00000039    0.00000039
     atom   38 type  1   force =     0.00000039    0.00000039   -0.00000039
     atom   39 type  1   force =     0.00000000    0.00000000    0.00000000
     atom   40 type  1   force =    -0.00000039   -0.00000039   -0.00000039
     atom   41 type  1   force =     0.00000422    0.00000376   -0.00000376
     atom   42 type  1   force =     0.00000422   -0.00000376    0.00000376
     atom   43 type  1   force =    -0.00000434    0.00000434   -0.00000423
     atom   44 type  1   force =     0.00000014   -0.00000014    0.00000030
     atom   45 type  1   force =     0.00000376    0.00000422   -0.00000376
     atom   46 type  1   force =    -0.00000376    0.00000422    0.00000376
     atom   47 type  1   force =    -0.00000014   -0.00000014   -0.00000030
     atom   48 type  1   force =     0.00000434    0.00000434    0.00000423
     atom   49 type  1   force =    -0.00000003   -0.00000101    0.00000101
     atom   50 type  1   force =    -0.00000101   -0.00000003    0.00000101
     atom   51 type  1   force =    -0.00000423   -0.00000434    0.00000434
     atom   52 type  1   force =     0.00000030    0.00000014   -0.00000014
     atom   53 type  1   force =     0.00000101    0.00000003    0.00000101
     atom   54 type  1   force =     0.00000381   -0.00000381    0.00000381
     atom   55 type  1   force =    -0.00000434   -0.00000423    0.00000434
     atom   56 type  1   force =     0.00000014    0.00000030   -0.00000014
     atom   57 type  1   force =     0.00000376   -0.00000376    0.00000422
     atom   58 type  1   force =    -0.00000376    0.00000376    0.00000422
     atom   59 type  1   force =    -0.00000014   -0.00000030   -0.00000014
     atom   60 type  1   force =     0.00000434    0.00000423    0.00000434
     atom   61 type  1   force =     0.00000003    0.00000101    0.00000101
     atom   62 type  1   force =    -0.00000381    0.00000381    0.00000381
     atom   63 type  1   force =    -0.00000030   -0.00000014   -0.00000014
     atom   64 type  1   force =     0.00000423    0.00000434    0.00000434

     Total force =     0.000038     Total SCF correction =     0.000063
     SCF correction compared to forces is large: reduce conv_thr to get better values


     Computing stress (Cartesian axis) and pressure

          total   stress  (Ry/bohr**3)                   (kbar)     P=       -0.02
  -0.00000015   0.00000000   0.00000000           -0.02        0.00        0.00
   0.00000000  -0.00000015   0.00000000            0.00       -0.02        0.00
   0.00000000   0.00000000  -0.00000015            0.00        0.00       -0.02


     Writing all to output data dir ./pwscf.save/
 
     init_run     :      2.69s CPU      6.54s WALL (       2 calls)
     electrons    :     22.26s CPU     24.07s WALL (       5 calls)
     update_pot   :      2.23s CPU      2.24s WALL (       3 calls)
     forces       :      0.55s CPU      0.59s WALL (       5 calls)
     stress       :      6.10s CPU      6.16s WALL (       5 calls)

     Called by init_run:
     wfcinit      :      1.15s CPU      4.78s WALL (       2 calls)
                                        4.78s GPU  (       2 calls)
     potinit      :      0.63s CPU      0.76s WALL (       2 calls)
     hinit0       :      0.82s CPU      0.84s WALL (       2 calls)

     Called by electrons:
     c_bands      :     18.57s CPU     20.06s WALL (      44 calls)
     sum_band     :      3.14s CPU      3.39s WALL (      44 calls)
     v_of_rho     :      0.25s CPU      0.38s WALL (      47 calls)
     mix_rho      :      0.27s CPU      0.30s WALL (      44 calls)

     Called by c_bands:
     init_us_2    :      0.85s CPU      0.91s WALL (     400 calls)
     init_us_2:gp :      0.84s CPU      0.90s WALL (     400 calls)
     cegterg      :     15.61s CPU     16.89s WALL (     176 calls)

     Called by *egterg:
     cdiaghg      :      3.05s CPU      3.94s WALL (     706 calls)
                                        3.89s GPU  (     706 calls)
     h_psi        :     10.99s CPU     14.64s WALL (     734 calls)
                                       14.61s GPU  (     734 calls)
     g_psi        :      0.00s CPU      0.05s WALL (     550 calls)
                                        0.03s GPU  (     550 calls)

     Called by h_psi:
     h_psi:calbec :      1.59s CPU      4.52s WALL (     734 calls)
                                        4.51s GPU  (     734 calls)
     vloc_psi     :      8.55s CPU      9.27s WALL (     734 calls)
                                        9.21s GPU  (     734 calls)
     add_vuspsi   :      0.66s CPU      0.82s WALL (     734 calls)
                                        0.82s GPU  (     734 calls)

     General routines
     calbec       :      1.80s CPU      4.74s WALL (     834 calls)
     fft          :      0.82s CPU      0.99s WALL (     510 calls)
                                        0.19s GPU  (     367 calls)
     ffts         :      0.06s CPU      0.06s WALL (      44 calls)
     fftw         :      8.99s CPU     10.71s WALL (   10238 calls)
                                        9.60s GPU  (   10238 calls)
 
     Parallel routines
 
     PWSCF        :     34.06s CPU     40.03s WALL

 
   This run was terminated on:  12:11:38  16May2023            

=------------------------------------------------------------------------------=
   JOB DONE.
=------------------------------------------------------------------------------=
Warning: ieee_inexact is signaling
Warning: ieee_divide_by_zero is signaling
Warning: ieee_inexact is signaling
FORTRAN STOP
Warning: ieee_inexact is signaling
FORTRAN STOP
Warning: ieee_inexact is signaling
FORTRAN STOP
FORTRAN STOP
