64
Lattice="10.647444431688351 0.0 0.0 0.0 10.647444431688351 0.0 0.0 0.0 10.647444431688351" Properties=species:S:1:pos:R:3:forces:R:3 energy=-6823.147057556072 stress="0.012031537389573615 0.00021852151241746952 0.003944405114896844 0.00021852151241746952 0.01587769963964412 0.002357828755832192 0.003944405114896844 0.002357828755832192 0.020911039686167514" free_energy=-6823.147057556072 pbc="T T T"
Si       2.43464464       9.98072276       3.94807240      -0.00266649      -0.08379379      -0.75227573
Si       7.20505111       1.16238151       5.87382243      -0.03398278       0.42959303       0.12793424
Si       7.12589801       9.20722851       3.79300301      -0.15325086       0.08624406      -0.39222076
Si       3.95902862       1.06044607      10.38559183      -0.29036291       0.22137430       0.54210579
Si       0.38314403       6.83714997       8.99513142      -0.03630989      -0.05347689       0.00379315
Si       5.67997506       2.84726506       3.17876259       1.30378250       1.41728077       0.00495092
Si       5.10033883       6.09037016       4.12668328       0.73215274      -1.13373257      -0.42168560
Si       3.62410260       9.37886531       8.21367288      -1.20552060      -0.37111843       0.06174247
Si       6.60051051       3.63789104       1.04691636      -0.00992292      -0.53461694       0.05163392
Si       9.13614617       6.73872499       2.72666145       0.03997525      -0.25828300      -0.84463027
Si       8.09976652       1.78193501       0.35690234      -1.76890638      -1.18746168       1.29839347
Si       8.93615522      10.58512494       4.52679294       0.05701730       0.33806356      -0.23870842
Si       4.25985086       2.89633913       5.35618627       1.12088502      -1.29099666       0.14912501
Si       0.19488337       8.70322108       2.89212274       0.06814683       0.13629161      -0.58767911
Si       2.98958945       3.35121925       0.13535138      -0.55161013      -0.52669614       0.66795358
Si       7.25439137       6.72413799       5.60865848       0.28641344       0.83850513      -1.58700854
Si       4.78618598       6.18616521       9.54360257      -1.58827378      -1.42629968      -1.33844431
Si      10.33158799       3.08201991       3.37823182      -0.63383195      -0.91865645       0.79972236
Si       7.14334917       5.99649164       7.67704168      -0.61580235      -1.49521270       1.68587440
Si       7.98908633       5.42431927       0.42329128       0.83493156       0.48651262       0.54906242
Si       6.70632482       7.13439467       2.59958421       0.14072882       0.17823170      -0.33211171
Si       0.90693228       3.77342236       6.85543163       0.95256261      -0.16047026       0.16037565
Si      10.35643913       4.57070300       1.57787673      -0.15833316       1.53280197      -0.21408239
Si       6.25782252       7.58252431      10.30036969       1.41046194       1.91259633       0.74255902
Si       4.61056704       5.53151774       7.07524812       0.95458478      -0.86123497       1.63568158
Si       8.87178077       3.73755112       5.62664201       0.43287607       0.08910775       0.13785304
Si       1.26671582      10.56568271       0.21326405      -0.22797098       0.55405679       0.15057177
Si       8.48414991       0.53789186       8.14509269       0.41125129      -1.21571528      -0.19135384
Si       1.32573460       5.74588274       5.06674614       0.19056271      -0.93522978       0.47983213
Si       1.96446415       5.97897659       2.16290057      -0.37353372      -0.06183889       0.18786048
Si       4.78110715       8.58962349       1.66340765       0.65133654       0.46371954      -0.88504801
Si       1.05638939       4.55146307       9.36961268      -0.03264735      -0.55409844       0.01982038
Si       8.53495951       7.18382011       9.26286141       0.04469914       0.32068264      -0.12783011
Si       8.09018382       1.93822884       3.14805536       0.23006462      -0.43801853      -0.03744478
Si       5.96303737       2.69680602       7.87740529      -0.24469472       0.57002694       0.08306463
Si       2.44989178       3.55236012       4.14623198      -0.89129374       1.17084078      -0.43958922
Si       2.36250821       1.80910728       2.55239473       0.09040513      -0.36582504      -0.75974042
Si       3.36169634       3.30546718       7.45568131      -0.02640240      -0.05023344       0.21217977
Si       1.65523042       7.81325444       7.09890674       0.43089863       0.46423736      -0.62586564
Si       0.14621816       0.68762580       2.56346807       0.32473419      -0.31980230      -0.22453033
Si       3.11004399       8.97963938      10.50969844      -0.10087826      -0.00027177       0.35748516
Si       6.18076696       0.98131426       9.38245350      -0.00713044      -0.78889852       0.66379482
Si       2.66387347       6.51390420      10.64087496      -0.27555772       0.53620305      -0.36509511
Si       6.88983352      10.35514014       1.49040798      -0.32547492       0.07309929       0.15177042
Si       5.02485910       3.93515705       9.89609687       0.76991478      -0.53838386      -0.55605042
Si       4.70274196       0.96309010       2.34681387      -0.32306580      -1.34784632      -0.89089573
Si       8.83378004       9.68494740      10.14920792      -0.41391984      -0.20526582      -0.07146690
Si       0.19698411       1.07405031       8.80526619       0.29752137       0.75017951       0.19874705
Si       8.14676434       3.72016385       8.08819275      -0.04256230       0.78177066      -0.32600842
Si       9.60073676       6.11407137       4.89402330      -0.33828853      -0.39034077       0.24237558
Si       4.50631791       0.34735158       4.85545826       0.14016549       1.05316474      -0.38249119
Si       5.90850116       9.39667849       8.21266137       1.01058701      -0.02233234       0.36952537
Si       4.02136940       7.37597454       5.90621196      -0.84178175       0.93242393      -0.81171861
Si      10.17002367       8.53765332       5.59180357       0.81491500       0.18022996      -0.43173579
Si       5.67625910       9.06758727       5.75087639       0.47216741       0.40835854      -0.00613954
Si       8.38986679       8.74870696       7.06740095      -0.79716539       0.33031708       1.03726940
Si       1.48026096      10.28749693       5.98152133      -0.13174873      -0.96414029       1.30537376
Si       6.62073001       4.16545062       5.11892927      -1.69546024       0.42038308      -0.64497306
Si      10.59804029       1.38079254       5.93731314      -0.50018704       0.80682117       0.21233790
Si       9.57649253       3.26203626      10.21539243       1.31813311       1.12967202      -1.75402355
Si       3.23730224       7.79420616       3.34091252      -0.09529305      -0.09524317       0.46282582
Si       0.16658246       8.49064485       0.11268084       0.05376640      -0.00934776       0.98194749
Si       2.74054572       0.91921730       8.12710916      -0.76796075       0.39694825       0.05337250
Si       3.84434499       4.55089876       2.18724062      -0.08385036      -0.40485696       0.45193232
64
Lattice="10.644134957427307 0.0 0.0 0.0 10.644134957427307 0.0 0.0 0.0 10.644134957427307" Properties=species:S:1:pos:R:3:forces:R:3 energy=-6824.050950883285 stress="0.01798028057845086 -0.00022586677333906514 0.00792186390394087 -0.00022586677333906514 0.011749663001707385 0.002973912515631024 0.00792186390394087 0.002973912515631024 0.023795890913124187" free_energy=-6824.050950883285 pbc="T T T"
Si       6.56782510      10.56846580       4.46301128       0.82896171       1.52893246       0.14452582
Si      10.33723261       0.27134987       6.13902612       0.41082578       0.33640622      -0.29821351
Si       6.00380303       8.41260271       4.72764576       0.15219671      -1.84704606      -0.27406726
Si       6.65944982       4.41135529       1.68288031       0.15321872       0.21722608      -0.62303152
Si       0.54113186       6.33569781       8.37369839      -0.41755692      -0.49369269      -0.48252896
Si       9.72208677       6.43906300       6.15859005       2.16852420      -1.73816627       0.18767690
Si       4.40645899       3.75435671       1.46675115      -0.05015477      -0.76479495      -0.05657892
Si       8.14945840       7.94800751       6.09887645      -2.24976386       2.00786985      -0.32593412
Si       5.68418095       5.32414309       8.55376523       0.25742193       0.40609417       0.21489743
Si       9.07844657       6.45049480       1.10938497      -0.04740883       0.42941588       0.42174037
Si       7.69933922       7.13099564       9.74175713      -0.80331084      -0.88999507       0.05744487
Si       0.69773582       2.13278661       4.58267264       0.67390799       0.15684321       0.73317886
Si       8.73882416       0.13500914       8.37462443       0.24457542       0.10333572      -0.58777989
Si       1.77080087       9.93753470       3.44181297      -1.74398827       0.10975217       1.05567130
Si       4.57012321       7.38975456       2.89410836       1.02699836      -0.47205428       0.39949338
Si       2.85255366       4.65551046       7.14109692      -1.29008546       1.32483212       0.32215383
Si       7.89456330       8.52785740       2.22727460       0.30474874       0.46948987      -0.04485032
Si       2.36341308       8.49561632       7.20529170       0.37444724      -1.13791344       0.55607536
Si       3.40939094       1.86760928       4.81334169       0.04339277       0.18533206      -0.63628838
Si       7.59899696       1.86787538       2.11131739      -0.17126864       0.54132957       0.17286015
Si       5.20102238       1.42039595       2.87519373      -0.56840843      -0.01595987       0.03109569
Si       8.92303156       5.26622835       8.75648278      -0.06204355      -0.52800509      -0.01265626
Si       4.80704036       0.57759973       6.20966060       0.30386531      -1.04746049       0.03362617
Si       5.77398552       6.83193802       0.79120197      -0.20601324      -0.65717602       0.23007337
Si       0.31055541       0.56227749       9.12243878       0.11271639      -0.53963959      -0.29016879
Si      10.17432413       0.38233307       2.56175589       0.57752993      -0.46620657       0.83131376
Si       1.84235074       9.36609367       9.38968108      -0.31123255      -0.30242472       0.41015086
Si       9.03298547       2.36099686       4.16059012      -0.98804975       0.26535687      -0.00907651
Si       0.53383849       3.48375086       6.92702208       0.97310058      -0.78076895       0.14687015
Si       1.39209319       6.66253661       1.35778714      -1.24953043      -0.45793790       1.08650989
Si       1.96158634       1.93541242       0.83437352      -0.71664230       0.85790282      -0.99930321
Si       7.88432365       1.29634920       6.36016867      -0.25421757       0.42523295      -0.51784460
Si       3.87804155       9.36336877       0.35354281      -0.28659341      -0.21422766       0.10917752
Si       5.76291562       2.21102100       7.64536282       0.44702999       0.55567581       0.53241247
Si       6.18242226      10.15251430       1.37358304       0.19547892       0.16192525      -0.25137470
Si       7.34298423       1.10931046       9.99830207      -0.65169520      -0.26220470       0.90764518
Si      10.31149510       7.42555078       3.56122952       0.04296930      -0.23712770       0.18547784
Si       9.18602684       9.58684239       4.44849268      -0.86702612      -0.62455618      -0.55420180
Si       2.33488680       7.71062201       3.38353633      -0.69750275      -0.34403777      -0.25690103
Si       0.07963410       7.83905414      10.17781540       0.30597156       0.55960035       0.50127410
Si       3.79195179       2.03404097       9.45645173      -0.54765577      -0.32741585      -0.80090481
Si       3.24659954       6.97603832       0.17043815       2.47967165       0.21872580      -1.41604355
Si       8.95442111       4.81955787       3.52364508      -0.11091405       0.08653510       0.05920454
Si       6.96000825       3.43422370       9.69054819      -0.13543903       0.63183806       0.22236983
Si       1.39224221       4.21178841       1.46026887      -0.27026254       0.54790980       0.24642970
Si       5.02204125      10.37086808       9.19233881       0.79463646       0.81405394      -0.44697651
Si       7.26249328       8.94836460       8.26984357      -0.26136138      -0.62834059      -1.00824936
Si       2.94626462       4.31769755       9.87557519       0.38336279       0.14453714       0.15692728
Si       3.62095376       6.75523639       8.34372451      -0.02281057      -0.99940528       0.23502608
Si       9.22414349       9.70767461       0.32071843       0.03264658      -0.19316749       0.33300568
Si       4.45396376       3.95462610       5.62212564       0.39811270      -0.42550857      -0.50448566
Si       0.71959781       4.84615756       4.15634311       0.40484102      -0.31255050      -0.24023514
Si       6.68171735       5.99074268       3.79606043       0.40114377       0.11519031       0.64548933
Si       6.48471570       5.18039404       6.28523396      -0.27070657      -0.05898805      -0.81268097
Si       8.64969017       4.23871807       6.52458863       0.47789969      -0.21342342      -0.04986063
Si       1.72372186       6.75253278       5.48565719      -0.55623657      -0.99750009       0.24657445
Si       2.00406709       1.40814455       7.74127712       0.08164307       0.83610681      -0.34235036
Si       5.01396235       8.78007018       6.84180514      -0.47867153       0.77592320       1.00721398
Si       3.56195332       4.75231887       3.41675668      -0.31248159       0.80303419       0.39056600
Si       9.31595980       3.85563565       0.70237240       0.17530090      -0.18241848      -0.60559970
Si       3.04449935       0.30227321       1.92598171       1.94378330      -0.06638794      -0.15569778
Si      10.14537208       1.47388272       0.48276793       0.28409867       0.74897186       0.42274515
Si       2.14651754      10.29733840       5.88685592      -0.37669567       1.41912425      -0.62231135
Si       0.54063584       3.84435287       9.39216116      -0.47929400       0.44199783      -0.01070119
64
Lattice="10.645446258549606 0.0 0.0 0.0 10.645446258549606 0.0 0.0 0.0 10.645446258549606" Properties=species:S:1:pos:R:3:forces:R:3 energy=-6823.842436443398 stress="0.02079626998426758 -0.0035137891933683016 0.005480482805125527 -0.0035137891933683016 0.011947985046590465 0.0014727248147799205 0.005480482805125527 0.0014727248147799205 0.011644074875959446" free_energy=-6823.842436443398 pbc="T T T"
Si       2.48984213       8.29381395       8.48169543      -1.02277404      -0.59188723       0.55674231
Si       3.84833947       0.07590203       6.65893954       0.36750500      -1.86433724       0.04696814
Si       8.92043686       5.58733699       4.24624496      -0.07395213      -0.35911472       0.78265589
Si       0.97145126       5.55349511       1.45732966       0.23510090       0.03826367       0.54664687
Si       8.81171491       1.81420760       5.63836061      -0.75386827       0.70000649      -1.38242612
Si      10.08280249       9.68805869       5.71055803      -0.57442096       1.03573086       0.01174351
Si       0.55750841       4.85246054       5.10984614       0.12528986      -0.24029170       0.15239391
Si       0.76694266       6.44291150       8.24572847      -0.62319375       1.79962103       0.51483873
Si       5.92653284       1.86393248       9.27654832       0.68029076      -0.34743651       0.54949771
Si       7.76229747       7.12708369       9.12716078       1.11912484      -0.32116369       0.35825109
Si       3.53043451       0.92703207       0.23282762       0.37330027       0.08373312      -0.19892548
Si       5.58341946       0.18533722       3.44869877      -0.41971536      -0.50837497       0.75311340
Si       6.73226538       8.30749335       0.23995688      -0.05443103       0.77518272       0.61575787
Si       1.41208651      10.60055441       9.09942939       0.22949153      -0.33653915      -0.65885521
Si       2.43189897       6.15043851       3.97882070       0.20047817      -0.61898203      -0.47834294
Si       0.16116248       2.83010253       3.61423546      -0.28543179      -0.02291907       0.44226522
Si       5.29944154       3.14518645       6.49353060       0.54192144       0.34736067      -0.23842045
Si       5.53446106       4.97414864       9.21959519       0.32866515       0.37951642      -1.50281674
Si      10.01621522       9.15820290       0.51088135      -0.67201360      -0.32809565      -0.30935410
Si       7.85504059       3.36751660       3.49270704      -0.35686269       0.47105181      -0.16212220
Si       8.26324023       8.93581953       2.85745068       0.77515238       0.54019109       0.16039930
Si       3.66390711       1.83477460       3.32514772       0.68906747       0.85564719      -0.74796193
Si       5.18506686       6.27690641       4.48081737      -0.48587396      -0.00086466       0.47387282
Si      10.12332970       7.11512885       2.78916015       0.38626660       0.40842411       0.40538095
Si       9.44990942       9.71230902       8.76041451      -0.25056403       0.37765032      -0.64856129
Si      10.08827425       0.46027077       3.67660713      -0.16308713       0.36395328       0.17690038
Si       9.86304854       3.34554440       8.41870633       0.57589600      -1.65212713       0.21409910
Si       5.96155636       7.15741256       7.61102568      -0.29076066      -1.19618878      -0.83239568
Si       2.11027875       1.51833871       6.99131167      -1.15363882       0.30680151       0.42134750
Si       7.09570091      10.53682012       8.07997887       0.42688154       1.25267720      -0.06828901
Si       1.91038920       0.25048096       3.31917563      -0.66065987      -1.19179939      -0.69285497
Si       1.19237514       4.32404188       7.54805786       0.43726649      -0.04836528      -1.01167587
Si       0.28873005       2.49283350      10.54403774       1.51191870      -1.46646854      -1.65050682
Si       1.09287216       0.14473975       0.76856928       0.52885252       0.94238464       0.81859888
Si       2.44003209       2.93474727       5.02953689      -0.47053476       0.18606996       0.39458797
Si       4.48421326       8.51196044       2.78966048      -0.21348692       1.34079765       0.73217716
Si       5.53404588       2.38195054       1.21442186      -0.49623782      -0.46329531      -0.55571052
Si       3.04624767       9.16226946       5.01591072      -0.33136275      -0.09123097      -0.43047286
Si      10.23090194       6.67652582      10.40660503      -0.97685619       0.41812694      -0.46126028
Si       5.82826473       0.88349007       5.79557256       0.57697149      -0.17134680      -0.42260863
Si       7.75556954       0.00951384       0.36343447       0.18411567      -0.82571749      -0.72653410
Si       3.39691932       4.43986433       2.33013915      -0.86453138      -0.88020405       2.33427422
Si       6.44224084       5.07993244       1.81896611       0.27207542      -0.32411892       0.44623527
Si       9.95903853       3.72345774       1.40192011       1.29103189      -0.30325622       3.16982156
Si       2.43235672       4.04277854      10.07905529      -0.46351694      -0.33162988      -0.25843829
Si      10.20579997       1.09534190       7.29135357       0.93194519      -0.90547877       0.94482796
Si       7.48365291       9.48474132       5.32444769       0.71897866       0.96511268      -0.44822324
Si       7.61160053       0.84793534       2.51394342       0.51202182       0.82732083       0.33518752
Si       4.25334547       5.28839157       0.47888221       0.10235536       1.44845205      -1.17137866
Si       9.41006351       7.73942040       7.14289218      -0.28259483      -0.24435533       0.46003875
Si       5.23662276       9.20493641       8.21974294      -0.91841142       0.79874405       0.12020242
Si       0.84148527       7.81635504       5.30680819       0.34424783      -0.17241484      -0.67159966
Si       6.55683907       7.33499990       2.56651064      -0.38006895      -0.29418434      -0.61562237
Si       7.70490787       3.64874800       9.23675565      -1.08870432       0.70787484       0.67916538
Si       3.66592975       6.82763793       6.88194035       0.55512303       1.18262312      -1.20250315
Si       7.32869780       7.23013161       5.47332426       0.14645775      -1.43975915       0.54969183
Si       8.48009862       5.04404664       0.55908819      -1.57970044       1.35424014      -1.89211287
Si       3.66386453       4.64835540       7.34701861       0.17549450      -1.18962964       0.84621896
Si       7.81952739       3.98779481       6.36447585      -0.26335347      -0.42928270      -0.31636422
Si       1.77716144       8.06819436       2.22584571       0.17136814       0.00857077      -0.27264904
Si       5.51169045       3.87645409       4.24934278       0.19517758       0.36839049      -0.55114296
Si       3.53173325       2.33340730       8.70806020       0.48209110      -0.50919104       0.86283471
Si       4.63663476       9.32384604      10.56017623      -0.25367481      -0.05808225       0.10026171
Si       3.00309103       7.55087890       0.04991969       0.23235676      -0.55638595       0.60313144
64
Lattice="10.687868278634477 0.0 0.0 0.0 10.687868278634477 0.0 0.0 0.0 10.687868278634477" Properties=species:S:1:pos:R:3:forces:R:3 energy=-6822.43609892697 stress="0.024441355716609405 0.004720248299740381 0.002705810491992784 0.004720248299740381 0.028972463547618697 -0.0006316924392572228 0.002705810491992784 -0.0006316924392572228 0.027448321906387605" free_energy=-6822.43609892697 pbc="T T T"
Si       2.80794882      10.51989774       6.93114671       0.45653510       0.03472043       0.06477766
Si      10.66127686       3.83381317       0.88480159      -1.73463717       0.79519387      -0.04883579
Si       5.92379374       0.83241928      10.47027397       0.57246409       0.55187778       0.15122715
Si       0.19621002       7.88943166       0.82388608      -0.11110302       0.64837282       0.16597422
Si       4.00695663      10.27687699       4.53615574      -0.03923966      -0.14079515      -0.06195407
Si       8.56261774       6.94075510       2.13613079       0.28624271      -0.11196100      -0.12340961
Si       7.71719667       4.52959339       3.05464619       0.02318595       0.20185037      -0.23665925
Si       0.03555640       9.87852945       9.83827894      -0.43806661       0.26488430      -0.73212188
Si       7.14363222       3.78890274       8.86685859      -0.12214797       0.35676859      -0.19183232
Si       8.94659009       4.97525612       7.44674016      -0.10371342       0.31323724       0.05741402
Si       5.22716918       2.38266785       8.20809046      -0.42125700       0.39728326       1.33645454
Si       0.06000490       3.15060187       8.78244581       0.10436673      -0.17012090      -0.42803057
Si       8.98063095       2.03840093       4.16383316       0.46130733       1.32185607       1.49635299
Si       0.23338884       6.51903319       3.88729526      -0.36700621       0.81207393       0.46271424
Si       1.05439882       9.92372845       5.32951621       0.13552413      -0.18650191      -0.88934433
Si       2.96321148       8.65306916       8.39135533       0.71999065      -0.06509956       0.21264077
Si       4.14062980       4.79388300       6.23878660       0.49810573       0.23163608       0.51023028
Si       0.79630497       4.12403154       6.37155130      -0.16335093       0.02035979       0.54914598
Si       0.70031936       6.68762363       6.48012935       0.36414843      -0.06892125       0.24074730
Si       7.62070659       4.87027988       0.38655882       0.17865516       0.68660924      -0.11979027
Si       2.59891549       7.78922221       4.37644693      -0.34067323       0.49745190      -0.24956027
Si       7.81443489       9.26186083       4.22135527       0.41995756      -0.48910481      -0.99998327
Si       1.68977335       3.36817481       4.17334537       0.52314313      -0.32276112      -0.07111568
Si       5.24830978       5.49943193       8.45623069       0.55760517       0.53631001      -0.30554887
Si       5.92893461       7.65082500       6.99188586       0.32099220      -1.25160119       1.24432806
Si       8.48757821       6.81076925       5.02375767      -0.10189693      -0.06736265      -0.20558361
Si       2.69238090       3.46795675       8.41486864       0.58425645       0.07983378      -0.12219656
Si       1.69722279       1.07024038       8.74348853      -0.58130740       0.20351413       0.16435494
Si      10.08676119       1.58055402       0.45563024      -0.56413269      -0.37105158      -0.39347700
Si       5.22110916       1.07493235       6.28821799       0.00818151      -1.04314746      -0.44694926
Si       5.78397505       6.08710437       3.32685551      -0.03640759      -0.13889588       0.22739813
Si       1.36679666       6.22175014       8.91313706      -3.37850206       1.22656790      -1.96151903
Si       8.81115342       1.85731637       7.74684481      -0.53386617      -0.00477582       0.05568624
Si       7.43412847      10.25928476       1.81646734      -0.44227602      -0.89448602       0.41550930
Si       4.21535938       3.96250579       3.96301881      -1.35347807       1.62787211       0.72098309
Si       2.33085307       5.61590832       2.64185934       0.52636575      -0.05503369       0.07736552
Si       9.90237409       5.95767429      10.13849047      -0.06347848      -0.68248416       0.15998818
Si       1.86361153       0.46596113       0.94023956       0.74878777      -0.17023943      -0.48448634
Si       2.14616670       4.18687621       0.63725453       2.01616628       0.61686061      -0.12101591
Si       2.60077518       8.57448127       0.61620156      -1.60570175       1.58188613      -0.65845232
Si       1.71018718       0.95503905       3.33465765       0.40729128      -0.13832535       0.81212870
Si       6.08951983       6.89570573      10.47623780       0.39758665      -0.11592513      -0.66730026
Si       5.69557569       8.17802548       4.80109731      -0.46955080       0.29729692      -1.66183304
Si       8.26948157       0.07060833       9.43038714      -0.02892105       0.41015909       0.41408259
Si       3.21836296       5.66713528       9.69467674       2.47069798      -1.71613294       1.58784981
Si       5.10632145       9.09154965       2.27592811       0.24622709       0.61223237       0.04695786
Si       7.75537373       2.53145367       1.44696636      -0.01754675      -0.02279257       0.33274189
Si       7.24383098       2.52237967       5.79649055       0.07760489      -0.05961463      -0.07690067
Si       3.19385568       7.08955160       6.50591918       0.28324944      -0.38508029       0.40143096
Si       5.86082083       2.44822724       3.56427582       0.53716670      -1.14952171      -0.40431497
Si      10.68709875       1.22822845       6.27790420      -0.86589715       0.36802976      -0.52431093
Si      10.22729597       4.33774616       3.27017775      -0.20139991      -0.73084636      -0.40119417
Si       6.54311296       9.88792409       7.45112219      -0.59605627       0.74859263       0.29957029
Si       5.42494818       9.38733640       9.52071031      -0.20387331      -0.86869220      -0.16573819
Si       8.19483750       7.37969516       8.17566346       0.07710327      -0.62108751       0.36046661
Si       4.14334452       7.02346851       1.07614008       0.86520064      -1.00322748       1.34587815
Si       9.73045973       0.65774745       2.59528161       0.06189494      -1.47868694      -0.96991113
Si       8.53783257      10.18979224       6.27231444       1.45192381       0.19519635       0.22089890
Si       6.86148318       4.99198264       5.46689806      -0.27986175       0.03077945      -0.06534407
Si      10.37933090       8.91308362       3.13302033      -0.28224953      -0.49042224      -0.19429929
Si      10.06770472       8.69561757       7.52296604       0.22644940       0.20938858      -0.17155300
Si       4.35464368       0.72831410       2.27667626      -0.39630521       0.13201946       0.11598658
Si       3.65544333       2.28251184       0.10524023      -0.49715519      -1.10854424      -0.03871541
Si       7.98133664       8.39186835      10.61824750      -0.26731837       0.11252844      -0.05800383
64
Lattice="10.591224115895661 0.0 0.0 0.0 10.591224115895661 0.0 0.0 0.0 10.591224115895661" Properties=species:S:1:pos:R:3:forces:R:3 energy=-6822.643786548958 stress="0.024028184789769653 0.00210992619972834 -0.0046054785978404495 0.00210992619972834 0.01895628212340788 0.002642457616544022 -0.0046054785978404495 0.002642457616544022 0.034115064350350825" free_energy=-6822.643786548958 pbc="T T T"
Si       4.27760478       3.43522118       8.21581378       0.87114374      -0.67490610       0.26810512
Si       5.37865785       0.33854424      10.35151294      -0.01160339      -0.04519511       0.15351157
Si      10.05491630       1.94142434       5.74757136      -0.54683482       0.79545458      -0.59864820
Si       6.50940871       1.97897023       7.65550625      -1.25253964      -0.31570499      -0.76246887
Si       9.70180489       3.73376660       7.72549306      -0.16446216       0.03545603       0.40637700
Si       6.67070246       5.83758618       2.09802618       0.08875885      -0.05990799       0.31337505
Si       4.52082165       5.06240389       3.59206662       0.47649304      -0.23848036       0.02639237
Si       2.59951005       9.35256986       8.64844410      -0.48682476       0.14151943      -0.28744393
Si       4.66781725       2.61309859       2.63495887      -0.05450790       0.79966193      -0.29846214
Si      10.57599394       5.57230779      10.35799477      -0.08304817       0.22830419       0.06366077