64
Lattice="10.777356377984727 0.0 0.0 0.0 10.777356377984727 0.0 0.0 0.0 10.777356377984727" Properties=species:S:1:pos:R:3:forces:R:3 energy=-6825.997296951956 stress="0.023701320678758648 -0.0023348748154522056 0.0012753209275120385 -0.0023348748154522056 0.017566191493995912 -0.0008685771039786813 0.0012753209275120385 -0.0008685771039786813 0.01622476321818951" free_energy=-6825.997296951956 pbc="T T T"
Si       1.67719375      10.70729278       7.38386862      -0.43359547      -0.41670229      -0.14156005
Si       2.94105434       2.13085579       7.84249902       0.52409110      -0.10820025       0.75318539
Si       9.06434947       1.18709347       9.76704388       0.49369372       0.29581647       0.35677733
Si       2.56192849       6.64761352      10.35456069       0.50947103      -0.79256903       0.43668542
Si       0.65383419       3.50449453       2.20343051      -1.62026319      -0.43336561       1.85934544
Si       2.47976193       1.11690055       3.01078383       0.98329321      -1.63333519      -0.51868252
Si       1.03914085       7.32557390       1.59495175       0.26626241       0.38949205       0.79109450
Si       4.58608846      10.22819618       9.83045785       0.36954131       0.28903390       0.01182965
Si       6.61833144       4.97880455       1.00542173      -0.89560805       0.78943023      -0.05407493
Si       4.98058281       7.17267554       1.12197669       0.78812025       0.22037722      -0.37576210
Si       2.26286763       4.14530536       0.79553487       1.58328224       1.44277120      -0.84006065
Si       4.82550743       9.12947703       5.91566936      -0.68445877      -0.23002143      -0.31688538
Si       7.78809493      10.66184467       7.32423751       0.43949795      -0.08471502      -0.13943710
Si       4.94852018       4.57736958       2.76843342      -0.32058185       0.59078654      -0.54795273
Si       7.10031637       9.59653533       5.17045828       0.46074683       0.32304163      -0.54542843
Si       6.86798890       3.25158231      10.08382272       0.90462748      -0.06475246       0.24967057
Si       4.62862669       3.52393688       9.49999177      -0.62958783      -0.80164605      -0.41429188
Si       5.05569021      10.66970137       2.70642051       0.35519559      -0.79123489       0.09496909
Si       5.05063563       1.46857647       4.93690219      -0.67718923      -0.75336099      -0.12725315
Si       8.89080170       3.70359541       4.45502503       0.02496695       0.22118841       0.82824026
Si       0.82446561      10.04910885       2.30109491      -0.29229612      -0.07755527      -0.16393328
Si       1.11645868       2.22524388       4.36503410      -0.83037068       1.18266889       0.12394157
Si       7.81745244       7.67255089       0.48621504      -0.44091154       0.50558404       0.63745515
Si       7.19357284       6.27400568       6.43363989       0.19354416      -0.55460881      -0.90897007
Si      10.08208756       0.72648219       6.88580387       0.01024842      -0.08187395       1.17275857
Si       1.82070503       2.58230847       9.94216515      -0.62953024      -0.48525201      -0.94711290
Si       4.78318475       0.27290637       7.58155767       0.30662873       0.77337935      -0.01709244
Si       1.91022175       3.58961409       6.21337228      -1.54114546      -1.20369948       0.29620008
Si       8.31702602       5.37518494       2.62165660       0.14496420       0.29263576       0.63029591
Si      10.48273579       4.46237519       6.44758579      -0.18082697       0.65759820      -0.69224304
Si       2.68596509       5.81361857       3.24135459      -0.73499072      -1.69984269       0.35050307
Si       3.79734763       7.67473869       3.76300020       1.40717633       1.50454941       0.82548172
Si       7.24006635       1.04848481       4.16344365      -0.03305050      -0.76590464      -0.51941889
Si       7.05255113       3.80800644       6.07184403       0.97682560       0.35207658       0.67435974
Si       3.23608447       8.97255872       1.56218858      -0.02745141       0.20797396       0.34705959
Si       6.94652350       8.51912301       2.68303365      -0.51911190      -0.07638747       0.19977317
Si       3.34758700       5.14250181       5.67526965       1.54461928       2.10522930      -1.17313961
Si       7.70313703       1.29220503       1.65136043       0.65708424      -0.01021216       0.90745389
Si       7.03005879       2.11256662       7.97347623      -0.38013683       0.23140366      -0.75410610
Si       2.17061346      10.10912795      10.13548936       0.23810061      -0.37826327       0.07909742
Si       8.29874763       9.68489887       9.45284083      -0.17544411      -0.74300073      -0.21075538
Si       0.23838650       5.37731886       3.87218560       0.44203383      -0.36884480      -0.31394327
Si       9.61463051       9.72835317       4.04116377       0.08611036       0.19209534      -0.66037808
Si       0.60678456       0.92322499       0.33836373      -0.83506320      -0.41415381      -0.19476235
Si       5.66140997       1.23794104       0.67779118      -1.41192876       0.04026348      -0.52777652
Si       6.05868488       8.15935330       9.55391088       0.11086391       0.25286954       0.42104463
Si      10.66957204       2.93399517       8.36863878      -0.29549586      -0.47787166       0.52688871
Si       9.02025930      10.08118227       1.30106402       0.24002302      -0.69641337      -0.04707021
Si       9.77668962       6.96593352       6.41206362      -1.25266434      -1.01674660       1.35181045
Si       9.45580461       4.25638757      10.17565657      -0.68297705       0.00853786      -0.12708294
Si       5.12855592       3.75499262       4.89745706      -0.65006101       0.26894999       0.48351883
Si       6.27301417       6.58065380       4.17366059       0.18244702       0.34878249      -0.71821916
Si       9.83573875       7.88171782       8.78810427       0.56058405       0.11466529      -0.16713148
Si       9.67759182       7.41909980       3.09146312       0.04121658      -0.65428816      -0.41750473
Si       3.01048207       0.00760450       5.30539078       0.64202220      -0.26459788      -0.43568192
Si       3.96237051       2.62807991       1.80168300      -0.01068910      -0.10744434      -0.59541016
Si       4.89766183       6.71335539       7.14481608       0.01492474       0.07743186       0.35735197
Si       2.63073114       7.78868768       6.51878100      -0.24007367       0.23474686      -0.30325570
Si       9.09649832       3.23003837       1.48655310       0.84547205       0.12914831       0.00253357
Si       0.08935291       8.98965161       5.94748412       0.84791151       0.58340542       0.01752387
Si       4.82024808       5.75772720       9.34398953      -0.54543974       1.77732263       0.29311862
Si       1.46479361       8.30267058       8.69201336       0.21996070       0.03371899       0.27109326
Si      10.00105262       6.53828802       0.19242862      -0.70653144      -0.39900256      -0.85094464
Si       9.66547808       1.43002586       4.74331931       0.26192368       0.14889156      -0.58373915
64
Lattice="10.765828252500746 0.0 0.0 0.0 10.765828252500746 0.0 0.0 0.0 10.765828252500746" Properties=species:S:1:pos:R:3:forces:R:3 energy=-6825.564283425015 stress="0.01955675720374832 0.0015627042610694667 -0.00410141006709595 0.0015627042610694667 0.021893468334430927 0.0038030088421561288 -0.00410141006709595 0.0038030088421561288 0.017694733560123833" free_energy=-6825.564283425015 pbc="T T T"
Si       3.09874988      10.34346328       5.70651339       0.38105343      -0.04760732       0.51905842
Si       2.28529466       6.06432646       3.46879293       0.67077048       1.59348412       0.05724510
Si       1.59266433       4.37166911       8.82400658       0.98593244      -0.26882041      -0.13279285
Si       9.36220110      10.24094030       0.75767854       0.32098629       0.41177194      -0.60613731
Si       8.49044892       5.56430757       3.77807364       0.82880539       0.92515594      -0.33178724
Si       5.15018922       0.67437148       7.19259603      -0.14170044       0.11319822      -0.68437495
Si       7.72062760      10.41337657       7.87498805      -0.38124652      -0.41979481      -0.18403288
Si       1.85301436      10.28562925       2.78852177       0.49106245      -0.89382884       0.06066184
Si       7.78222967       3.49005544       2.62119927      -0.97118614       0.09934768       0.14514957
Si      10.52175616       8.13795417       1.55327217      -0.04758032      -0.67845139      -0.16415542
Si       3.68764068       8.08529851       9.81476422       0.37371704      -0.49558759       0.15106234
Si       7.17632886       6.41190122       0.55860545      -0.87149701       0.04070545       0.33243335
Si       3.53391542       2.30393031       1.19776299       0.20538152       0.54780130       1.77461654
Si       5.57470736       4.71352722       1.62739490       1.04649118      -0.57472255      -0.23108484
Si       5.90080429       0.73767886       4.56831773      -0.16805090       0.35613944      -0.61045137
Si       0.34394022       0.71372489       4.55242737       0.13977494      -1.21353395       0.52285851
Si       8.87294803       2.05530427       7.99512393       0.64934367      -0.65257966       0.81663584
Si       6.16878729       0.84970376       2.05863091       0.11577009       0.89382499       0.51489272
Si       9.54909588      10.24534352       6.18080196      -0.06583104      -0.33369140      -0.45749181
Si      10.65536009       2.85634649       3.97402248       0.05398005       1.01503168      -0.85566493
Si       6.40707813       8.33882299       6.81903255       1.01509133       0.54991834       0.83202030
Si       3.62518811       1.00245687       3.46822234       0.32687926       0.83910703       0.42002055
Si       9.02678095       8.81651356       9.35753949       0.03450189       0.79830079      -0.32586804
Si       5.80956390       7.52538931       3.29295465      -0.18054852      -0.29095580      -0.74082789
Si       3.26226128       7.73742230       5.24794294      -0.20094560       0.23695158      -0.41039974
Si       0.48482508       3.55765407       1.48416632       2.30036703      -0.90437525       1.44400198
Si       5.28001434       2.75240242      10.64299015       1.29312631       0.05859955      -0.46187143
Si       4.50079446       2.93320374       6.51429502      -0.09017064       0.07343199       0.50509039
Si       9.86532055       4.91002512       5.60408730       0.02700378      -0.41396818       0.27324939
Si       0.83482646       6.68575160       9.02681325      -0.92297693      -0.36030591       0.13311090
Si       5.36828337       9.23836177       4.80946152      -0.54989135      -0.55688989       0.46931889
Si       2.54195201       4.77481708       0.75305569      -0.28093210      -0.58010001      -0.24977290
Si       8.17043467       2.05717753      10.37314467       0.17023557       0.21502599       0.25366067
Si       0.13974906       8.69386924       3.81801486      -0.11921434       0.42468505       0.38168438
Si       1.52136225       4.99561345       6.40125382       0.31004702       0.48912847       0.16032834
Si       6.94582171      10.13474617       0.33357704       0.91136814       0.47798350       0.11638561
Si       2.59031211       2.85305215       4.83070250       0.46323874      -0.40376193       0.22900919
Si       5.49442658       0.41654174       9.56457714       0.73687611       1.39489186      -0.67806470
Si       5.72740986       5.28518194       4.44834334       0.31511620       1.13917276       0.85012883
Si       3.28791625       8.15000113       2.28859977       0.14349635      -0.28573749       0.56054266
Si       9.03352036       7.64209089       5.73072574       0.07359577      -0.17317948       0.22949950
Si       3.91209744       4.41963088       3.46193509      -1.06854019      -0.76080074      -0.96351217
Si       8.26555077      10.17308328       4.04702556       0.42696973       0.01773161      -0.19646725
Si       8.11581963       7.86259658       2.69780890      -0.02943039      -0.33877164       0.20253428
Si       2.27442117       0.50881135       0.62809565      -1.61671635      -0.41522699      -0.14756435
Si       5.07229845       6.86504570       8.37914102       0.67468781      -0.55868143      -1.19008215
Si       0.72572664       2.08772018       8.64377585      -1.17604084       0.22156790      -0.53508359
Si       2.01309146       7.12009894       0.27896091      -0.64185791      -0.16663834       1.01262384
Si       0.22420914       8.98336237       7.84625405      -0.02315176       0.31808583      -0.21956938
Si       9.53225812       6.53403955      10.47546310      -0.05894948      -0.50582238      -0.04136571
Si       1.00646391       7.48282122       6.11509811      -0.02375725      -0.32930664      -0.54903311
Si       5.55693297       8.36683568       0.47909443      -0.04133408      -1.33387341       0.99964517
Si       8.38843193       6.65240983       8.06252878      -0.21082712       0.33346719      -0.03039764
Si       7.90182726       4.02283475       7.13520340       0.05872785       0.12390866      -0.77782221
Si       1.88371850       0.10996109       7.86473898      -0.53747755      -0.63438165      -0.49503892
Si       8.84565666       1.28805599       2.46787234       0.03401492      -0.51596333       0.32169566
Si       6.56220295       5.14314837       9.30701546      -0.07292266       0.35872546      -0.57818762
Si       0.12199621       5.78404889       2.65469176      -0.92356108       0.47456419      -0.35494311
Si       6.79198879       3.23685392       4.99723909      -0.27332318      -0.06705900       0.71793068
Si       4.21534929       5.74586249       6.42135362      -0.18810679      -0.00229908      -0.21487043
Si       4.20468035       3.92971033       8.87275425      -0.55061331       0.16993089      -0.97112006
Si       3.39581138      10.30354359       9.54741641      -0.78078181       0.19021535       0.06184763
Si       9.30375342       4.19598156       0.85328017      -2.50365181       0.96661343      -1.15455413
Si       0.07530374       1.57071281       0.02773062       0.13440159      -0.69175248       0.47544840
64
Lattice="10.778431136894895 0.0 0.0 0.0 10.778431136894895 0.0 0.0 0.0 10.778431136894895" Properties=species:S:1:pos:R:3:forces:R:3 energy=-6823.146195771545 stress="0.02927086477255852 0.006068103678853176 -0.0014745611300103192 0.006068103678853176 0.008237710123569482 -0.00462200543491404 -0.0014745611300103192 -0.00462200543491404 0.024354130743165458" free_energy=-6823.146195771545 pbc="T T T"
Si       1.19318311       5.34438807       5.18691519       0.45468442      -0.86067858       0.77501817
Si      10.75103236       4.28557967       7.31024457      -0.57666990       0.88261909      -0.54264572
Si       7.47189948       9.23091789       1.83614886       0.08040534       0.85473316      -0.69169180
Si       0.25955648       0.08110985       7.92048701       0.19026215      -0.32751561      -0.23441493
Si       9.48762778       3.79127004       3.15828511      -0.40974026       0.39139826      -1.54269018
Si       6.73224042       6.41249826       8.98167744       0.72373649       1.03800114      -1.57610963
Si       5.25159656       9.73575804       9.30622678      -0.65162450       1.67602450       0.95606831
Si       5.60661652       3.93501120       6.54311129       0.06970595       0.66049840       0.18417429
Si       7.53192456       0.38238317      10.66025642      -0.50167802      -0.02332505       0.10184037
Si       8.40841581       8.05772877      10.65073906       0.60157489      -0.00853221      -0.26717927
Si       4.52256503       7.90503074       4.07910804       0.19525240      -0.14626929       0.19543726
Si       6.09044952       5.33957011       0.01665914      -0.47323828       0.81376958       2.17420299
Si       3.62946423       5.19488046       4.37112808      -0.85327483       2.48497892       0.63987456
Si       7.49109587       5.89597429       2.04836539      -0.40597205      -1.65688495      -1.21877772
Si       3.44876383       7.56344070       6.38276057       0.05518873       0.15230624       0.24882211
Si       1.03910867       6.74015179       7.56771973       0.43096805      -0.47519231      -0.30131246
Si       9.80796275       6.40465157       1.45990616      -0.32805168      -0.44233413       0.49806768
Si       6.83657564       7.62441428       3.37446811      -0.68070136      -0.29486311       1.29956255
Si       3.67784861      10.09489537       6.55838433       0.05915568      -0.20319943      -0.30101139
Si       0.84202721       2.42335779       8.30842430       0.59760639      -0.65409044       0.84125441
Si       8.94651820       8.68782508       6.40942641       0.10729059      -0.15792487       0.06777068
Si       0.32133521       0.12395411       0.78882918       0.10962773       1.16252095      -0.20802024
Si       3.39091599       9.57469595       2.51381038       0.20495806      -1.43415620      -0.26235151
Si       6.16873327       9.44369490       5.57903452      -0.56040407       0.06131181       0.06135064
Si       4.21119772       5.77751933       8.06916469       0.41236921      -0.23479520      -0.40457157
Si       8.00085099       3.03477507       9.06950010       0.23405832      -1.63038922       0.52229750
Si       5.91958983       3.14598692      10.35710226      -0.29743164      -1.31453923      -0.01304372
Si       7.76783209       3.91970582       4.70256483      -0.63102688       0.15815575       0.67933225
Si       2.98670327       0.82883549       0.36374834       0.00007302      -0.19892522      -0.52441300
Si       7.72020220       4.76184621       7.54162515       0.28703899       0.59289382      -0.90763515
Si      10.34074061       6.64230519       4.08266492      -0.02947101       0.49705723      -0.80117709
Si       0.76199412       1.37878769       5.67833621      -0.05784725       0.00399447      -0.31040029
Si       6.21455238       8.43738823       7.83102603       0.61813408      -1.36368612      -1.20121503
Si       4.76033723       1.57456711       4.86838022       0.06231686      -0.39368603       0.62569518
Si       0.56865278       9.62178691       4.08062780       0.16995840      -0.16905389      -0.20929911
Si       4.29689702       3.34508610       3.44859138      -0.12196799      -1.36881599      -1.06651596
Si       5.04622433       1.69000411       7.31213080      -0.67216119       0.22766964      -0.30527685
Si       3.96070698       6.52120952       0.01759579       0.47589037       0.92432933      -0.15235123
Si       6.36187197       3.49834462       2.53699479       1.59332703       0.33440590      -0.21042525
Si       2.16730538       4.58676137       9.35592613       0.76652633      -0.72133250      -0.78270551
Si       8.80048124       9.73055206       8.70960829      -0.18214775       0.17238810      -0.16153984
Si       1.59584374       7.65000228       2.53455886      -0.96297918       1.87306948      -0.35946722
Si       6.47824669       0.50437237       3.57768465       0.21249756      -0.14771810      -0.46901807
Si       8.13387839       6.37179891       5.18782058       0.52667917       0.73784516       0.06516667
Si       2.21866460       7.65295557       9.47931761      -0.64995997      -0.20110398       0.82432678
Si       9.73285865       5.46568854       9.32552018      -0.25886767      -0.14507475      -0.52916363
Si       2.74527719       0.45552237       4.09805652      -0.60556781       0.03099156       0.79688823
Si       2.70934190       9.83834715       8.99762952       0.43352245       1.42311203      -0.36971204
Si       0.71927058       3.15223841       3.86476816       1.61775071      -0.60324971       0.42368232
Si       0.86322299       8.78888365       6.32794147      -0.61297311       0.42508717      -0.16320489
Si       0.36824618       8.63591615       0.32173401       0.26520415      -1.56558277       0.03195547
Si       9.49628286      10.61476066       2.61348931       0.59493810      -1.12953344       0.60967875
Si      10.28037061       4.04801227       0.47566726      -1.79783720       2.51670376       1.47577388
Si       5.49120108       1.25464172       1.21683098       0.40057350       0.12137895      -0.16247341
Si       7.11197533       0.84785403       7.98314203       1.10759448      -0.24901700       0.57348507
Si       8.44041697       1.82487462       2.16387784      -1.24157338       1.12527389      -0.13095605
Si       1.62381376       4.23972822       0.89908391       2.11095206       0.87487981       0.12030834
Si       9.25400529       2.13526110       6.50928858      -0.22387367       0.07620724      -0.18219557
Si       8.37819309       0.06563095       5.33947311      -0.18510143      -0.13415476       0.28374309
Si       3.68840069       2.41090870       9.28322561      -0.08078869       0.41393964       0.22307585
Si       2.99537991       5.89483177       2.00698699      -0.83873833      -0.74712761       0.68163442
Si       5.04847702       9.03470733       0.71427909       0.10111300      -0.47728416       0.80367003
Si       2.50147986       2.50225590       2.09929348      -0.23057088      -0.73512930       1.13952860
Si      10.12165821       2.14146948      10.26688680      -0.74869341      -2.49237932      -1.36072061
64
Lattice="10.726229392822441 0.0 0.0 0.0 10.726229392822441 0.0 0.0 0.0 10.726229392822441" Properties=species:S:1:pos:R:3:forces:R:3 energy=-6823.968688829005 stress="0.018897520036035117 0.0008520502669050912 -0.0008869402562826704 0.0008520502669050912 0.01919500310335974 -0.0011798325355312955 -0.0008869402562826704 -0.0011798325355312955 0.029814414080756597" free_energy=-6823.968688829005 pbc="T T T"
Si       4.27757738       5.45961858       4.46273355      -0.36849076       1.19691306       0.44388476
Si       7.08454580       2.21899943       0.47069376      -0.69204327      -0.38061146      -0.44405471
Si       6.03818067       6.57504990       9.43897460       0.26964959      -0.94532804      -0.28746810
Si       1.63158821       8.25448782       8.86608669      -0.16337869      -1.01584414       0.63227283
Si       0.74237843       7.23918585       0.39791844       0.22229527       0.33876932       0.21970308
Si       9.86824903      10.20269286       7.95844389      -0.50822842      -0.23488827       0.37080167
Si       4.65430401       2.10715704       8.55193689      -0.55374132       0.61788417      -0.30425304
Si       7.49984395       3.82157319       7.45221949       0.56340455       0.98543802       1.21693141
Si       4.53287236       7.67479948       8.00084467       0.12861635       0.37154883      -0.70596888
Si       2.30226715       3.06523457       9.03316917       1.26638015       0.38626840       0.27963164
Si       2.67264385       6.28648215       7.59166047       0.03776308       0.17647666       0.30300734
Si      10.24246572       7.64527017       7.56629294      -0.34417867       0.82295613       1.66191403
Si       1.24606607       1.06651221       9.54749187      -0.62954027      -0.69828282       0.19567561
Si       7.52773215       8.88609111       6.63189892       0.33308616      -1.35277384      -1.62746896
Si       3.47799061       8.93757701      10.63840303       0.06042967       0.15958709      -0.21741685
Si       2.21810915      10.30080568       7.83890006      -0.63683834       0.27854226      -0.26934028
Si       7.04750813       7.89904203       3.58763412      -0.24619187      -0.01477690       0.94843830
Si       5.72989811       8.18222521       0.34761135       0.40437822      -0.29184875       0.81736655
Si       9.10947556       7.11917007      10.47901126      -0.58418575      -0.04554221      -0.30281785
Si       1.71191694       9.88600094       5.40686699       1.19495388       0.98993025       0.43553485
Si      10.05447782       4.02202496       0.26087477      -0.61625306      -0.22819980      -0.25971690
Si       4.30023117       9.53542486       5.06739255       0.34459390       0.50122319      -0.20226149
Si       9.75235212       9.77280704       2.15061972       0.28427556      -0.22180676       0.39452755
Si       1.57195037       4.98076752       0.45896356       0.76483403      -0.06349056       0.19212954
Si       5.47945138       7.47721160       5.73266548       0.23405498       0.74478739      -0.54058935
Si       6.04692255       3.97510843       2.15265770      -0.09691388       0.72509069      -0.51806495
Si       0.03016216       7.50843566       2.91976545      -0.01699602       0.39053489       0.19810221
Si       4.58969993       0.62410244       2.46585288      -0.14935461       0.08849377      -0.21461589
Si       0.98608050       9.73965227       0.59500218       0.27685690      -0.01086960       0.27775113
Si       9.55047376       4.88619436       8.42185990       0.13908383      -0.25585176       0.13574730
Si       7.90259241       5.39383462       1.18240590       0.06976251      -0.37133363      -0.90580633
Si       0.38364076       8.00045853       5.50748974      -0.33514972      -0.44396601      -2.09175749
Si       7.76915812       1.60447230       2.70903795      -0.20601453      -0.42245950       0.33741692
Si       4.93069748       1.14240779       6.06517859       0.58766856      -0.19592552       0.70888142
Si       9.05839726       9.38220067       4.65446490      -0.35245711      -0.24751136       0.28662735
Si       8.36224352       0.28333657      10.01380396       0.00433051       0.15336373      -0.90039904
Si       2.78007777       9.83617760       2.44060333      -0.66952118      -0.66300420      -0.34164330
Si       5.38081297       6.64884636       2.24617970      -0.09566098      -0.22655121       0.01723925
Si       3.73686815       3.05455125       0.75273138       0.61839196       0.38048136      -0.15917545
Si       4.47325598      10.09495861       8.47849439       0.86804839      -0.48063431       0.27424492
Si      10.17525517       1.74557585       2.98930360      -0.02219093       0.33017541       0.16657175
Si       6.97159860       2.43941272       5.68617800       0.18189526      -1.97102234      -0.25662515
Si       1.55140964       5.66066030       5.40229761       0.61516214      -0.11366487       0.60201635
Si       9.14224419       1.03773802       5.41387121      -0.58640847       0.58619044      -0.46053677
Si       3.81824806       5.16966715       9.57675302      -0.72839430      -0.28743365       0.14310117
Si       6.15720964       4.00676154       9.62835691       0.01192606      -0.23758433      -0.98359351
Si       3.06047213       7.38565251       2.08780692      -0.46352979       0.22181190      -0.43418785
Si       8.11378114       5.65289451       5.54014039      -0.40133455      -0.32003781      -0.23516698
Si       8.70256532       6.17102502       3.15503457       1.04690307       0.56211540       1.21510078
Si       6.28563478       4.33189500       4.51995798       0.92560537       0.20278522      -0.64208776
Si       7.94724570       9.19857835       0.72985126      -0.37607989      -0.63259011       0.00200829
Si       0.93592358       3.65202368       7.16429531      -0.09384218       1.00143080      -0.47135726
Si       0.33319423       1.45166643       6.81493130      -0.15721113      -1.11132386      -0.01646946
Si       3.25859631       2.36625984       3.97550530       1.98293709       1.77798597       0.47741760
Si       9.82630947       3.85451344       5.27164141       0.24534906      -0.06499646       0.01523739
Si       6.49025906      10.18812664       3.26507495       0.30280242       0.70843045      -0.01204793
Si       6.91311920      10.71380842       7.62447201      -0.96321855       1.81205900       1.27248215
Si       7.95411049       6.98979029       7.92917201       0.77153304      -0.95221320       0.63396539
Si      10.05822128       1.53067584       0.55597801       0.03179760       0.51531618      -0.52216148
Si       2.57842465       4.66722911       2.92870040      -1.11072814      -0.28443497      -0.45293247
Si       3.67841020       3.62945569       6.36821602      -0.49507388      -0.27562997      -0.35018914
Si       1.57944800       1.03143315       3.90513051      -2.31083090      -2.19245783       0.05257495
Si       0.01915812       4.39076055       2.89669333       0.28941494      -0.39569201       0.12623757
Si       4.84330017       0.83149730       0.00462622      -0.10420167       0.62399234       0.07563157
64
Lattice="10.630839380067425 0.0 0.0 0.0 10.630839380067425 0.0 0.0 0.0 10.630839380067425" Properties=species:S:1:pos:R:3:forces:R:3 energy=-6823.674029950646 stress="0.011127152138602155 -0.005285833390703243 -0.0015461774239958767 -0.005285833390703243 0.029714334900699853 -0.0026571481383872134 -0.0015461774239958767 -0.0026571481383872134 0.01525427061892369" free_energy=-6823.674029950646 pbc="T T T"
Si       9.99061834       4.67161606      10.58003460       0.26760993       0.56765253      -0.13337366
Si       8.24587435       0.73621965       2.21941097       0.79645165       2.23287891       0.46323514
Si       5.54148449       5.17097848       4.73429549      -0.26595234      -0.02201070       0.06607632
Si       3.96590905       7.72301778       2.88999369      -0.74880269      -0.35750598      -0.44393876
Si       8.78836608       8.00402275       1.14028509      -0.16828410      -0.86985691       0.54630903
Si       6.99001077       2.66028251       9.99140502      -0.57104510      -0.18147180      -0.72838787
Si       6.06448989       7.65770190       7.85521226      -0.60086449      -0.29988190      -0.25929421
Si       0.46477605       1.32200866      10.06306751      -0.69965759       0.64565440      -0.19210049
Si       8.34246616       7.36447146       7.23301050       0.16840494      -0.04802127      -0.11064871
Si       4.59884796       1.62922929      10.19376305       0.31703630      -0.10225303      -0.32292387