An instance of this daemon is already running

     Program PWSCF v.7.1 starts on 10May2023 at 11:45:29 

     This program is part of the open-source Quantum ESPRESSO suite
     for quantum simulation of materials; please cite
         "P. Giannozzi et al., J. Phys.:Condens. Matter 21 395502 (2009);
         "P. Giannozzi et al., J. Phys.:Condens. Matter 29 465901 (2017);
         "P. Giannozzi et al., J. Chem. Phys. 152 154105 (2020);
          URL http://www.quantum-espresso.org", 
     in publications or presentations arising from this work. More details at
     http://www.quantum-espresso.org/quote

     Parallel version (MPI & OpenMP), running on       4 processor cores
     Number of MPI processes:                 4
     Threads/MPI process:                     1

     MPI processes distributed on     1 nodes
     707056 MiB available memory on the printing compute node when the environment starts
 
     Reading input from pw-si-94.in
Warning: card &CELL ignored
Warning: card / ignored

     Current dimensions of program PWSCF are:
     Max number of different atomic species (ntypx) = 10
     Max number of k-points (npk) =  40000
     Max angular momentum in pseudopotentials (lmaxx) =  4

     IMPORTANT: XC functional enforced from input :
     Exchange-correlation= PBE
                           (   1   4   3   4   0   0   0)
     Any further DFT definition will be discarded
     Please, verify this is what you really want


     gamma-point specific algorithms are used
 
     K-points division:     npool     =       2
     R & G space division:  proc/nbgrp/npool/nimage =       2
     Subspace diagonalization in iterative solution of the eigenvalue problem:
     a serial algorithm will be used

     Message from routine divide_et_impera:
     suboptimal parallelization: some nodes have no k-points
 
     Parallelization info
     --------------------
     sticks:   dense  smooth     PW     G-vecs:    dense   smooth      PW
     Min        2023    2023    537                99519    99519   13509
     Max        2024    2024    540                99520    99520   13512
     Sum        4047    4047   1077               199039   199039   27021
 
     Using Slab Decomposition
 


     bravais-lattice index     =            0
     lattice parameter (alat)  =      21.3219  a.u.
     unit-cell volume          =    8963.8429 (a.u.)^3
     number of atoms/cell      =           64
     number of atomic types    =            1
     number of electrons       =       256.00
     number of Kohn-Sham states=          154
     kinetic-energy cutoff     =      30.0000  Ry
     charge density cutoff     =     120.0000  Ry
     scf convergence threshold =      1.0E-06
     mixing beta               =       0.5000
     number of iterations used =            8  plain     mixing
     Exchange-correlation= PBE
                           (   1   4   3   4   0   0   0)

     GPU acceleration is ACTIVE.
     GPU-aware MPI enabled

     Message from routine print_cuda_info:
     High GPU oversubscription detected. Are you sure this is what you want?

     celldm(1)=  21.321888  celldm(2)=   0.000000  celldm(3)=   0.000000
     celldm(4)=   0.000000  celldm(5)=   0.000000  celldm(6)=   0.000000

     crystal axes: (cart. coord. in units of alat)
               a(1) = (   1.000000   0.000000   0.000000 )  
               a(2) = (   0.000000   0.933899   0.000000 )  
               a(3) = (   0.000000   0.000000   0.990188 )  

     reciprocal axes: (cart. coord. in units 2 pi/alat)
               b(1) = (  1.000000  0.000000  0.000000 )  
               b(2) = (  0.000000  1.070780  0.000000 )  
               b(3) = (  0.000000  0.000000  1.009910 )  


     PseudoPot. # 1 for Si read from file:
     /home/ppiaggi/pseudos/Si_ONCV_PBE_sr.upf
     MD5 check sum: 8553c464762ac42b85b1eed164b4d029
     Pseudo is Norm-conserving, Zval =  4.0
     Generated using ONCVPSP code by D. R. Hamann
     Using radial grid of 1510 points,  4 beta functions with: 
                l(1) =   0
                l(2) =   0
                l(3) =   1
                l(4) =   1

     atomic species   valence    mass     pseudopotential
        Si             4.00    28.08500     Si( 1.00)

     No symmetry found



   Cartesian axes

     site n.     atom                  positions (alat units)
         1           Si  tau(   1) = (  -0.0064328   0.0002483   0.0055072  )
         2           Si  tau(   2) = (  -0.0176544   0.2223760   0.2611094  )
         3           Si  tau(   3) = (   0.2504209   0.0112513   0.2599409  )
         4           Si  tau(   4) = (   0.2340802   0.2289759   0.0050774  )
         5           Si  tau(   5) = (   0.1177415   0.1168890   0.1193418  )
         6           Si  tau(   6) = (   0.4802253   0.0131108  -0.0138542  )
         7           Si  tau(   7) = (   0.4935324   0.2321288   0.2425532  )
         8           Si  tau(   8) = (   0.6253835   0.1121226   0.1309306  )
         9           Si  tau(   9) = (   0.7424127  -0.0075404   0.2624448  )
        10           Si  tau(  10) = (   0.7391164   0.2434654   0.0085194  )
        11           Si  tau(  11) = (  -0.0118658   0.4899716   0.0021126  )
        12           Si  tau(  12) = (   0.2328047   0.4595675   0.2447281  )
        13           Si  tau(  13) = (   0.1083528   0.5955454   0.1148136  )
        14           Si  tau(  14) = (   0.3655545   0.3597209   0.1447931  )
        15           Si  tau(  15) = (   0.4782381   0.4641127  -0.0098977  )
        16           Si  tau(  16) = (   0.6083243   0.6010483   0.1158304  )
        17           Si  tau(  17) = (   0.8833508   0.3625618   0.1378837  )
        18           Si  tau(  18) = (   0.7301083   0.4592510   0.2579242  )
        19           Si  tau(  19) = (  -0.0001114   0.7023516   0.2378997  )
        20           Si  tau(  20) = (   0.2506528   0.7214289   0.0162721  )
        21           Si  tau(  21) = (   0.3638194   0.8350380   0.1123765  )
        22           Si  tau(  22) = (   0.4983889   0.7173913   0.2606159  )
        23           Si  tau(  23) = (   0.7291444   0.7283495   0.0007987  )
        24           Si  tau(  24) = (   0.8535746   0.8238175   0.1174688  )
        25           Si  tau(  25) = (  -0.0016462   0.0049755   0.5221008  )
        26           Si  tau(  26) = (   0.2485768   0.2225756   0.5010429  )
        27           Si  tau(  27) = (   0.1227691   0.1079799   0.6426139  )
        28           Si  tau(  28) = (   0.3764902   0.1192185   0.3821728  )
        29           Si  tau(  29) = (   0.4885450  -0.0123478   0.4917581  )
        30           Si  tau(  30) = (   0.6030203   0.1309982   0.6296905  )
        31           Si  tau(  31) = (   0.8782183   0.1083554   0.3703339  )
        32           Si  tau(  32) = (   0.7261177   0.2256489   0.4962910  )
        33           Si  tau(  33) = (   0.1245147   0.3729235   0.3848259  )
        34           Si  tau(  34) = (   0.0101178   0.4694501   0.5158111  )
        35           Si  tau(  35) = (   0.1307318   0.6108204   0.6296858  )
        36           Si  tau(  36) = (   0.6046956   0.3709370   0.3905463  )
        37           Si  tau(  37) = (   0.3537912   0.6081627   0.3752591  )
        38           Si  tau(  38) = (   0.3542165   0.3628149   0.6193641  )
        39           Si  tau(  39) = (   0.5005235   0.4674926   0.4878481  )
        40           Si  tau(  40) = (   0.6293812   0.5848659   0.6203413  )
        41           Si  tau(  41) = (   0.8680944   0.6093118   0.3686570  )
        42           Si  tau(  42) = (   0.8644380   0.3669959   0.6479796  )
        43           Si  tau(  43) = (   0.1197706   0.8414069   0.3713841  )
        44           Si  tau(  44) = (   0.2476559   0.6953384   0.5231491  )
        45           Si  tau(  45) = (   0.6229176   0.8417582   0.3820887  )
        46           Si  tau(  46) = (   0.3733916   0.8385099   0.6331054  )
        47           Si  tau(  47) = (   0.7450935   0.7197175   0.5203464  )
        48           Si  tau(  48) = (   0.8518539   0.8476847   0.6159922  )
        49           Si  tau(  49) = (  -0.0004087   0.2436665   0.7651103  )
        50           Si  tau(  50) = (   0.2518781  -0.0002240   0.7609570  )
        51           Si  tau(  51) = (   0.3874042   0.1043951   0.8940715  )
        52           Si  tau(  52) = (   0.5007725   0.2486078   0.7760464  )
        53           Si  tau(  53) = (   0.7514758   0.0164863   0.7643120  )
        54           Si  tau(  54) = (   0.8769474   0.1281006   0.8808312  )
        55           Si  tau(  55) = (   0.1256575   0.3398318   0.8780698  )
        56           Si  tau(  56) = (   0.2465749   0.4866333   0.7693212  )
        57           Si  tau(  57) = (   0.6086056   0.3692492   0.8724244  )
        58           Si  tau(  58) = (   0.3689100   0.5930347   0.8865207  )
        59           Si  tau(  59) = (   0.7345953   0.4805589   0.7634661  )
        60           Si  tau(  60) = (   0.8532345   0.5976325   0.8733742  )
        61           Si  tau(  61) = (   0.0032415   0.7187651   0.7616305  )
        62           Si  tau(  62) = (   0.1187608   0.8332000   0.9000096  )
        63           Si  tau(  63) = (   0.5015383   0.7063343   0.7607446  )
        64           Si  tau(  64) = (   0.6217292   0.8426718   0.8829599  )

     number of k points=     1  Fermi-Dirac smearing, width (Ry)=  0.0100
                       cart. coord. in units 2pi/alat
        k(    1) = (   0.0000000   0.0000000   0.0000000), wk =   2.0000000

     Dense  grid:    99520 G-vectors     FFT dimensions: (  75,  72,  75)

     Estimated max dynamical RAM per process >     159.44 MB

     Estimated total dynamical RAM >     613.46 MB

     Initial potential from superposition of free atoms

     starting charge     255.9608, renormalised to     256.0000
     Starting wfcs are  256 randomized atomic wfcs

     total cpu time spent up to now is        5.2 secs

     Self-consistent Calculation

     iteration #  1     ecut=    30.00 Ry     beta= 0.50
     Davidson diagonalization with overlap
     ethr =  1.00E-02,  avg # of iterations =  3.0

     Threshold (ethr) on eigenvalues was too large:
     Diagonalizing with lowered threshold

     Davidson diagonalization with overlap
     ethr =  6.86E-04,  avg # of iterations =  4.0

     total cpu time spent up to now is        5.5 secs

     total energy              =    -502.38143146 Ry
     estimated scf accuracy    <       2.00768743 Ry

     iteration #  2     ecut=    30.00 Ry     beta= 0.50
     Davidson diagonalization with overlap
     ethr =  7.84E-04,  avg # of iterations =  2.0

     total cpu time spent up to now is        5.6 secs

     total energy              =    -502.26479363 Ry
     estimated scf accuracy    <       0.88964477 Ry

     iteration #  3     ecut=    30.00 Ry     beta= 0.50
     Davidson diagonalization with overlap
     ethr =  3.48E-04,  avg # of iterations =  9.0

     total cpu time spent up to now is        5.7 secs

     total energy              =    -502.20265239 Ry
     estimated scf accuracy    <       2.34464030 Ry

     iteration #  4     ecut=    30.00 Ry     beta= 0.50
     Davidson diagonalization with overlap
     ethr =  3.48E-04,  avg # of iterations =  5.0

     total cpu time spent up to now is        5.9 secs

     total energy              =    -502.49849927 Ry
     estimated scf accuracy    <       0.11665272 Ry

     iteration #  5     ecut=    30.00 Ry     beta= 0.50
     Davidson diagonalization with overlap
     ethr =  4.56E-05,  avg # of iterations = 12.0

     total cpu time spent up to now is        6.1 secs

     total energy              =    -502.51353791 Ry
     estimated scf accuracy    <       0.04020440 Ry

     iteration #  6     ecut=    30.00 Ry     beta= 0.50
     Davidson diagonalization with overlap
     ethr =  1.57E-05,  avg # of iterations =  4.0

     total cpu time spent up to now is        6.2 secs

     total energy              =    -502.51667945 Ry
     estimated scf accuracy    <       0.01536750 Ry

     iteration #  7     ecut=    30.00 Ry     beta= 0.50
     Davidson diagonalization with overlap
     ethr =  6.00E-06,  avg # of iterations =  3.0

     total cpu time spent up to now is        6.3 secs

     total energy              =    -502.51857670 Ry
     estimated scf accuracy    <       0.00163011 Ry

     iteration #  8     ecut=    30.00 Ry     beta= 0.50
     Davidson diagonalization with overlap
     ethr =  6.37E-07,  avg # of iterations = 15.0

     total cpu time spent up to now is        6.5 secs

     total energy              =    -502.51888440 Ry
     estimated scf accuracy    <       0.00067388 Ry

     iteration #  9     ecut=    30.00 Ry     beta= 0.50
     Davidson diagonalization with overlap
     ethr =  2.63E-07,  avg # of iterations =  3.0

     total cpu time spent up to now is        6.6 secs

     total energy              =    -502.51890944 Ry
     estimated scf accuracy    <       0.00042456 Ry

     iteration # 10     ecut=    30.00 Ry     beta= 0.50
     Davidson diagonalization with overlap
     ethr =  1.66E-07,  avg # of iterations =  2.0

     total cpu time spent up to now is        6.7 secs

     total energy              =    -502.51894420 Ry
     estimated scf accuracy    <       0.00004260 Ry

     iteration # 11     ecut=    30.00 Ry     beta= 0.50
     Davidson diagonalization with overlap
     ethr =  1.66E-08,  avg # of iterations =  5.0

     total cpu time spent up to now is        6.9 secs

     total energy              =    -502.51895342 Ry
     estimated scf accuracy    <       0.00000280 Ry

     iteration # 12     ecut=    30.00 Ry     beta= 0.50
     Davidson diagonalization with overlap
     ethr =  1.10E-09,  avg # of iterations =  4.0

     total cpu time spent up to now is        7.0 secs

     total energy              =    -502.51895434 Ry
     estimated scf accuracy    <       0.00000367 Ry

     iteration # 13     ecut=    30.00 Ry     beta= 0.50
     Davidson diagonalization with overlap
     ethr =  1.10E-09,  avg # of iterations =  3.0

     total cpu time spent up to now is        7.1 secs

     total energy              =    -502.51895454 Ry
     estimated scf accuracy    <       0.00000131 Ry

     iteration # 14     ecut=    30.00 Ry     beta= 0.50
     Davidson diagonalization with overlap
     ethr =  5.11E-10,  avg # of iterations =  3.0

     total cpu time spent up to now is        7.2 secs

     End of self-consistent calculation

          k = 0.0000 0.0000 0.0000 ( 12466 PWs)   bands (ev):

    -6.1523  -5.3736  -5.2021  -5.1842  -5.0865  -4.8690  -4.8142  -4.5506
    -4.4624  -4.3463  -4.2683  -4.2162  -4.1652  -4.0007  -3.9885  -3.8765
    -3.7608  -3.7479  -3.6830  -3.6592  -3.4221  -3.3474  -3.2320  -2.6352
    -2.3690  -2.2319  -2.1841  -2.1193  -2.0574  -1.9531  -1.9374  -1.8471
    -1.7485  -1.6808  -1.6506  -1.6034  -1.5662  -1.5149  -1.4419  -1.3282
    -1.1995  -1.0815  -0.9844  -0.7694  -0.6744  -0.0599   0.0914   0.1762
     0.1997   0.2369   0.3322   0.4442   0.4704   0.5144   0.5231   0.7355
     0.8980   1.6556   1.6857   1.7349   1.8023   1.8295   1.8486   1.8870
     1.9208   1.9634   2.0028   2.0525   2.0799   2.0909   2.1388   2.1770
     2.1967   2.2307   2.2453   2.2585   2.3391   2.3639   2.3867   2.4188
     2.4539   2.5213   2.5342   2.6259   2.6678   2.7019   2.7303   2.8055
     2.9472   3.1459   3.2117   3.3177   3.3992   3.4747   3.6219   3.6621
     3.8541   3.8677   3.8989   3.9613   4.0201   4.0804   4.1304   4.1733
     4.2673   4.2876   4.3414   4.3710   4.4005   4.4709   4.5170   4.5422
     4.6434   4.6605   4.7675   4.8046   4.8821   4.9312   4.9804   5.0307
     5.0987   5.1634   5.2639   5.3473   5.5029   5.6038   5.9119   6.1181
     6.2187   6.3406   6.4086   6.5145   6.5349   6.6138   6.7219   6.8187
     6.8753   6.9105   6.9332   6.9856   7.0106   7.1099   7.1397   7.2579
     7.4818   7.6911   7.7539   7.8110   7.8348   7.9334   8.0390   8.1153
     8.1511   8.1931

     the Fermi energy is     6.1149 ev

!    total energy              =    -502.51895470 Ry
     estimated scf accuracy    <       0.00000009 Ry
     smearing contrib. (-TS)   =      -0.06974208 Ry
     internal energy E=F+TS    =    -502.44921262 Ry

     The total energy is F=E-TS. E is the sum of the following terms:
     one-electron contribution =     135.27434451 Ry
     hartree contribution      =      40.21181007 Ry
     xc contribution           =    -152.95849689 Ry
     ewald contribution        =    -524.97687031 Ry

     convergence has been achieved in  14 iterations

     Forces acting on atoms (cartesian axes, Ry/au):

     atom    1 type  1   force =    -0.08727279    0.05973943    0.06685120
     atom    2 type  1   force =     0.10741880    0.09830251   -0.06657809
     atom    3 type  1   force =     0.00007991    0.00940509   -0.05525008
     atom    4 type  1   force =     0.10308859   -0.00810475    0.03881227
     atom    5 type  1   force =    -0.02712942   -0.00638122    0.08705644
     atom    6 type  1   force =     0.42434195   -0.37810252    0.41881589
     atom    7 type  1   force =     0.01569985    0.01336154    0.05897110
     atom    8 type  1   force =    -0.01848455    0.01325031   -0.01488388
     atom    9 type  1   force =     0.06696565    0.06516053   -0.08012641
     atom   10 type  1   force =     0.02988337    0.01218056    0.01459764
     atom   11 type  1   force =    -0.01539817   -0.08695232   -0.03227173
     atom   12 type  1   force =    -0.01683442    0.12241389    0.01588150
     atom   13 type  1   force =     0.10380379   -0.01439809    0.02692146
     atom   14 type  1   force =     0.02982166   -0.05728290   -0.09842408
     atom   15 type  1   force =     0.00892628    0.02186917    0.13831870
     atom   16 type  1   force =    -0.00534595   -0.04621176    0.03529007
     atom   17 type  1   force =    -0.06297916   -0.01330229   -0.00660745
     atom   18 type  1   force =     0.04933041    0.08615261   -0.03251387
     atom   19 type  1   force =    -0.04877977    0.08129261    0.05191112
     atom   20 type  1   force =    -0.07037546   -0.11081103   -0.04560914
     atom   21 type  1   force =     0.07551904    0.04873797    0.12820970
     atom   22 type  1   force =    -0.02354080    0.00238397   -0.03339767
     atom   23 type  1   force =     0.02986356   -0.11617070    0.02024661
     atom   24 type  1   force =     0.07359414    0.00927577    0.06655180
     atom   25 type  1   force =     0.01290199    0.00953171   -0.08764565
     atom   26 type  1   force =    -0.04385471    0.04489587    0.02911707
     atom   27 type  1   force =     0.00989732    0.06648498   -0.00583491
     atom   28 type  1   force =     0.00863530    0.00974651   -0.03334130
     atom   29 type  1   force =    -0.01560334    0.09853066    0.07105129
     atom   30 type  1   force =     0.01242574   -0.03628407    0.01503172
     atom   31 type  1   force =    -0.08003134   -0.03109796    0.09739138
     atom   32 type  1   force =     0.05079141    0.03751108    0.00652322
     atom   33 type  1   force =    -0.01857432   -0.12434137    0.01017225
     atom   34 type  1   force =    -0.07125688    0.06705000    0.01491570
     atom   35 type  1   force =    -0.14158019   -0.12492844    0.12541868
     atom   36 type  1   force =     0.17250837   -0.22330641   -0.18640979
     atom   37 type  1   force =     0.04195605   -0.06355575   -0.02604110
     atom   38 type  1   force =     0.04252167    0.00390789    0.03348909
     atom   39 type  1   force =    -0.21588809    0.19130680    0.19025080
     atom   40 type  1   force =    -0.05489558    0.01263629    0.01887875
     atom   41 type  1   force =    -0.01348440   -0.06034628    0.04616763
     atom   42 type  1   force =     0.02471560   -0.04543675   -0.05158645
     atom   43 type  1   force =    -0.02360899   -0.07470469    0.04099497
     atom   44 type  1   force =     0.10070671    0.16033364   -0.12296800
     atom   45 type  1   force =    -0.00223494   -0.12775692    0.03080482
     atom   46 type  1   force =     0.00488542   -0.09933861    0.00749082
     atom   47 type  1   force =    -0.02176326   -0.04434323   -0.10797443
     atom   48 type  1   force =     0.04444911   -0.01046578    0.10096553
     atom   49 type  1   force =    -0.03415273   -0.03462997   -0.07677748
     atom   50 type  1   force =    -0.02004392    0.01632238    0.04114200
     atom   51 type  1   force =    -0.44435412    0.46670730   -0.39433765
     atom   52 type  1   force =    -0.09923174   -0.08430201   -0.10935666
     atom   53 type  1   force =    -0.03536337    0.02104037   -0.04567811
     atom   54 type  1   force =    -0.01706899    0.01559027    0.01278020
     atom   55 type  1   force =    -0.01193221    0.13886552   -0.00142108
     atom   56 type  1   force =    -0.03436741   -0.05562378   -0.06401079
     atom   57 type  1   force =     0.10033639   -0.01300610    0.05455919
     atom   58 type  1   force =    -0.01490301    0.08051321   -0.03681056
     atom   59 type  1   force =     0.01506042   -0.00731250   -0.04886970
     atom   60 type  1   force =     0.04207146    0.05594245    0.01426068
     atom   61 type  1   force =    -0.04380953    0.00156239   -0.01788937
     atom   62 type  1   force =     0.07254755   -0.05863294   -0.12107954
     atom   63 type  1   force =     0.00040264    0.01321077   -0.03069736
     atom   64 type  1   force =    -0.04100659    0.00191510   -0.09544897

     Total force =     1.402599     Total SCF correction =     0.000435


     Computing stress (Cartesian axis) and pressure

          total   stress  (Ry/bohr**3)                   (kbar)     P=       26.79
   0.00015691  -0.00003529  -0.00011313           23.08       -5.19      -16.64
  -0.00003529   0.00025686  -0.00003669           -5.19       37.79       -5.40
  -0.00011313  -0.00003669   0.00013257          -16.64       -5.40       19.50

 
     init_run     :      1.17s CPU      5.10s WALL (       1 calls)
     electrons    :      1.92s CPU      2.05s WALL (       1 calls)
     forces       :      0.05s CPU      0.05s WALL (       1 calls)
     stress       :      0.16s CPU      0.17s WALL (       1 calls)

     Called by init_run:
     wfcinit      :      0.54s CPU      4.27s WALL (       1 calls)
                                        4.27s GPU  (       1 calls)
     potinit      :      0.20s CPU      0.31s WALL (       1 calls)
     hinit0       :      0.41s CPU      0.45s WALL (       1 calls)

     Called by electrons:
     c_bands      :      1.23s CPU      1.29s WALL (      15 calls)
     sum_band     :      0.35s CPU      0.39s WALL (      15 calls)
     v_of_rho     :      0.16s CPU      0.28s WALL (      15 calls)
     mix_rho      :      0.14s CPU      0.16s WALL (      15 calls)

     Called by c_bands:
     init_us_2    :      0.05s CPU      0.06s WALL (      31 calls)
     init_us_2:gp :      0.05s CPU      0.06s WALL (      31 calls)
     regterg      :      1.10s CPU      1.16s WALL (      15 calls)

     Called by *egterg:
     rdiaghg      :      0.45s CPU      1.21s WALL (      91 calls)
                                        1.19s GPU  (      91 calls)
     h_psi        :      1.01s CPU      4.01s WALL (      93 calls)
                                        4.01s GPU  (      93 calls)
     g_psi        :      0.00s CPU      0.00s WALL (      77 calls)
                                        0.00s GPU  (      77 calls)

     Called by h_psi:
     h_psi:calbec :      0.49s CPU      3.41s WALL (      93 calls)
                                        3.41s GPU  (      93 calls)
     vloc_psi     :      0.46s CPU      0.54s WALL (      93 calls)
                                        0.54s GPU  (      93 calls)
     add_vuspsi   :      0.04s CPU      0.05s WALL (      93 calls)
                                        0.05s GPU  (      93 calls)

     General routines
     calbec       :      0.50s CPU      3.41s WALL (      98 calls)
     fft          :      0.53s CPU      0.67s WALL (     127 calls)
                                        0.14s GPU  (      81 calls)
     ffts         :      0.05s CPU      0.05s WALL (      15 calls)
     fftw         :      0.51s CPU      0.68s WALL (    1643 calls)
                                        0.61s GPU  (    1643 calls)
 
     Parallel routines
 
     PWSCF        :      3.34s CPU      7.46s WALL

 
   This run was terminated on:  11:45:36  10May2023            

=------------------------------------------------------------------------------=
   JOB DONE.
=------------------------------------------------------------------------------=
