An instance of this daemon is already running

     Program PWSCF v.7.1 starts on 10May2023 at 11:44: 2 

     This program is part of the open-source Quantum ESPRESSO suite
     for quantum simulation of materials; please cite
         "P. Giannozzi et al., J. Phys.:Condens. Matter 21 395502 (2009);
         "P. Giannozzi et al., J. Phys.:Condens. Matter 29 465901 (2017);
         "P. Giannozzi et al., J. Chem. Phys. 152 154105 (2020);
          URL http://www.quantum-espresso.org", 
     in publications or presentations arising from this work. More details at
     http://www.quantum-espresso.org/quote

     Parallel version (MPI & OpenMP), running on       4 processor cores
     Number of MPI processes:                 4
     Threads/MPI process:                     1

     MPI processes distributed on     1 nodes
     707046 MiB available memory on the printing compute node when the environment starts
 
     Reading input from pw-si-85.in
Warning: card &CELL ignored
Warning: card / ignored

     Current dimensions of program PWSCF are:
     Max number of different atomic species (ntypx) = 10
     Max number of k-points (npk) =  40000
     Max angular momentum in pseudopotentials (lmaxx) =  4

     IMPORTANT: XC functional enforced from input :
     Exchange-correlation= PBE
                           (   1   4   3   4   0   0   0)
     Any further DFT definition will be discarded
     Please, verify this is what you really want


     gamma-point specific algorithms are used
 
     K-points division:     npool     =       2
     R & G space division:  proc/nbgrp/npool/nimage =       2
     Subspace diagonalization in iterative solution of the eigenvalue problem:
     a serial algorithm will be used

     Message from routine divide_et_impera:
     suboptimal parallelization: some nodes have no k-points
 
     Parallelization info
     --------------------
     sticks:   dense  smooth     PW     G-vecs:    dense   smooth      PW
     Min        2088    2088    555                98051    98051   13323
     Max        2089    2089    560                98052    98052   13324
     Sum        4177    4177   1115               196103   196103   26647
 
     Using Slab Decomposition
 


     bravais-lattice index     =            0
     lattice parameter (alat)  =      20.5872  a.u.
     unit-cell volume          =    8836.8039 (a.u.)^3
     number of atoms/cell      =           64
     number of atomic types    =            1
     number of electrons       =       256.00
     number of Kohn-Sham states=          154
     kinetic-energy cutoff     =      30.0000  Ry
     charge density cutoff     =     120.0000  Ry
     scf convergence threshold =      1.0E-06
     mixing beta               =       0.5000
     number of iterations used =            8  plain     mixing
     Exchange-correlation= PBE
                           (   1   4   3   4   0   0   0)

     GPU acceleration is ACTIVE.
     GPU-aware MPI enabled

     Message from routine print_cuda_info:
     High GPU oversubscription detected. Are you sure this is what you want?

     celldm(1)=  20.587204  celldm(2)=   0.000000  celldm(3)=   0.000000
     celldm(4)=   0.000000  celldm(5)=   0.000000  celldm(6)=   0.000000

     crystal axes: (cart. coord. in units of alat)
               a(1) = (   1.000000   0.000000   0.000000 )  
               a(2) = (   0.000000   1.033632   0.000000 )  
               a(3) = (   0.000000   0.000000   0.979799 )  

     reciprocal axes: (cart. coord. in units 2 pi/alat)
               b(1) = (  1.000000  0.000000  0.000000 )  
               b(2) = (  0.000000  0.967462  0.000000 )  
               b(3) = (  0.000000  0.000000  1.020617 )  


     PseudoPot. # 1 for Si read from file:
     /home/ppiaggi/pseudos/Si_ONCV_PBE_sr.upf
     MD5 check sum: 8553c464762ac42b85b1eed164b4d029
     Pseudo is Norm-conserving, Zval =  4.0
     Generated using ONCVPSP code by D. R. Hamann
     Using radial grid of 1510 points,  4 beta functions with: 
                l(1) =   0
                l(2) =   0
                l(3) =   1
                l(4) =   1

     atomic species   valence    mass     pseudopotential
        Si             4.00    28.08500     Si( 1.00)

     No symmetry found



   Cartesian axes

     site n.     atom                  positions (alat units)
         1           Si  tau(   1) = (   0.0093969   0.0131181  -0.0125537  )
         2           Si  tau(   2) = (   0.0013502   0.2602594   0.2425446  )
         3           Si  tau(   3) = (   0.2535344  -0.0145800   0.2479120  )
         4           Si  tau(   4) = (   0.2361930   0.2472569  -0.0096125  )
         5           Si  tau(   5) = (   0.1142837   0.1240835   0.1146508  )
         6           Si  tau(   6) = (   0.4946944  -0.0049566  -0.0019492  )
         7           Si  tau(   7) = (   0.5084186   0.2371465   0.2488837  )
         8           Si  tau(   8) = (   0.6140527   0.1255168   0.1094540  )
         9           Si  tau(   9) = (   0.7333247   0.0021593   0.2558928  )
        10           Si  tau(  10) = (   0.7559688   0.2431074  -0.0143835  )
        11           Si  tau(  11) = (   0.0118005   0.4914930  -0.0031334  )
        12           Si  tau(  12) = (   0.2420987   0.5154279   0.2413219  )
        13           Si  tau(  13) = (   0.1108905   0.6176701   0.1394770  )
        14           Si  tau(  14) = (   0.3893778   0.3765020   0.1276574  )
        15           Si  tau(  15) = (   0.5023465   0.5092896  -0.0046286  )
        16           Si  tau(  16) = (   0.6402948   0.6113510   0.1386279  )
        17           Si  tau(  17) = (   0.8641783   0.3701629   0.1422891  )
        18           Si  tau(  18) = (   0.7646691   0.4977853   0.2428219  )
        19           Si  tau(  19) = (   0.0113654   0.7401517   0.2617754  )
        20           Si  tau(  20) = (   0.2498651   0.7365181   0.0051015  )
        21           Si  tau(  21) = (   0.3831214   0.8877305   0.1133880  )
        22           Si  tau(  22) = (   0.4811066   0.7376765   0.2584718  )
        23           Si  tau(  23) = (   0.7434162   0.7710732  -0.0073397  )
        24           Si  tau(  24) = (   0.8816740   0.8880580   0.1420919  )
        25           Si  tau(  25) = (   0.0006879   0.0134832   0.5001942  )
        26           Si  tau(  26) = (   0.2437994   0.2666351   0.4820787  )
        27           Si  tau(  27) = (   0.1141309   0.1134770   0.6140826  )
        28           Si  tau(  28) = (   0.3631531   0.1258611   0.3714349  )
        29           Si  tau(  29) = (   0.5023683   0.0008002   0.5060001  )
        30           Si  tau(  30) = (   0.6369129   0.1395870   0.6405896  )
        31           Si  tau(  31) = (   0.8656342   0.1410479   0.3916651  )
        32           Si  tau(  32) = (   0.7433028   0.2540485   0.4951560  )
        33           Si  tau(  33) = (   0.1304345   0.3695228   0.3653624  )
        34           Si  tau(  34) = (  -0.0036550   0.4952389   0.4960913  )
        35           Si  tau(  35) = (   0.1114755   0.6309220   0.6236446  )
        36           Si  tau(  36) = (   0.6110699   0.3914370   0.3632753  )
        37           Si  tau(  37) = (   0.3748321   0.6278662   0.3800718  )
        38           Si  tau(  38) = (   0.3632057   0.3792223   0.6225291  )
        39           Si  tau(  39) = (   0.4984106   0.4958176   0.4823581  )
        40           Si  tau(  40) = (   0.6221097   0.6324149   0.6192695  )
        41           Si  tau(  41) = (   0.8868905   0.6322237   0.3699074  )
        42           Si  tau(  42) = (   0.8869364   0.3774883   0.6337784  )
        43           Si  tau(  43) = (   0.1120247   0.8863353   0.3683875  )
        44           Si  tau(  44) = (   0.2365632   0.7486757   0.5067797  )
        45           Si  tau(  45) = (   0.6199424   0.8750449   0.3782473  )
        46           Si  tau(  46) = (   0.3749155   0.8788153   0.6276956  )
        47           Si  tau(  47) = (   0.7504124   0.7374816   0.5147470  )
        48           Si  tau(  48) = (   0.8856296   0.8709340   0.6238524  )
        49           Si  tau(  49) = (  -0.0061352   0.2667076   0.7483428  )
        50           Si  tau(  50) = (   0.2474131  -0.0174481   0.7465719  )
        51           Si  tau(  51) = (   0.3650158   0.1087377   0.8926718  )
        52           Si  tau(  52) = (   0.5021449   0.2630054   0.7438335  )
        53           Si  tau(  53) = (   0.7332151  -0.0056178   0.7473979  )
        54           Si  tau(  54) = (   0.8675775   0.1423494   0.8883092  )
        55           Si  tau(  55) = (   0.1339468   0.3805348   0.8710285  )
        56           Si  tau(  56) = (   0.2594754   0.5134571   0.7403465  )
        57           Si  tau(  57) = (   0.6151520   0.3866670   0.8762504  )
        58           Si  tau(  58) = (   0.3692446   0.6226370   0.8924999  )
        59           Si  tau(  59) = (   0.7487975   0.5098254   0.7522279  )
        60           Si  tau(  60) = (   0.8859681   0.6296810   0.8783894  )
        61           Si  tau(  61) = (  -0.0066819   0.7359332   0.7455615  )
        62           Si  tau(  62) = (   0.1236196   0.8849985   0.8861208  )
        63           Si  tau(  63) = (   0.5059695   0.7355459   0.7590253  )
        64           Si  tau(  64) = (   0.6128922   0.8778082   0.8875910  )

     number of k points=     1  Fermi-Dirac smearing, width (Ry)=  0.0100
                       cart. coord. in units 2pi/alat
        k(    1) = (   0.0000000   0.0000000   0.0000000), wk =   2.0000000

     Dense  grid:    98052 G-vectors     FFT dimensions: (  72,  75,  72)

     Estimated max dynamical RAM per process >     156.67 MB

     Estimated total dynamical RAM >     602.75 MB

     Initial potential from superposition of free atoms

     starting charge     255.9608, renormalised to     256.0000
     Starting wfcs are  256 randomized atomic wfcs

     total cpu time spent up to now is        5.2 secs

     Self-consistent Calculation

     iteration #  1     ecut=    30.00 Ry     beta= 0.50
     Davidson diagonalization with overlap
     ethr =  1.00E-02,  avg # of iterations =  3.0

     Threshold (ethr) on eigenvalues was too large:
     Diagonalizing with lowered threshold

     Davidson diagonalization with overlap
     ethr =  7.00E-04,  avg # of iterations =  4.0

     total cpu time spent up to now is        5.4 secs

     total energy              =    -502.36523808 Ry
     estimated scf accuracy    <       2.03451463 Ry

     iteration #  2     ecut=    30.00 Ry     beta= 0.50
     Davidson diagonalization with overlap
     ethr =  7.95E-04,  avg # of iterations =  4.0

     total cpu time spent up to now is        5.6 secs

     total energy              =    -502.17503569 Ry
     estimated scf accuracy    <       1.20510211 Ry

     iteration #  3     ecut=    30.00 Ry     beta= 0.50
     Davidson diagonalization with overlap
     ethr =  4.71E-04,  avg # of iterations =  8.0

     total cpu time spent up to now is        5.7 secs

     total energy              =    -502.14622507 Ry
     estimated scf accuracy    <       2.74091653 Ry

     iteration #  4     ecut=    30.00 Ry     beta= 0.50
     Davidson diagonalization with overlap
     ethr =  4.71E-04,  avg # of iterations =  3.0

     total cpu time spent up to now is        5.8 secs

     total energy              =    -502.46130854 Ry
     estimated scf accuracy    <       0.31493731 Ry

     iteration #  5     ecut=    30.00 Ry     beta= 0.50
     Davidson diagonalization with overlap
     ethr =  1.23E-04,  avg # of iterations = 12.0

     total cpu time spent up to now is        6.0 secs

     total energy              =    -502.49566874 Ry
     estimated scf accuracy    <       0.08718966 Ry

     iteration #  6     ecut=    30.00 Ry     beta= 0.50
     Davidson diagonalization with overlap
     ethr =  3.41E-05,  avg # of iterations = 10.0

     total cpu time spent up to now is        6.1 secs

     total energy              =    -502.50266218 Ry
     estimated scf accuracy    <       0.02304344 Ry

     iteration #  7     ecut=    30.00 Ry     beta= 0.50
     Davidson diagonalization with overlap
     ethr =  9.00E-06,  avg # of iterations = 15.0

     total cpu time spent up to now is        6.3 secs

     total energy              =    -502.50538624 Ry
     estimated scf accuracy    <       0.00149439 Ry

     iteration #  8     ecut=    30.00 Ry     beta= 0.50
     Davidson diagonalization with overlap
     ethr =  5.84E-07,  avg # of iterations =  5.0

     total cpu time spent up to now is        6.4 secs

     total energy              =    -502.50569933 Ry
     estimated scf accuracy    <       0.00242210 Ry

     iteration #  9     ecut=    30.00 Ry     beta= 0.50
     Davidson diagonalization with overlap
     ethr =  5.84E-07,  avg # of iterations =  3.0

     total cpu time spent up to now is        6.6 secs

     total energy              =    -502.50588913 Ry
     estimated scf accuracy    <       0.00060207 Ry

     iteration # 10     ecut=    30.00 Ry     beta= 0.50
     Davidson diagonalization with overlap
     ethr =  2.35E-07,  avg # of iterations =  2.0

     total cpu time spent up to now is        6.7 secs

     total energy              =    -502.50593654 Ry
     estimated scf accuracy    <       0.00005211 Ry

     iteration # 11     ecut=    30.00 Ry     beta= 0.50
     Davidson diagonalization with overlap
     ethr =  2.04E-08,  avg # of iterations =  5.0

     total cpu time spent up to now is        6.8 secs

     total energy              =    -502.50594948 Ry
     estimated scf accuracy    <       0.00001969 Ry

     iteration # 12     ecut=    30.00 Ry     beta= 0.50
     Davidson diagonalization with overlap
     ethr =  7.69E-09,  avg # of iterations =  3.0

     total cpu time spent up to now is        6.9 secs

     total energy              =    -502.50595164 Ry
     estimated scf accuracy    <       0.00001045 Ry

     iteration # 13     ecut=    30.00 Ry     beta= 0.50
     Davidson diagonalization with overlap
     ethr =  4.08E-09,  avg # of iterations =  2.0

     total cpu time spent up to now is        7.0 secs

     total energy              =    -502.50595240 Ry
     estimated scf accuracy    <       0.00000167 Ry

     iteration # 14     ecut=    30.00 Ry     beta= 0.50
     Davidson diagonalization with overlap
     ethr =  6.54E-10,  avg # of iterations =  5.0

     total cpu time spent up to now is        7.1 secs

     End of self-consistent calculation

          k = 0.0000 0.0000 0.0000 ( 12269 PWs)   bands (ev):

    -6.1115  -5.3020  -5.2115  -5.1061  -4.9266  -4.9151  -4.8559  -4.4697
    -4.4075  -4.2700  -4.2158  -4.1422  -4.1241  -3.9920  -3.9098  -3.8617
    -3.7849  -3.7061  -3.6097  -3.5036  -3.4140  -3.3394  -3.0111  -2.3981
    -2.2931  -2.1956  -2.1793  -2.1241  -2.0407  -1.9243  -1.7586  -1.6854
    -1.6240  -1.5786  -1.5140  -1.4590  -1.3997  -1.3698  -1.2474  -1.1058
    -1.0273  -0.9890  -0.9297  -0.7536  -0.6165   0.0469   0.2147   0.2298
     0.2996   0.4238   0.4822   0.4928   0.5477   0.6536   0.7710   0.8202
     0.9460   1.6567   1.6864   1.7342   1.8160   1.8508   1.8582   1.9247
     1.9684   2.0200   2.0448   2.0958   2.1217   2.1436   2.1897   2.2306
     2.2882   2.3736   2.4240   2.4596   2.5233   2.5276   2.5678   2.5923
     2.6384   2.6862   2.7479   2.7520   2.8506   2.8635   2.9280   2.9686
     3.1262   3.2020   3.2370   3.2922   3.3273   3.5992   3.6995   3.8086
     3.8338   3.9831   4.0426   4.1123   4.1729   4.2365   4.2953   4.2981
     4.3767   4.4338   4.5185   4.5526   4.6014   4.6295   4.6469   4.7301
     4.7855   4.8524   4.8845   4.9314   4.9727   5.0501   5.0607   5.0827
     5.1586   5.2570   5.3926   5.5061   5.8193   5.9014   6.0251   6.2553
     6.3454   6.4572   6.4936   6.5680   6.6537   6.7599   6.8298   6.8995
     6.9443   6.9812   7.0527   7.1336   7.1737   7.3138   7.3791   7.4532
     7.6346   7.7275   7.8324   7.9876   8.0772   8.0943   8.1544   8.1933
     8.2862   8.3758

     the Fermi energy is     6.2427 ev

!    total energy              =    -502.50595268 Ry
     estimated scf accuracy    <       0.00000019 Ry
     smearing contrib. (-TS)   =      -0.07875523 Ry
     internal energy E=F+TS    =    -502.42719745 Ry

     The total energy is F=E-TS. E is the sum of the following terms:
     one-electron contribution =     135.45660995 Ry
     hartree contribution      =      41.42268749 Ry
     xc contribution           =    -153.46262879 Ry
     ewald contribution        =    -525.84386610 Ry

     convergence has been achieved in  14 iterations

     Forces acting on atoms (cartesian axes, Ry/au):

     atom    1 type  1   force =    -0.05020499   -0.09983958    0.01827110
     atom    2 type  1   force =    -0.00318727   -0.08280366    0.04282956
     atom    3 type  1   force =    -0.03640399   -0.00850760   -0.03418536
     atom    4 type  1   force =     0.07601391   -0.02137313    0.11208040
     atom    5 type  1   force =     0.06125896    0.01532904    0.09446282
     atom    6 type  1   force =     0.06159151   -0.07921589    0.05707486
     atom    7 type  1   force =    -0.04484342    0.03758750    0.01038900
     atom    8 type  1   force =     0.06709734   -0.02139250    0.02340460
     atom    9 type  1   force =     0.03535998   -0.02932621   -0.00030523
     atom   10 type  1   force =    -0.31412690    0.28246508    0.26217332
     atom   11 type  1   force =    -0.09549674    0.04121771    0.10694280
     atom   12 type  1   force =     0.10840352   -0.09429036    0.06740185
     atom   13 type  1   force =     0.01133905    0.02976943   -0.11796770
     atom   14 type  1   force =    -0.05671429   -0.00339944   -0.00949779
     atom   15 type  1   force =     0.02927202   -0.01363588    0.15770832
     atom   16 type  1   force =    -0.09423805    0.11474708   -0.07710842
     atom   17 type  1   force =     0.06979468   -0.06620132   -0.16414344
     atom   18 type  1   force =    -0.04271917    0.06026670    0.13418328
     atom   19 type  1   force =    -0.03665989    0.11262408   -0.04846932
     atom   20 type  1   force =    -0.10543552    0.13459556    0.11207756
     atom   21 type  1   force =    -0.03860737   -0.03809541    0.06174303
     atom   22 type  1   force =     0.11708842    0.09658495   -0.09402444
     atom   23 type  1   force =     0.14019754   -0.10939571    0.15107158
     atom   24 type  1   force =    -0.02680039    0.02556490   -0.02958078
     atom   25 type  1   force =    -0.10298412   -0.15774102   -0.09634417
     atom   26 type  1   force =     0.05063201   -0.11700476    0.10441809
     atom   27 type  1   force =     0.11689960    0.11711941    0.12061519
     atom   28 type  1   force =     0.04623834   -0.02493289    0.01810340
     atom   29 type  1   force =    -0.00870274   -0.02859302   -0.00725116
     atom   30 type  1   force =    -0.05308517   -0.02012472   -0.06261969
     atom   31 type  1   force =     0.05667314   -0.07625643   -0.10571085
     atom   32 type  1   force =    -0.04300688    0.09542951    0.06114039
     atom   33 type  1   force =    -0.07410025    0.11350802   -0.05073443
     atom   34 type  1   force =     0.03397236    0.00576814   -0.01808184
     atom   35 type  1   force =     0.04861506   -0.06762469   -0.02196424
     atom   36 type  1   force =     0.11102725   -0.10180213   -0.04699140
     atom   37 type  1   force =    -0.11182558   -0.03010288    0.04494061
     atom   38 type  1   force =     0.05665304   -0.01874077   -0.04075814
     atom   39 type  1   force =    -0.05367079    0.05846104    0.12292671
     atom   40 type  1   force =    -0.04300159   -0.10357513    0.03995500
     atom   41 type  1   force =    -0.09119537   -0.06521405    0.08071523
     atom   42 type  1   force =    -0.13194029    0.06862266   -0.08406927
     atom   43 type  1   force =     0.05944689    0.05247505    0.05529602
     atom   44 type  1   force =     0.03449961    0.06266217   -0.04070569
     atom   45 type  1   force =    -0.00366851    0.02718158    0.01882369
     atom   46 type  1   force =     0.01143925    0.00739337    0.00847581
     atom   47 type  1   force =     0.06475400    0.10301673   -0.10923419
     atom   48 type  1   force =    -0.04032972    0.07105287   -0.00159056
     atom   49 type  1   force =     0.08408666   -0.12717021    0.06265225
     atom   50 type  1   force =    -0.00501863   -0.00330971    0.00466188
     atom   51 type  1   force =    -0.04885889    0.06416836   -0.15679650
     atom   52 type  1   force =    -0.04953791   -0.03245058    0.03416351
     atom   53 type  1   force =     0.07318810   -0.06273200    0.05093448
     atom   54 type  1   force =     0.26928709   -0.27879802   -0.28497194
     atom   55 type  1   force =     0.01180076    0.01615330   -0.13808001
     atom   56 type  1   force =    -0.05294908    0.01203397    0.03270888
     atom   57 type  1   force =     0.08772227   -0.07010611   -0.08548888
     atom   58 type  1   force =     0.03523707   -0.01466021   -0.17046005
     atom   59 type  1   force =     0.01304917   -0.00990760   -0.01321292
     atom   60 type  1   force =    -0.07863626   -0.01290118    0.01116243
     atom   61 type  1   force =     0.02567044    0.11425418    0.03524461
     atom   62 type  1   force =    -0.00540842   -0.01553847   -0.07006354
     atom   63 type  1   force =    -0.05323889    0.06891275   -0.00072596
     atom   64 type  1   force =    -0.07171200    0.09779810   -0.13761434

     Total force =     1.216086     Total SCF correction =     0.000662


     Computing stress (Cartesian axis) and pressure

          total   stress  (Ry/bohr**3)                   (kbar)     P=       41.01
   0.00037571  -0.00036790  -0.00003764           55.27      -54.12       -5.54
  -0.00036790   0.00018834   0.00004650          -54.12       27.71        6.84
  -0.00003764   0.00004650   0.00027223           -5.54        6.84       40.05

 
     init_run     :      1.18s CPU      5.09s WALL (       1 calls)
     electrons    :      1.82s CPU      1.95s WALL (       1 calls)
     forces       :      0.04s CPU      0.05s WALL (       1 calls)
     stress       :      0.16s CPU      0.17s WALL (       1 calls)

     Called by init_run:
     wfcinit      :      0.55s CPU      4.27s WALL (       1 calls)
                                        4.27s GPU  (       1 calls)
     potinit      :      0.20s CPU      0.30s WALL (       1 calls)
     hinit0       :      0.41s CPU      0.44s WALL (       1 calls)

     Called by electrons:
     c_bands      :      1.16s CPU      1.21s WALL (      15 calls)
     sum_band     :      0.34s CPU      0.38s WALL (      15 calls)
     v_of_rho     :      0.16s CPU      0.27s WALL (      15 calls)
     mix_rho      :      0.14s CPU      0.16s WALL (      15 calls)

     Called by c_bands:
     init_us_2    :      0.05s CPU      0.06s WALL (      31 calls)
     init_us_2:gp :      0.05s CPU      0.06s WALL (      31 calls)
     regterg      :      1.03s CPU      1.08s WALL (      15 calls)

     Called by *egterg:
     rdiaghg      :      0.44s CPU      1.22s WALL (      98 calls)
                                        1.20s GPU  (      98 calls)
     h_psi        :      0.96s CPU      3.94s WALL (     100 calls)
                                        3.94s GPU  (     100 calls)
     g_psi        :      0.00s CPU      0.00s WALL (      84 calls)
                                        0.00s GPU  (      84 calls)

     Called by h_psi:
     h_psi:calbec :      0.52s CPU      3.42s WALL (     100 calls)
                                        3.42s GPU  (     100 calls)
     vloc_psi     :      0.38s CPU      0.45s WALL (     100 calls)
                                        0.45s GPU  (     100 calls)
     add_vuspsi   :      0.04s CPU      0.06s WALL (     100 calls)
                                        0.06s GPU  (     100 calls)

     General routines
     calbec       :      0.52s CPU      3.42s WALL (     105 calls)
     fft          :      0.51s CPU      0.65s WALL (     127 calls)
                                        0.14s GPU  (      81 calls)
     ffts         :      0.04s CPU      0.05s WALL (      15 calls)
     fftw         :      0.44s CPU      0.60s WALL (    1649 calls)
                                        0.53s GPU  (    1649 calls)
 
     Parallel routines
 
     PWSCF        :      3.25s CPU      7.34s WALL

 
   This run was terminated on:  11:44: 9  10May2023            

=------------------------------------------------------------------------------=
   JOB DONE.
=------------------------------------------------------------------------------=
