An instance of this daemon is already running
An instance of this daemon is already running

     Program PWSCF v.7.1 starts on 10May2023 at 11:43:13 

     This program is part of the open-source Quantum ESPRESSO suite
     for quantum simulation of materials; please cite
         "P. Giannozzi et al., J. Phys.:Condens. Matter 21 395502 (2009);
         "P. Giannozzi et al., J. Phys.:Condens. Matter 29 465901 (2017);
         "P. Giannozzi et al., J. Chem. Phys. 152 154105 (2020);
          URL http://www.quantum-espresso.org", 
     in publications or presentations arising from this work. More details at
     http://www.quantum-espresso.org/quote

     Parallel version (MPI & OpenMP), running on       4 processor cores
     Number of MPI processes:                 4
     Threads/MPI process:                     1

     MPI processes distributed on     1 nodes
     707071 MiB available memory on the printing compute node when the environment starts
 
     Reading input from pw-si-80.in
Warning: card &CELL ignored
Warning: card / ignored

     Current dimensions of program PWSCF are:
     Max number of different atomic species (ntypx) = 10
     Max number of k-points (npk) =  40000
     Max angular momentum in pseudopotentials (lmaxx) =  4

     IMPORTANT: XC functional enforced from input :
     Exchange-correlation= PBE
                           (   1   4   3   4   0   0   0)
     Any further DFT definition will be discarded
     Please, verify this is what you really want


     gamma-point specific algorithms are used
 
     K-points division:     npool     =       2
     R & G space division:  proc/nbgrp/npool/nimage =       2
     Subspace diagonalization in iterative solution of the eigenvalue problem:
     a serial algorithm will be used

     Message from routine divide_et_impera:
     suboptimal parallelization: some nodes have no k-points
 
     Parallelization info
     --------------------
     sticks:   dense  smooth     PW     G-vecs:    dense   smooth      PW
     Min        2117    2117    557               105335   105335   14290
     Max        2118    2118    558               105338   105338   14291
     Sum        4235    4235   1115               210673   210673   28581
 
     Using Slab Decomposition
 


     bravais-lattice index     =            0
     lattice parameter (alat)  =      21.3209  a.u.
     unit-cell volume          =    9495.6256 (a.u.)^3
     number of atoms/cell      =           64
     number of atomic types    =            1
     number of electrons       =       256.00
     number of Kohn-Sham states=          154
     kinetic-energy cutoff     =      30.0000  Ry
     charge density cutoff     =     120.0000  Ry
     scf convergence threshold =      1.0E-06
     mixing beta               =       0.5000
     number of iterations used =            8  plain     mixing
     Exchange-correlation= PBE
                           (   1   4   3   4   0   0   0)

     GPU acceleration is ACTIVE.
     GPU-aware MPI enabled

     Message from routine print_cuda_info:
     High GPU oversubscription detected. Are you sure this is what you want?

     celldm(1)=  21.320928  celldm(2)=   0.000000  celldm(3)=   0.000000
     celldm(4)=   0.000000  celldm(5)=   0.000000  celldm(6)=   0.000000

     crystal axes: (cart. coord. in units of alat)
               a(1) = (   1.000000   0.000000   0.000000 )  
               a(2) = (   0.000000   0.975621   0.000000 )  
               a(3) = (   0.000000   0.000000   1.004210 )  

     reciprocal axes: (cart. coord. in units 2 pi/alat)
               b(1) = (  1.000000  0.000000  0.000000 )  
               b(2) = (  0.000000  1.024989  0.000000 )  
               b(3) = (  0.000000  0.000000  0.995808 )  


     PseudoPot. # 1 for Si read from file:
     /home/ppiaggi/pseudos/Si_ONCV_PBE_sr.upf
     MD5 check sum: 8553c464762ac42b85b1eed164b4d029
     Pseudo is Norm-conserving, Zval =  4.0
     Generated using ONCVPSP code by D. R. Hamann
     Using radial grid of 1510 points,  4 beta functions with: 
                l(1) =   0
                l(2) =   0
                l(3) =   1
                l(4) =   1

     atomic species   valence    mass     pseudopotential
        Si             4.00    28.08500     Si( 1.00)

     No symmetry found



   Cartesian axes

     site n.     atom                  positions (alat units)
         1           Si  tau(   1) = (   0.0046349   0.0020638   0.0160159  )
         2           Si  tau(   2) = (   0.0004461   0.2315078   0.2374354  )
         3           Si  tau(   3) = (   0.2427225  -0.0028231   0.2536672  )
         4           Si  tau(   4) = (   0.2393185   0.2408523  -0.0101477  )
         5           Si  tau(   5) = (   0.1284720   0.1091002   0.1368972  )
         6           Si  tau(   6) = (   0.5148097   0.0036437  -0.0128624  )
         7           Si  tau(   7) = (   0.5227356   0.2309578   0.2654975  )
         8           Si  tau(   8) = (   0.6436925   0.1064761   0.1246580  )
         9           Si  tau(   9) = (   0.7596111   0.0148500   0.2434212  )
        10           Si  tau(  10) = (   0.7525924   0.2321769   0.0121383  )
        11           Si  tau(  11) = (  -0.0166102   0.4693964  -0.0089092  )
        12           Si  tau(  12) = (   0.2564149   0.4724454   0.2334732  )
        13           Si  tau(  13) = (   0.1264413   0.5951506   0.1352291  )
        14           Si  tau(  14) = (   0.3690683   0.3346791   0.1402301  )
        15           Si  tau(  15) = (   0.5162608   0.4536058  -0.0002106  )
        16           Si  tau(  16) = (   0.6275056   0.5806095   0.1358957  )
        17           Si  tau(  17) = (   0.9035248   0.3367180   0.1074074  )
        18           Si  tau(  18) = (   0.7484639   0.4563699   0.2528738  )
        19           Si  tau(  19) = (  -0.0137408   0.6849450   0.2390877  )
        20           Si  tau(  20) = (   0.2436647   0.7170921   0.0016586  )
        21           Si  tau(  21) = (   0.3809450   0.8184424   0.1344750  )
        22           Si  tau(  22) = (   0.5183587   0.6939519   0.2432892  )
        23           Si  tau(  23) = (   0.7764493   0.7123362   0.0071511  )
        24           Si  tau(  24) = (   0.8960037   0.8333123   0.1204059  )
        25           Si  tau(  25) = (   0.0139666   0.0031065   0.4968503  )
        26           Si  tau(  26) = (   0.2548453   0.2229697   0.4984102  )
        27           Si  tau(  27) = (   0.1318305   0.1148682   0.6335155  )
        28           Si  tau(  28) = (   0.3947217   0.1003844   0.3636213  )
        29           Si  tau(  29) = (   0.5240150  -0.0006137   0.5033906  )
        30           Si  tau(  30) = (   0.6474550   0.1268865   0.6410011  )
        31           Si  tau(  31) = (   0.8686824   0.1205123   0.3762498  )
        32           Si  tau(  32) = (   0.7525811   0.2439217   0.5040793  )
        33           Si  tau(  33) = (   0.1260594   0.3479514   0.3593570  )
        34           Si  tau(  34) = (  -0.0020929   0.4645152   0.4914579  )
        35           Si  tau(  35) = (   0.1242582   0.5936536   0.6456489  )
        36           Si  tau(  36) = (   0.6167965   0.3441502   0.3631675  )
        37           Si  tau(  37) = (   0.3680206   0.5809066   0.3691322  )
        38           Si  tau(  38) = (   0.3663702   0.3624579   0.6223428  )
        39           Si  tau(  39) = (   0.5027314   0.4777314   0.4881472  )
        40           Si  tau(  40) = (   0.6209908   0.5773140   0.6181712  )
        41           Si  tau(  41) = (   0.8947575   0.5763356   0.3929612  )
        42           Si  tau(  42) = (   0.9000982   0.3381209   0.6107213  )
        43           Si  tau(  43) = (   0.1092206   0.8038457   0.3881376  )
        44           Si  tau(  44) = (   0.2535252   0.7167844   0.5163834  )
        45           Si  tau(  45) = (   0.6398507   0.8099205   0.3861062  )
        46           Si  tau(  46) = (   0.3904454   0.8047652   0.6209060  )
        47           Si  tau(  47) = (   0.7627404   0.6927274   0.4880387  )
        48           Si  tau(  48) = (   0.8805648   0.8143314   0.6324751  )
        49           Si  tau(  49) = (  -0.0151356   0.2249183   0.7588014  )
        50           Si  tau(  50) = (   0.2447618   0.0160345   0.7651922  )
        51           Si  tau(  51) = (   0.3877538   0.1000232   0.8871673  )
        52           Si  tau(  52) = (   0.4925571   0.2432354   0.7511681  )
        53           Si  tau(  53) = (   0.7632706   0.0000297   0.7525357  )
        54           Si  tau(  54) = (   0.8922226   0.1039201   0.8796936  )
        55           Si  tau(  55) = (   0.1447528   0.3479411   0.8656080  )
        56           Si  tau(  56) = (   0.2485695   0.4505075   0.7681677  )
        57           Si  tau(  57) = (   0.6510443   0.3456962   0.8626793  )
        58           Si  tau(  58) = (   0.3805850   0.5880544   0.8737659  )
        59           Si  tau(  59) = (   0.7611881   0.4749541   0.7396989  )
        60           Si  tau(  60) = (   0.8822403   0.5862397   0.8923201  )
        61           Si  tau(  61) = (   0.0109254   0.6854967   0.7698568  )
        62           Si  tau(  62) = (   0.1281230   0.8134688   0.8803785  )
        63           Si  tau(  63) = (   0.5158516   0.7099242   0.7456209  )
        64           Si  tau(  64) = (   0.6272949   0.8135066   0.8846276  )

     number of k points=     1  Fermi-Dirac smearing, width (Ry)=  0.0100
                       cart. coord. in units 2pi/alat
        k(    1) = (   0.0000000   0.0000000   0.0000000), wk =   2.0000000

     Dense  grid:   105337 G-vectors     FFT dimensions: (  75,  75,  75)

     Estimated max dynamical RAM per process >     168.45 MB

     Estimated total dynamical RAM >     648.10 MB

     Initial potential from superposition of free atoms

     starting charge     255.9608, renormalised to     256.0000
     Starting wfcs are  256 randomized atomic wfcs

     total cpu time spent up to now is        4.9 secs

     Self-consistent Calculation

     iteration #  1     ecut=    30.00 Ry     beta= 0.50
     Davidson diagonalization with overlap
     ethr =  1.00E-02,  avg # of iterations =  3.0

     Threshold (ethr) on eigenvalues was too large:
     Diagonalizing with lowered threshold

     Davidson diagonalization with overlap
     ethr =  6.37E-04,  avg # of iterations =  4.0

     total cpu time spent up to now is        5.2 secs

     total energy              =    -502.32178532 Ry
     estimated scf accuracy    <       1.85960004 Ry

     iteration #  2     ecut=    30.00 Ry     beta= 0.50
     Davidson diagonalization with overlap
     ethr =  7.26E-04,  avg # of iterations =  4.0

     total cpu time spent up to now is        5.4 secs

     total energy              =    -502.04701455 Ry
     estimated scf accuracy    <       1.97528100 Ry

     iteration #  3     ecut=    30.00 Ry     beta= 0.50
     Davidson diagonalization with overlap
     ethr =  7.26E-04,  avg # of iterations =  4.0

     total cpu time spent up to now is        5.5 secs

     total energy              =    -502.29162773 Ry
     estimated scf accuracy    <       1.76894177 Ry

     iteration #  4     ecut=    30.00 Ry     beta= 0.50
     Davidson diagonalization with overlap
     ethr =  6.91E-04,  avg # of iterations =  2.0

     total cpu time spent up to now is        5.6 secs

     total energy              =    -502.46107743 Ry
     estimated scf accuracy    <       0.10105878 Ry

     iteration #  5     ecut=    30.00 Ry     beta= 0.50
     Davidson diagonalization with overlap
     ethr =  3.95E-05,  avg # of iterations = 10.0

     total cpu time spent up to now is        5.8 secs

     total energy              =    -502.48296054 Ry
     estimated scf accuracy    <       0.04653882 Ry

     iteration #  6     ecut=    30.00 Ry     beta= 0.50
     Davidson diagonalization with overlap
     ethr =  1.82E-05,  avg # of iterations =  3.0

     total cpu time spent up to now is        5.9 secs

     total energy              =    -502.48745056 Ry
     estimated scf accuracy    <       0.02299216 Ry

     iteration #  7     ecut=    30.00 Ry     beta= 0.50
     Davidson diagonalization with overlap
     ethr =  8.98E-06,  avg # of iterations =  2.0

     total cpu time spent up to now is        6.1 secs

     total energy              =    -502.48974085 Ry
     estimated scf accuracy    <       0.00179989 Ry

     iteration #  8     ecut=    30.00 Ry     beta= 0.50
     Davidson diagonalization with overlap
     ethr =  7.03E-07,  avg # of iterations =  7.0

     total cpu time spent up to now is        6.2 secs

     total energy              =    -502.49014962 Ry
     estimated scf accuracy    <       0.00078024 Ry

     iteration #  9     ecut=    30.00 Ry     beta= 0.50
     Davidson diagonalization with overlap
     ethr =  3.05E-07,  avg # of iterations =  4.0

     total cpu time spent up to now is        6.4 secs

     total energy              =    -502.49020892 Ry
     estimated scf accuracy    <       0.00053932 Ry

     iteration # 10     ecut=    30.00 Ry     beta= 0.50
     Davidson diagonalization with overlap
     ethr =  2.11E-07,  avg # of iterations =  2.0

     total cpu time spent up to now is        6.5 secs

     total energy              =    -502.49024717 Ry
     estimated scf accuracy    <       0.00008645 Ry

     iteration # 11     ecut=    30.00 Ry     beta= 0.50
     Davidson diagonalization with overlap
     ethr =  3.38E-08,  avg # of iterations =  4.0

     total cpu time spent up to now is        6.6 secs

     total energy              =    -502.49026224 Ry
     estimated scf accuracy    <       0.00000934 Ry

     iteration # 12     ecut=    30.00 Ry     beta= 0.50
     Davidson diagonalization with overlap
     ethr =  3.65E-09,  avg # of iterations =  5.0

     total cpu time spent up to now is        6.8 secs

     total energy              =    -502.49026374 Ry
     estimated scf accuracy    <       0.00001571 Ry

     iteration # 13     ecut=    30.00 Ry     beta= 0.50
     Davidson diagonalization with overlap
     ethr =  3.65E-09,  avg # of iterations =  3.0

     total cpu time spent up to now is        6.9 secs

     total energy              =    -502.49026503 Ry
     estimated scf accuracy    <       0.00000305 Ry

     iteration # 14     ecut=    30.00 Ry     beta= 0.50
     Davidson diagonalization with overlap
     ethr =  1.19E-09,  avg # of iterations =  4.0

     total cpu time spent up to now is        7.0 secs

     End of self-consistent calculation

          k = 0.0000 0.0000 0.0000 ( 13179 PWs)   bands (ev):

    -6.3464  -5.6231  -5.5356  -5.4315  -5.3208  -5.2381  -5.0437  -4.8217
    -4.7826  -4.7275  -4.5787  -4.4904  -4.4545  -4.3747  -4.3443  -4.1845
    -4.1632  -4.1577  -4.1225  -4.0254  -3.9297  -3.8035  -3.4580  -2.9005
    -2.7822  -2.7243  -2.6188  -2.5784  -2.4636  -2.4070  -2.3556  -2.3016
    -2.2022  -2.1045  -2.0285  -1.9931  -1.9815  -1.9099  -1.8647  -1.7625
    -1.6912  -1.5277  -1.2886  -1.1652  -1.0061  -0.6585  -0.3766  -0.3264
    -0.2676  -0.2475  -0.2127  -0.0627   0.0384   0.0801   0.1575   0.2993
     0.4830   1.0793   1.2160   1.2479   1.2814   1.3082   1.3544   1.4256
     1.4903   1.5538   1.5887   1.6204   1.6428   1.6716   1.7012   1.7401
     1.7851   1.7965   1.8839   1.9322   1.9503   1.9537   2.0328   2.0626
     2.0945   2.1285   2.1947   2.2739   2.2925   2.3835   2.4288   2.4540
     2.6248   2.6272   2.6969   2.8835   2.9335   3.0026   3.1298   3.2213
     3.3282   3.3736   3.3941   3.5110   3.5209   3.5467   3.6489   3.6834
     3.7250   3.7976   3.8356   3.8620   3.9060   3.9267   3.9781   4.1064
     4.1676   4.1891   4.2856   4.3447   4.3559   4.4488   4.5104   4.5530
     4.6155   4.6297   4.7452   4.8667   5.0961   5.3299   5.4305   5.5378
     5.6331   5.6666   5.8215   5.9494   6.0774   6.0950   6.1080   6.1833
     6.2279   6.2748   6.2835   6.4111   6.4587   6.5030   6.5547   6.6573
     6.8997   7.0169   7.0727   7.1367   7.1579   7.2883   7.3183   7.3543
     7.3878   7.4078

     the Fermi energy is     5.5582 ev

!    total energy              =    -502.49026522 Ry
     estimated scf accuracy    <       0.00000028 Ry
     smearing contrib. (-TS)   =      -0.08605746 Ry
     internal energy E=F+TS    =    -502.40420776 Ry

     The total energy is F=E-TS. E is the sum of the following terms:
     one-electron contribution =     118.70095111 Ry
     hartree contribution      =      43.30205216 Ry
     xc contribution           =    -151.13665879 Ry
     ewald contribution        =    -513.27055224 Ry

     convergence has been achieved in  14 iterations

     Forces acting on atoms (cartesian axes, Ry/au):

     atom    1 type  1   force =     0.02228529   -0.07120293   -0.04315405
     atom    2 type  1   force =     0.02319118   -0.03315504    0.08583283
     atom    3 type  1   force =     0.06040426   -0.09889573    0.03504627
     atom    4 type  1   force =     0.07965007   -0.09487967    0.09157862
     atom    5 type  1   force =     0.00972157    0.04455612   -0.06052653
     atom    6 type  1   force =     0.05731099   -0.12400211    0.07403684
     atom    7 type  1   force =    -0.15058315   -0.15453600   -0.17283993
     atom    8 type  1   force =    -0.10123329    0.05007748   -0.03051733
     atom    9 type  1   force =     0.04885039   -0.14805056    0.05296547
     atom   10 type  1   force =     0.04422105    0.00424424   -0.08041266
     atom   11 type  1   force =     0.17554629   -0.03287922    0.04701525
     atom   12 type  1   force =    -0.03050674   -0.00700033    0.05322110
     atom   13 type  1   force =     0.01166797   -0.03706481   -0.09305112
     atom   14 type  1   force =     0.06106644   -0.01031490   -0.06443370
     atom   15 type  1   force =    -0.03230583    0.02722159   -0.00680272
     atom   16 type  1   force =     0.08292148   -0.04902500   -0.09315250
     atom   17 type  1   force =    -0.12001674    0.01864651    0.02676953
     atom   18 type  1   force =     0.05926320    0.01581912   -0.01063041
     atom   19 type  1   force =     0.00229434    0.06028530    0.06326872
     atom   20 type  1   force =     0.06943854   -0.05277549    0.03179797
     atom   21 type  1   force =    -0.01092703    0.06060832   -0.02095377
     atom   22 type  1   force =    -0.08388028    0.07736749    0.09045398
     atom   23 type  1   force =    -0.08583740   -0.00789838    0.00315657
     atom   24 type  1   force =    -0.02983859    0.03868427    0.03267661
     atom   25 type  1   force =    -0.03308614   -0.06392543   -0.00213853
     atom   26 type  1   force =     0.01218684    0.02718863   -0.02533393
     atom   27 type  1   force =    -0.03131698    0.02225829   -0.02146643
     atom   28 type  1   force =    -0.03157338    0.00617033    0.05039745
     atom   29 type  1   force =    -0.00771400   -0.06962078    0.00433075
     atom   30 type  1   force =    -0.06024819   -0.00553670   -0.02029072
     atom   31 type  1   force =     0.04777810    0.01178109    0.01200228
     atom   32 type  1   force =    -0.01248978   -0.01113368   -0.02756505
     atom   33 type  1   force =     0.02322015   -0.00168204    0.02867907
     atom   34 type  1   force =     0.17485417   -0.06220519    0.09419965
     atom   35 type  1   force =     0.06374235   -0.08833328   -0.08309860
     atom   36 type  1   force =     0.13558541    0.13704510    0.16869743
     atom   37 type  1   force =     0.02131583    0.05457693    0.01135986
     atom   38 type  1   force =     0.03041761   -0.04001125   -0.01761357
     atom   39 type  1   force =    -0.04055450   -0.04449338    0.00170742
     atom   40 type  1   force =     0.05450752    0.03962346    0.00571555
     atom   41 type  1   force =    -0.12811125    0.06088356   -0.14952068
     atom   42 type  1   force =    -0.07150630    0.02207009    0.04819870
     atom   43 type  1   force =     0.00571359    0.07285322   -0.01475585
     atom   44 type  1   force =    -0.05314617   -0.07743634   -0.05371925
     atom   45 type  1   force =    -0.04296172    0.08663457   -0.05346329
     atom   46 type  1   force =     0.04379235    0.13712235    0.01388443
     atom   47 type  1   force =    -0.00570147    0.01137606    0.09162841
     atom   48 type  1   force =     0.00801343    0.03656904    0.00035039
     atom   49 type  1   force =     0.11111467    0.04535718   -0.03928775
     atom   50 type  1   force =     0.01687991   -0.11502919    0.01949706
     atom   51 type  1   force =    -0.07698197    0.11610776   -0.05989547
     atom   52 type  1   force =     0.03320242   -0.02320856    0.00365036
     atom   53 type  1   force =     0.00442485   -0.08570794    0.01019848
     atom   54 type  1   force =    -0.07415606   -0.01355313    0.05956465
     atom   55 type  1   force =    -0.24720989   -0.10726431    0.09867124
     atom   56 type  1   force =     0.13950126    0.20869481   -0.15791497
     atom   57 type  1   force =    -0.04823529   -0.00761116    0.03574574
     atom   58 type  1   force =     0.00923006   -0.01656995    0.03658184
     atom   59 type  1   force =     0.02672696   -0.01605721    0.00398586
     atom   60 type  1   force =    -0.09148497    0.04132196   -0.09868705
     atom   61 type  1   force =    -0.06664069    0.09385993    0.00072757
     atom   62 type  1   force =    -0.01500810    0.11827003   -0.01811568
     atom   63 type  1   force =    -0.02515729   -0.05138422    0.02110990
     atom   64 type  1   force =     0.03837267    0.07516909    0.01063771

     Total force =     0.971513     Total SCF correction =     0.000904


     Computing stress (Cartesian axis) and pressure

          total   stress  (Ry/bohr**3)                   (kbar)     P=      -16.56
  -0.00014128  -0.00003848   0.00016689          -20.78       -5.66       24.55
  -0.00003848  -0.00005645  -0.00011746           -5.66       -8.30      -17.28
   0.00016689  -0.00011746  -0.00014007           24.55      -17.28      -20.61

 
     init_run     :      1.00s CPU      4.87s WALL (       1 calls)
     electrons    :      1.91s CPU      2.06s WALL (       1 calls)
     forces       :      0.04s CPU      0.05s WALL (       1 calls)
     stress       :      0.17s CPU      0.17s WALL (       1 calls)

     Called by init_run:
     wfcinit      :      0.57s CPU      4.28s WALL (       1 calls)
                                        4.28s GPU  (       1 calls)
     potinit      :      0.22s CPU      0.30s WALL (       1 calls)
     hinit0       :      0.19s CPU      0.22s WALL (       1 calls)

     Called by electrons:
     c_bands      :      1.19s CPU      1.26s WALL (      15 calls)
     sum_band     :      0.36s CPU      0.41s WALL (      15 calls)
     v_of_rho     :      0.17s CPU      0.26s WALL (      15 calls)
     mix_rho      :      0.16s CPU      0.17s WALL (      15 calls)

     Called by c_bands:
     init_us_2    :      0.05s CPU      0.06s WALL (      31 calls)
     init_us_2:gp :      0.05s CPU      0.06s WALL (      31 calls)
     regterg      :      1.05s CPU      1.12s WALL (      15 calls)

     Called by *egterg:
     rdiaghg      :      0.37s CPU      1.14s WALL (      75 calls)
                                        1.12s GPU  (      75 calls)
     h_psi        :      1.07s CPU      4.06s WALL (      77 calls)
                                        4.05s GPU  (      77 calls)
     g_psi        :      0.00s CPU      0.00s WALL (      61 calls)
                                        0.00s GPU  (      61 calls)

     Called by h_psi:
     h_psi:calbec :      0.50s CPU      3.40s WALL (      77 calls)
                                        3.40s GPU  (      77 calls)
     vloc_psi     :      0.53s CPU      0.60s WALL (      77 calls)
                                        0.60s GPU  (      77 calls)
     add_vuspsi   :      0.03s CPU      0.05s WALL (      77 calls)
                                        0.04s GPU  (      77 calls)

     General routines
     calbec       :      0.51s CPU      3.41s WALL (      82 calls)
     fft          :      0.31s CPU      0.43s WALL (     127 calls)
                                        0.12s GPU  (      81 calls)
     ffts         :      0.05s CPU      0.06s WALL (      15 calls)
     fftw         :      0.56s CPU      0.75s WALL (    1601 calls)
                                        0.68s GPU  (    1601 calls)
 
     Parallel routines
 
     PWSCF        :      3.17s CPU      7.25s WALL

 
   This run was terminated on:  11:43:21  10May2023            

=------------------------------------------------------------------------------=
   JOB DONE.
=------------------------------------------------------------------------------=
