An instance of this daemon is already running

     Program PWSCF v.7.1 starts on 10May2023 at 11:46: 7 

     This program is part of the open-source Quantum ESPRESSO suite
     for quantum simulation of materials; please cite
         "P. Giannozzi et al., J. Phys.:Condens. Matter 21 395502 (2009);
         "P. Giannozzi et al., J. Phys.:Condens. Matter 29 465901 (2017);
         "P. Giannozzi et al., J. Chem. Phys. 152 154105 (2020);
          URL http://www.quantum-espresso.org", 
     in publications or presentations arising from this work. More details at
     http://www.quantum-espresso.org/quote

     Parallel version (MPI & OpenMP), running on       4 processor cores
     Number of MPI processes:                 4
     Threads/MPI process:                     1

     MPI processes distributed on     1 nodes
     707033 MiB available memory on the printing compute node when the environment starts
 
     Reading input from pw-si-98.in
Warning: card &CELL ignored
Warning: card / ignored

     Current dimensions of program PWSCF are:
     Max number of different atomic species (ntypx) = 10
     Max number of k-points (npk) =  40000
     Max angular momentum in pseudopotentials (lmaxx) =  4

     IMPORTANT: XC functional enforced from input :
     Exchange-correlation= PBE
                           (   1   4   3   4   0   0   0)
     Any further DFT definition will be discarded
     Please, verify this is what you really want


     gamma-point specific algorithms are used
 
     K-points division:     npool     =       2
     R & G space division:  proc/nbgrp/npool/nimage =       2
     Subspace diagonalization in iterative solution of the eigenvalue problem:
     a serial algorithm will be used

     Message from routine divide_et_impera:
     suboptimal parallelization: some nodes have no k-points
 
     Parallelization info
     --------------------
     sticks:   dense  smooth     PW     G-vecs:    dense   smooth      PW
     Min        1941    1941    513                96290    96290   13107
     Max        1942    1942    514                96291    96291   13110
     Sum        3883    3883   1027               192581   192581   26217
 
     Using Slab Decomposition
 


     bravais-lattice index     =            0
     lattice parameter (alat)  =      20.3061  a.u.
     unit-cell volume          =    8677.8676 (a.u.)^3
     number of atoms/cell      =           64
     number of atomic types    =            1
     number of electrons       =       256.00
     number of Kohn-Sham states=          154
     kinetic-energy cutoff     =      30.0000  Ry
     charge density cutoff     =     120.0000  Ry
     scf convergence threshold =      1.0E-06
     mixing beta               =       0.5000
     number of iterations used =            8  plain     mixing
     Exchange-correlation= PBE
                           (   1   4   3   4   0   0   0)

     GPU acceleration is ACTIVE.
     GPU-aware MPI enabled

     Message from routine print_cuda_info:
     High GPU oversubscription detected. Are you sure this is what you want?

     celldm(1)=  20.306127  celldm(2)=   0.000000  celldm(3)=   0.000000
     celldm(4)=   0.000000  celldm(5)=   0.000000  celldm(6)=   0.000000

     crystal axes: (cart. coord. in units of alat)
               a(1) = (   1.000000   0.000000   0.000000 )  
               a(2) = (   0.000000   0.986992   0.000000 )  
               a(3) = (   0.000000   0.000000   1.050069 )  

     reciprocal axes: (cart. coord. in units 2 pi/alat)
               b(1) = (  1.000000  0.000000  0.000000 )  
               b(2) = (  0.000000  1.013179  0.000000 )  
               b(3) = (  0.000000  0.000000  0.952318 )  


     PseudoPot. # 1 for Si read from file:
     /home/ppiaggi/pseudos/Si_ONCV_PBE_sr.upf
     MD5 check sum: 8553c464762ac42b85b1eed164b4d029
     Pseudo is Norm-conserving, Zval =  4.0
     Generated using ONCVPSP code by D. R. Hamann
     Using radial grid of 1510 points,  4 beta functions with: 
                l(1) =   0
                l(2) =   0
                l(3) =   1
                l(4) =   1

     atomic species   valence    mass     pseudopotential
        Si             4.00    28.08500     Si( 1.00)

     No symmetry found



   Cartesian axes

     site n.     atom                  positions (alat units)
         1           Si  tau(   1) = (   0.0180536   0.0058590  -0.0108462  )
         2           Si  tau(   2) = (  -0.0016385   0.2538724   0.2496158  )
         3           Si  tau(   3) = (   0.2437449  -0.0169494   0.2707277  )
         4           Si  tau(   4) = (   0.2536379   0.2233409  -0.0133010  )
         5           Si  tau(   5) = (   0.1171086   0.1046807   0.1231203  )
         6           Si  tau(   6) = (   0.5085533   0.0156075   0.0088232  )
         7           Si  tau(   7) = (   0.5306597   0.2509219   0.2620859  )
         8           Si  tau(   8) = (   0.6375135   0.1085803   0.1436592  )
         9           Si  tau(   9) = (   0.7695600  -0.0155050   0.2520513  )
        10           Si  tau(  10) = (   0.7772614   0.2453927   0.0121418  )
        11           Si  tau(  11) = (  -0.0126094   0.4881171   0.0133570  )
        12           Si  tau(  12) = (   0.2796955   0.4638580   0.2603273  )
        13           Si  tau(  13) = (   0.1193365   0.5831566   0.1196905  )
        14           Si  tau(  14) = (   0.3828793   0.3568947   0.1172568  )
        15           Si  tau(  15) = (   0.5329053   0.4922675   0.0085845  )
        16           Si  tau(  16) = (   0.6654798   0.6006138   0.1114829  )
        17           Si  tau(  17) = (   0.9318853   0.3469359   0.1248100  )
        18           Si  tau(  18) = (   0.7684398   0.4833337   0.2732074  )
        19           Si  tau(  19) = (   0.0161423   0.7202311   0.2657734  )
        20           Si  tau(  20) = (   0.2603318   0.7208595  -0.0103226  )
        21           Si  tau(  21) = (   0.4037183   0.8537797   0.1107377  )
        22           Si  tau(  22) = (   0.5303308   0.7254382   0.2540643  )
        23           Si  tau(  23) = (   0.7818458   0.7283396  -0.0010358  )
        24           Si  tau(  24) = (   0.9043831   0.8226022   0.1190012  )
        25           Si  tau(  25) = (   0.0078431  -0.0056610   0.5039161  )
        26           Si  tau(  26) = (   0.2520599   0.2275141   0.5025199  )
        27           Si  tau(  27) = (   0.1337504   0.1084377   0.6348511  )
        28           Si  tau(  28) = (   0.3760624   0.1061628   0.3865870  )
        29           Si  tau(  29) = (   0.5247711   0.0096311   0.5163160  )
        30           Si  tau(  30) = (   0.6701898   0.1042657   0.6566340  )
        31           Si  tau(  31) = (   0.9340776   0.1049136   0.3849358  )
        32           Si  tau(  32) = (   0.7859470   0.2242664   0.4986235  )
        33           Si  tau(  33) = (   0.1338684   0.3750580   0.3875740  )
        34           Si  tau(  34) = (   0.0001826   0.4660310   0.4955867  )
        35           Si  tau(  35) = (   0.1301782   0.5864637   0.6481554  )
        36           Si  tau(  36) = (   0.6454988   0.3610762   0.3815696  )
        37           Si  tau(  37) = (   0.4078736   0.5960426   0.4007097  )
        38           Si  tau(  38) = (   0.3933150   0.3757669   0.6504159  )
        39           Si  tau(  39) = (   0.5323915   0.4785180   0.5037326  )
        40           Si  tau(  40) = (   0.6377998   0.5866354   0.6522672  )
        41           Si  tau(  41) = (   0.9236533   0.5862758   0.3909913  )
        42           Si  tau(  42) = (   0.9304972   0.3522674   0.6426952  )
        43           Si  tau(  43) = (   0.1314590   0.8213749   0.3873285  )
        44           Si  tau(  44) = (   0.2648930   0.7305908   0.5187346  )
        45           Si  tau(  45) = (   0.6370677   0.8454323   0.3843273  )
        46           Si  tau(  46) = (   0.3954731   0.8476049   0.6236963  )
        47           Si  tau(  47) = (   0.7935016   0.7335074   0.5019997  )
        48           Si  tau(  48) = (   0.9344331   0.8406576   0.6542892  )
        49           Si  tau(  49) = (   0.0177903   0.2467394   0.7756523  )
        50           Si  tau(  50) = (   0.2693844  -0.0026617   0.7697281  )
        51           Si  tau(  51) = (   0.3894409   0.1306494   0.9022897  )
        52           Si  tau(  52) = (   0.5356968   0.2392454   0.7633203  )
        53           Si  tau(  53) = (   0.7986513  -0.0049962   0.7722120  )
        54           Si  tau(  54) = (   0.9023108   0.1275012   0.8800792  )
        55           Si  tau(  55) = (   0.1169390   0.3679410   0.8868897  )
        56           Si  tau(  56) = (   0.2528089   0.4737943   0.7621079  )
        57           Si  tau(  57) = (   0.6585917   0.3545270   0.9049986  )
        58           Si  tau(  58) = (   0.4096005   0.6106911   0.9072771  )
        59           Si  tau(  59) = (   0.7856953   0.4751088   0.7885302  )
        60           Si  tau(  60) = (   0.9144460   0.6039673   0.8917736  )
        61           Si  tau(  61) = (   0.0143076   0.7337714   0.7650045  )
        62           Si  tau(  62) = (   0.1439291   0.8326667   0.9026963  )
        63           Si  tau(  63) = (   0.5136417   0.7180491   0.7748500  )
        64           Si  tau(  64) = (   0.6661522   0.8537318   0.8823948  )

     number of k points=     1  Fermi-Dirac smearing, width (Ry)=  0.0100
                       cart. coord. in units 2pi/alat
        k(    1) = (   0.0000000   0.0000000   0.0000000), wk =   2.0000000

     Dense  grid:    96291 G-vectors     FFT dimensions: (  72,  72,  75)

     Estimated max dynamical RAM per process >     154.33 MB

     Estimated total dynamical RAM >     593.82 MB

     Initial potential from superposition of free atoms

     starting charge     255.9608, renormalised to     256.0000
     Starting wfcs are  256 randomized atomic wfcs

     total cpu time spent up to now is        5.2 secs

     Self-consistent Calculation

     iteration #  1     ecut=    30.00 Ry     beta= 0.50
     Davidson diagonalization with overlap
     ethr =  1.00E-02,  avg # of iterations =  3.0

     Threshold (ethr) on eigenvalues was too large:
     Diagonalizing with lowered threshold

     Davidson diagonalization with overlap
     ethr =  7.84E-04,  avg # of iterations =  4.0

     total cpu time spent up to now is        5.5 secs

     total energy              =    -501.70004215 Ry
     estimated scf accuracy    <       2.30307010 Ry

     iteration #  2     ecut=    30.00 Ry     beta= 0.50
     Davidson diagonalization with overlap
     ethr =  9.00E-04,  avg # of iterations =  4.0

     total cpu time spent up to now is        5.6 secs

     total energy              =    -501.31677692 Ry
     estimated scf accuracy    <       2.92195098 Ry

     iteration #  3     ecut=    30.00 Ry     beta= 0.50
     Davidson diagonalization with overlap
     ethr =  9.00E-04,  avg # of iterations =  4.0

     total cpu time spent up to now is        5.7 secs

     total energy              =    -501.75761353 Ry
     estimated scf accuracy    <       1.87697861 Ry

     iteration #  4     ecut=    30.00 Ry     beta= 0.50
     Davidson diagonalization with overlap
     ethr =  7.33E-04,  avg # of iterations =  2.0

     total cpu time spent up to now is        5.8 secs

     total energy              =    -501.90883071 Ry
     estimated scf accuracy    <       0.21142763 Ry

     iteration #  5     ecut=    30.00 Ry     beta= 0.50
     Davidson diagonalization with overlap
     ethr =  8.26E-05,  avg # of iterations = 11.0

     total cpu time spent up to now is        5.9 secs

     total energy              =    -501.94153027 Ry
     estimated scf accuracy    <       0.14919793 Ry

     iteration #  6     ecut=    30.00 Ry     beta= 0.50
     Davidson diagonalization with overlap
     ethr =  5.83E-05,  avg # of iterations =  3.0

     total cpu time spent up to now is        6.0 secs

     total energy              =    -501.96021754 Ry
     estimated scf accuracy    <       0.01850880 Ry

     iteration #  7     ecut=    30.00 Ry     beta= 0.50
     Davidson diagonalization with overlap
     ethr =  7.23E-06,  avg # of iterations = 15.0

     total cpu time spent up to now is        6.2 secs

     total energy              =    -501.96230284 Ry
     estimated scf accuracy    <       0.00444905 Ry

     iteration #  8     ecut=    30.00 Ry     beta= 0.50
     Davidson diagonalization with overlap
     ethr =  1.74E-06,  avg # of iterations =  6.0

     total cpu time spent up to now is        6.4 secs

     total energy              =    -501.96272199 Ry
     estimated scf accuracy    <       0.00322569 Ry

     iteration #  9     ecut=    30.00 Ry     beta= 0.50
     Davidson diagonalization with overlap
     ethr =  1.26E-06,  avg # of iterations =  3.0

     total cpu time spent up to now is        6.5 secs

     total energy              =    -501.96315648 Ry
     estimated scf accuracy    <       0.00031507 Ry

     iteration # 10     ecut=    30.00 Ry     beta= 0.50
     Davidson diagonalization with overlap
     ethr =  1.23E-07,  avg # of iterations =  4.0

     total cpu time spent up to now is        6.6 secs

     total energy              =    -501.96319999 Ry
     estimated scf accuracy    <       0.00008146 Ry

     iteration # 11     ecut=    30.00 Ry     beta= 0.50
     Davidson diagonalization with overlap
     ethr =  3.18E-08,  avg # of iterations =  3.0

     total cpu time spent up to now is        6.7 secs

     total energy              =    -501.96320829 Ry
     estimated scf accuracy    <       0.00003683 Ry

     iteration # 12     ecut=    30.00 Ry     beta= 0.50
     Davidson diagonalization with overlap
     ethr =  1.44E-08,  avg # of iterations =  4.0

     total cpu time spent up to now is        6.8 secs

     total energy              =    -501.96321395 Ry
     estimated scf accuracy    <       0.00001012 Ry

     iteration # 13     ecut=    30.00 Ry     beta= 0.50
     Davidson diagonalization with overlap
     ethr =  3.95E-09,  avg # of iterations =  3.0

     total cpu time spent up to now is        6.9 secs

     total energy              =    -501.96321511 Ry
     estimated scf accuracy    <       0.00000152 Ry

     iteration # 14     ecut=    30.00 Ry     beta= 0.50
     Davidson diagonalization with overlap
     ethr =  5.93E-10,  avg # of iterations =  4.0

     total cpu time spent up to now is        7.0 secs

     End of self-consistent calculation

          k = 0.0000 0.0000 0.0000 ( 12041 PWs)   bands (ev):

    -6.2153  -5.3656  -5.2065  -5.1466  -5.0563  -5.0065  -4.6017  -4.5793
    -4.2942  -4.2436  -4.1480  -3.9726  -3.9335  -3.9088  -3.7561  -3.6711
    -3.6430  -3.6011  -3.5431  -3.3887  -3.3153  -3.2476  -3.0796  -2.6028
    -2.2997  -2.0104  -1.8953  -1.8597  -1.8339  -1.7044  -1.6590  -1.6187
    -1.5528  -1.5216  -1.4533  -1.3568  -1.2933  -1.2186  -1.1765  -1.1592
    -0.9933  -0.9394  -0.8330  -0.6729  -0.4132   0.1946   0.2986   0.3965
     0.4406   0.4504   0.5808   0.6302   0.7261   0.8316   0.9114   0.9236
     1.0876   1.7171   1.7256   1.7694   1.8689   1.9281   1.9535   1.9720
     2.1224   2.1462   2.1987   2.2657   2.2885   2.3237   2.3527   2.3801
     2.4228   2.4855   2.5069   2.5183   2.5764   2.6050   2.6390   2.6915
     2.7689   2.7743   2.8857   2.9443   3.0323   3.0466   3.0661   3.2117
     3.2609   3.2956   3.3958   3.5030   3.6133   3.6589   3.9378   3.9713
     4.0743   4.1246   4.1349   4.2004   4.3223   4.3599   4.3938   4.4835
     4.5103   4.5525   4.6129   4.6917   4.6996   4.8626   4.9356   4.9768
     4.9892   5.0478   5.0622   5.1015   5.1196   5.2486   5.2669   5.3395
     5.4500   5.5338   5.7071   5.8336   5.9231   6.1073   6.2289   6.2957
     6.4017   6.4401   6.6663   6.7962   6.8253   6.8957   7.0312   7.0667
     7.0867   7.2090   7.2714   7.2903   7.3372   7.3825   7.4766   7.5381
     7.7407   7.9013   8.0195   8.0543   8.2206   8.2454   8.3266   8.3570
     8.3976   8.5143

     the Fermi energy is     6.3472 ev

!    total energy              =    -501.96321515 Ry
     estimated scf accuracy    <       0.00000053 Ry
     smearing contrib. (-TS)   =      -0.08402188 Ry
     internal energy E=F+TS    =    -501.87919327 Ry

     The total energy is F=E-TS. E is the sum of the following terms:
     one-electron contribution =     136.35972806 Ry
     hartree contribution      =      42.51583580 Ry
     xc contribution           =    -154.04285189 Ry
     ewald contribution        =    -526.71190524 Ry

     convergence has been achieved in  14 iterations

     Forces acting on atoms (cartesian axes, Ry/au):

     atom    1 type  1   force =    -0.07926147   -0.13217709   -0.11580908
     atom    2 type  1   force =     0.25231247   -0.25287115    0.34006313
     atom    3 type  1   force =     0.02199075   -0.03054922   -0.06607110
     atom    4 type  1   force =    -0.02949155    0.05982186    0.00744306
     atom    5 type  1   force =     0.10712080    0.07887006    0.10076406
     atom    6 type  1   force =     0.00845074   -0.02084115   -0.09782553
     atom    7 type  1   force =    -0.13266037   -0.07376971   -0.06034167
     atom    8 type  1   force =     0.04663901    0.04819337   -0.02264255
     atom    9 type  1   force =     0.05411235   -0.04290720    0.02061137
     atom   10 type  1   force =    -0.02232958   -0.04679273   -0.04946410
     atom   11 type  1   force =     0.01659235    0.06339254   -0.20867522
     atom   12 type  1   force =    -0.04048783    0.08898035    0.00528331
     atom   13 type  1   force =     0.16231857    0.08835695    0.09746658
     atom   14 type  1   force =     0.06826096   -0.03450260   -0.02384326
     atom   15 type  1   force =    -0.08129095   -0.07856275   -0.10206121
     atom   16 type  1   force =     0.00654573    0.02216463    0.11665302
     atom   17 type  1   force =    -0.30756013    0.14988925   -0.23426410
     atom   18 type  1   force =     0.06120752    0.02773124   -0.07622567
     atom   19 type  1   force =    -0.01267816   -0.06309982   -0.11374053
     atom   20 type  1   force =     0.02528522   -0.02273533    0.02197008
     atom   21 type  1   force =    -0.06203623   -0.03634785    0.06299255
     atom   22 type  1   force =    -0.04629208   -0.03369629   -0.05081216
     atom   23 type  1   force =    -0.04984615   -0.02396941   -0.15591640
     atom   24 type  1   force =     0.03969360    0.15430888    0.05667338
     atom   25 type  1   force =     0.16314451   -0.22996280    0.19588796
     atom   26 type  1   force =     0.01091620    0.07333841    0.04771794
     atom   27 type  1   force =     0.01469916    0.00867201    0.04613147
     atom   28 type  1   force =     0.07486912    0.02885281   -0.02831577
     atom   29 type  1   force =    -0.00318327   -0.06239892   -0.00187854
     atom   30 type  1   force =    -0.05394234    0.05159572   -0.08830250
     atom   31 type  1   force =    -0.22074420    0.15907627   -0.21859900
     atom   32 type  1   force =     0.00702533    0.01592061    0.05268309
     atom   33 type  1   force =     0.08246752   -0.11887956   -0.07847611
     atom   34 type  1   force =     0.14565443   -0.09201698    0.24047507
     atom   35 type  1   force =    -0.02086903    0.07408488   -0.07881531
     atom   36 type  1   force =     0.07350036   -0.04147538    0.05551735
     atom   37 type  1   force =    -0.07354985    0.06922015   -0.09705538
     atom   38 type  1   force =     0.04829087   -0.09000365   -0.07383791
     atom   39 type  1   force =    -0.01972095   -0.02117093    0.10244807
     atom   40 type  1   force =     0.07836273    0.03327906    0.00630556
     atom   41 type  1   force =    -0.23798460    0.22313454   -0.17412762
     atom   42 type  1   force =    -0.20354096    0.03199343   -0.05116320
     atom   43 type  1   force =     0.05063251    0.13266499    0.04846312
     atom   44 type  1   force =    -0.01051385   -0.10434519   -0.00076448
     atom   45 type  1   force =     0.05901747    0.06265139    0.03982792
     atom   46 type  1   force =     0.04040653    0.06291217    0.08873236
     atom   47 type  1   force =    -0.02915531   -0.03105892    0.05249322
     atom   48 type  1   force =    -0.26225160    0.26212330   -0.27890878
     atom   49 type  1   force =     0.08114824   -0.12865398   -0.05584849
     atom   50 type  1   force =    -0.00120395   -0.05030147   -0.00084516
     atom   51 type  1   force =     0.03783572   -0.03622221   -0.01705950
     atom   52 type  1   force =    -0.03570367    0.01501339    0.03280688
     atom   53 type  1   force =    -0.00292318   -0.11088347   -0.02784746
     atom   54 type  1   force =    -0.03100077   -0.02151385    0.18288818
     atom   55 type  1   force =     0.09548121    0.06323928    0.16483118
     atom   56 type  1   force =     0.05594397    0.02953313    0.10207840
     atom   57 type  1   force =    -0.02708710    0.00268816    0.07108353
     atom   58 type  1   force =    -0.08682919   -0.07752296    0.07391678
     atom   59 type  1   force =    -0.00919039   -0.00017001   -0.08809124
     atom   60 type  1   force =    -0.05180028   -0.00237495    0.07735984
     atom   61 type  1   force =     0.22117403   -0.24229560    0.22723819
     atom   62 type  1   force =     0.01192594    0.09811950    0.00344550
     atom   63 type  1   force =     0.06351114    0.09040331   -0.07700999
     atom   64 type  1   force =    -0.04140806   -0.01615254    0.07238688

     Total force =     1.444433     Total SCF correction =     0.001372


     Computing stress (Cartesian axis) and pressure

          total   stress  (Ry/bohr**3)                   (kbar)     P=       69.60
   0.00035357   0.00003749   0.00029913           52.01        5.51       44.00
   0.00003749   0.00059411  -0.00028874            5.51       87.40      -42.47
   0.00029913  -0.00028874   0.00047178           44.00      -42.47       69.40

 
     init_run     :      1.22s CPU      5.09s WALL (       1 calls)
     electrons    :      1.72s CPU      1.84s WALL (       1 calls)
     forces       :      0.04s CPU      0.05s WALL (       1 calls)
     stress       :      0.16s CPU      0.16s WALL (       1 calls)

     Called by init_run:
     wfcinit      :      0.57s CPU      4.26s WALL (       1 calls)
                                        4.26s GPU  (       1 calls)
     potinit      :      0.21s CPU      0.30s WALL (       1 calls)
     hinit0       :      0.43s CPU      0.46s WALL (       1 calls)

     Called by electrons:
     c_bands      :      1.09s CPU      1.14s WALL (      15 calls)
     sum_band     :      0.33s CPU      0.37s WALL (      15 calls)
     v_of_rho     :      0.17s CPU      0.26s WALL (      15 calls)
     mix_rho      :      0.13s CPU      0.15s WALL (      15 calls)

     Called by c_bands:
     init_us_2    :      0.05s CPU      0.06s WALL (      31 calls)
     init_us_2:gp :      0.05s CPU      0.06s WALL (      31 calls)
     regterg      :      0.95s CPU      0.99s WALL (      15 calls)

     Called by *egterg:
     rdiaghg      :      0.42s CPU      1.18s WALL (      87 calls)
                                        1.16s GPU  (      87 calls)
     h_psi        :      0.93s CPU      3.89s WALL (      89 calls)
                                        3.88s GPU  (      89 calls)
     g_psi        :      0.00s CPU      0.00s WALL (      73 calls)
                                        0.00s GPU  (      73 calls)

     Called by h_psi:
     h_psi:calbec :      0.52s CPU      3.41s WALL (      89 calls)
                                        3.40s GPU  (      89 calls)
     vloc_psi     :      0.35s CPU      0.42s WALL (      89 calls)
                                        0.42s GPU  (      89 calls)
     add_vuspsi   :      0.04s CPU      0.05s WALL (      89 calls)
                                        0.05s GPU  (      89 calls)

     General routines
     calbec       :      0.53s CPU      3.41s WALL (      94 calls)
     fft          :      0.53s CPU      0.66s WALL (     127 calls)
                                        0.14s GPU  (      81 calls)
     ffts         :      0.04s CPU      0.05s WALL (      15 calls)
     fftw         :      0.42s CPU      0.56s WALL (    1631 calls)
                                        0.49s GPU  (    1631 calls)
 
     Parallel routines
 
     PWSCF        :      3.20s CPU      7.23s WALL

 
   This run was terminated on:  11:46:15  10May2023            

=------------------------------------------------------------------------------=
   JOB DONE.
=------------------------------------------------------------------------------=
