An instance of this daemon is already running
An instance of this daemon is already running

     Program PWSCF v.7.1 starts on 10May2023 at 11:35:48 

     This program is part of the open-source Quantum ESPRESSO suite
     for quantum simulation of materials; please cite
         "P. Giannozzi et al., J. Phys.:Condens. Matter 21 395502 (2009);
         "P. Giannozzi et al., J. Phys.:Condens. Matter 29 465901 (2017);
         "P. Giannozzi et al., J. Chem. Phys. 152 154105 (2020);
          URL http://www.quantum-espresso.org", 
     in publications or presentations arising from this work. More details at
     http://www.quantum-espresso.org/quote

     Parallel version (MPI & OpenMP), running on       4 processor cores
     Number of MPI processes:                 4
     Threads/MPI process:                     1

     MPI processes distributed on     1 nodes
     706982 MiB available memory on the printing compute node when the environment starts
 
     Reading input from pw-si-34.in
Warning: card &CELL ignored
Warning: card / ignored

     Current dimensions of program PWSCF are:
     Max number of different atomic species (ntypx) = 10
     Max number of k-points (npk) =  40000
     Max angular momentum in pseudopotentials (lmaxx) =  4

     IMPORTANT: XC functional enforced from input :
     Exchange-correlation= PBE
                           (   1   4   3   4   0   0   0)
     Any further DFT definition will be discarded
     Please, verify this is what you really want


     gamma-point specific algorithms are used
 
     K-points division:     npool     =       2
     R & G space division:  proc/nbgrp/npool/nimage =       2
     Subspace diagonalization in iterative solution of the eigenvalue problem:
     a serial algorithm will be used

     Message from routine divide_et_impera:
     suboptimal parallelization: some nodes have no k-points
 
     Parallelization info
     --------------------
     sticks:   dense  smooth     PW     G-vecs:    dense   smooth      PW
     Min        2202    2202    584               105637   105637   14345
     Max        2203    2203    585               105638   105638   14348
     Sum        4405    4405   1169               211275   211275   28693
 
     Using Slab Decomposition
 


     bravais-lattice index     =            0
     lattice parameter (alat)  =      21.7543  a.u.
     unit-cell volume          =    9524.6763 (a.u.)^3
     number of atoms/cell      =           64
     number of atomic types    =            1
     number of electrons       =       256.00
     number of Kohn-Sham states=          154
     kinetic-energy cutoff     =      30.0000  Ry
     charge density cutoff     =     120.0000  Ry
     scf convergence threshold =      1.0E-06
     mixing beta               =       0.5000
     number of iterations used =            8  plain     mixing
     Exchange-correlation= PBE
                           (   1   4   3   4   0   0   0)

     GPU acceleration is ACTIVE.
     GPU-aware MPI enabled

     Message from routine print_cuda_info:
     High GPU oversubscription detected. Are you sure this is what you want?

     celldm(1)=  21.754300  celldm(2)=   0.000000  celldm(3)=   0.000000
     celldm(4)=   0.000000  celldm(5)=   0.000000  celldm(6)=   0.000000

     crystal axes: (cart. coord. in units of alat)
               a(1) = (   1.000000   0.000000   0.000000 )  
               a(2) = (   0.000000   0.976119   0.000000 )  
               a(3) = (   0.000000   0.000000   0.947790 )  

     reciprocal axes: (cart. coord. in units 2 pi/alat)
               b(1) = (  1.000000  0.000000  0.000000 )  
               b(2) = (  0.000000  1.024465  0.000000 )  
               b(3) = (  0.000000  0.000000  1.055086 )  


     PseudoPot. # 1 for Si read from file:
     /home/ppiaggi/pseudos/Si_ONCV_PBE_sr.upf
     MD5 check sum: 8553c464762ac42b85b1eed164b4d029
     Pseudo is Norm-conserving, Zval =  4.0
     Generated using ONCVPSP code by D. R. Hamann
     Using radial grid of 1510 points,  4 beta functions with: 
                l(1) =   0
                l(2) =   0
                l(3) =   1
                l(4) =   1

     atomic species   valence    mass     pseudopotential
        Si             4.00    28.08500     Si( 1.00)

     No symmetry found



   Cartesian axes

     site n.     atom                  positions (alat units)
         1           Si  tau(   1) = (  -0.0042099   0.0141732   0.0090245  )
         2           Si  tau(   2) = (  -0.0157726   0.2277568   0.2338614  )
         3           Si  tau(   3) = (   0.2720060   0.0115815   0.2279965  )
         4           Si  tau(   4) = (   0.2447956   0.2399349  -0.0131874  )
         5           Si  tau(   5) = (   0.1239672   0.1050624   0.1324076  )
         6           Si  tau(   6) = (   0.5243167  -0.0154493   0.0079501  )
         7           Si  tau(   7) = (   0.5152137   0.2506879   0.2421019  )
         8           Si  tau(   8) = (   0.6498079   0.1045672   0.1167020  )
         9           Si  tau(   9) = (   0.7734798   0.0092134   0.2342170  )
        10           Si  tau(  10) = (   0.7943561   0.2436474  -0.0045152  )
        11           Si  tau(  11) = (  -0.0096787   0.4555277  -0.0020130  )
        12           Si  tau(  12) = (   0.2670013   0.4640888   0.2461342  )
        13           Si  tau(  13) = (   0.1427807   0.5736820   0.1092125  )
        14           Si  tau(  14) = (   0.4083514   0.3635186   0.1254591  )
        15           Si  tau(  15) = (   0.5152406   0.4684489   0.0150095  )
        16           Si  tau(  16) = (   0.6650325   0.5823467   0.1293497  )
        17           Si  tau(  17) = (   0.9148126   0.3498942   0.1278714  )
        18           Si  tau(  18) = (   0.7815935   0.4649378   0.2251745  )
        19           Si  tau(  19) = (   0.0105976   0.6977835   0.2430257  )
        20           Si  tau(  20) = (   0.2748048   0.7046243  -0.0165231  )
        21           Si  tau(  21) = (   0.3721602   0.8287195   0.1296977  )
        22           Si  tau(  22) = (   0.5147976   0.7198905   0.2366882  )
        23           Si  tau(  23) = (   0.7877187   0.7019181  -0.0025047  )
        24           Si  tau(  24) = (   0.9241224   0.8389569   0.1189365  )
        25           Si  tau(  25) = (  -0.0182453   0.0084939   0.4762958  )
        26           Si  tau(  26) = (   0.2688147   0.2491172   0.4908147  )
        27           Si  tau(  27) = (   0.1284099   0.1091253   0.6135612  )
        28           Si  tau(  28) = (   0.3875860   0.1020854   0.3570690  )
        29           Si  tau(  29) = (   0.5221758   0.0143738   0.4775872  )
        30           Si  tau(  30) = (   0.6586063   0.1312002   0.6124336  )
        31           Si  tau(  31) = (   0.9294664   0.1080137   0.3726406  )
        32           Si  tau(  32) = (   0.7623204   0.2322686   0.4705587  )
        33           Si  tau(  33) = (   0.1199136   0.3553421   0.3458038  )
        34           Si  tau(  34) = (  -0.0080523   0.4632570   0.4748888  )
        35           Si  tau(  35) = (   0.1271057   0.6016579   0.6168415  )
        36           Si  tau(  36) = (   0.6447859   0.3519623   0.3495317  )
        37           Si  tau(  37) = (   0.4044002   0.5828259   0.3706106  )
        38           Si  tau(  38) = (   0.3851992   0.3569002   0.5918410  )
        39           Si  tau(  39) = (   0.5037372   0.4730878   0.4774736  )
        40           Si  tau(  40) = (   0.6402582   0.5891712   0.6111180  )
        41           Si  tau(  41) = (   0.9164406   0.5749674   0.3725645  )
        42           Si  tau(  42) = (   0.8966375   0.3456979   0.5878287  )
        43           Si  tau(  43) = (   0.1388352   0.8257450   0.3443980  )
        44           Si  tau(  44) = (   0.2457573   0.7038911   0.4732217  )
        45           Si  tau(  45) = (   0.6596828   0.8169160   0.3592678  )
        46           Si  tau(  46) = (   0.3848729   0.8113402   0.6125827  )
        47           Si  tau(  47) = (   0.7966489   0.7081027   0.4645492  )
        48           Si  tau(  48) = (   0.9229008   0.8304426   0.6043687  )
        49           Si  tau(  49) = (  -0.0032852   0.2285984   0.7267293  )
        50           Si  tau(  50) = (   0.2508322   0.0063448   0.7351453  )
        51           Si  tau(  51) = (   0.3870548   0.1041358   0.8272010  )
        52           Si  tau(  52) = (   0.5329523   0.2524223   0.7323900  )
        53           Si  tau(  53) = (   0.7963054  -0.0131299   0.7145486  )
        54           Si  tau(  54) = (   0.9060753   0.1084485   0.8500971  )
        55           Si  tau(  55) = (   0.1467697   0.3413335   0.8313244  )
        56           Si  tau(  56) = (   0.2425007   0.4807743   0.7167726  )
        57           Si  tau(  57) = (   0.6577085   0.3392561   0.8529907  )
        58           Si  tau(  58) = (   0.3797393   0.5973493   0.8470634  )
        59           Si  tau(  59) = (   0.7637985   0.4834653   0.7388479  )
        60           Si  tau(  60) = (   0.8960354   0.6038007   0.8348912  )
        61           Si  tau(  61) = (  -0.0026108   0.6948485   0.7079849  )
        62           Si  tau(  62) = (   0.1439761   0.8353331   0.8313659  )
        63           Si  tau(  63) = (   0.5242911   0.7080394   0.7184825  )
        64           Si  tau(  64) = (   0.6534976   0.8130944   0.8329084  )

     number of k points=     1  Fermi-Dirac smearing, width (Ry)=  0.0100
                       cart. coord. in units 2pi/alat
        k(    1) = (   0.0000000   0.0000000   0.0000000), wk =   2.0000000

     Dense  grid:   105638 G-vectors     FFT dimensions: (  75,  75,  72)

     Estimated max dynamical RAM per process >     168.14 MB

     Estimated total dynamical RAM >     646.75 MB

     Initial potential from superposition of free atoms

     starting charge     255.9608, renormalised to     256.0000
     Starting wfcs are  256 randomized atomic wfcs

     total cpu time spent up to now is        5.0 secs

     Self-consistent Calculation

     iteration #  1     ecut=    30.00 Ry     beta= 0.50
     Davidson diagonalization with overlap
     ethr =  1.00E-02,  avg # of iterations =  3.0

     Threshold (ethr) on eigenvalues was too large:
     Diagonalizing with lowered threshold

     Davidson diagonalization with overlap
     ethr =  7.29E-04,  avg # of iterations =  4.0

     total cpu time spent up to now is        5.4 secs

     total energy              =    -501.46010683 Ry
     estimated scf accuracy    <       2.18567517 Ry

     iteration #  2     ecut=    30.00 Ry     beta= 0.50
     Davidson diagonalization with overlap
     ethr =  8.54E-04,  avg # of iterations =  4.0

     total cpu time spent up to now is        5.5 secs

     total energy              =    -501.03593332 Ry
     estimated scf accuracy    <       3.98700103 Ry

     iteration #  3     ecut=    30.00 Ry     beta= 0.50
     Davidson diagonalization with overlap
     ethr =  8.54E-04,  avg # of iterations =  4.0

     total cpu time spent up to now is        5.6 secs

     total energy              =    -501.55827094 Ry
     estimated scf accuracy    <       1.84497823 Ry

     iteration #  4     ecut=    30.00 Ry     beta= 0.50
     Davidson diagonalization with overlap
     ethr =  7.21E-04,  avg # of iterations =  2.0

     total cpu time spent up to now is        5.7 secs

     total energy              =    -501.71146410 Ry
     estimated scf accuracy    <       0.33251793 Ry

     iteration #  5     ecut=    30.00 Ry     beta= 0.50
     Davidson diagonalization with overlap
     ethr =  1.30E-04,  avg # of iterations =  4.0

     total cpu time spent up to now is        5.9 secs

     total energy              =    -501.75479657 Ry
     estimated scf accuracy    <       0.14345968 Ry

     iteration #  6     ecut=    30.00 Ry     beta= 0.50
     Davidson diagonalization with overlap
     ethr =  5.60E-05,  avg # of iterations =  3.0

     total cpu time spent up to now is        6.0 secs

     total energy              =    -501.77314148 Ry
     estimated scf accuracy    <       0.03065987 Ry

     iteration #  7     ecut=    30.00 Ry     beta= 0.50
     Davidson diagonalization with overlap
     ethr =  1.20E-05,  avg # of iterations = 16.0

     total cpu time spent up to now is        6.2 secs

     total energy              =    -501.77701413 Ry
     estimated scf accuracy    <       0.00590198 Ry

     iteration #  8     ecut=    30.00 Ry     beta= 0.50
     Davidson diagonalization with overlap
     ethr =  2.31E-06,  avg # of iterations =  6.0

     total cpu time spent up to now is        6.3 secs

     total energy              =    -501.77753598 Ry
     estimated scf accuracy    <       0.00527128 Ry

     iteration #  9     ecut=    30.00 Ry     beta= 0.50
     Davidson diagonalization with overlap
     ethr =  2.06E-06,  avg # of iterations =  3.0

     total cpu time spent up to now is        6.4 secs

     total energy              =    -501.77820831 Ry
     estimated scf accuracy    <       0.00030024 Ry

     iteration # 10     ecut=    30.00 Ry     beta= 0.50
     Davidson diagonalization with overlap
     ethr =  1.17E-07,  avg # of iterations =  5.0

     total cpu time spent up to now is        6.6 secs

     total energy              =    -501.77825506 Ry
     estimated scf accuracy    <       0.00016615 Ry

     iteration # 11     ecut=    30.00 Ry     beta= 0.50
     Davidson diagonalization with overlap
     ethr =  6.49E-08,  avg # of iterations =  3.0

     total cpu time spent up to now is        6.7 secs

     total energy              =    -501.77827257 Ry
     estimated scf accuracy    <       0.00010452 Ry

     iteration # 12     ecut=    30.00 Ry     beta= 0.50
     Davidson diagonalization with overlap
     ethr =  4.08E-08,  avg # of iterations =  2.0

     total cpu time spent up to now is        6.8 secs

     total energy              =    -501.77828468 Ry
     estimated scf accuracy    <       0.00001566 Ry

     iteration # 13     ecut=    30.00 Ry     beta= 0.50
     Davidson diagonalization with overlap
     ethr =  6.12E-09,  avg # of iterations =  4.0

     total cpu time spent up to now is        7.0 secs

     total energy              =    -501.77828690 Ry
     estimated scf accuracy    <       0.00000275 Ry

     iteration # 14     ecut=    30.00 Ry     beta= 0.50
     Davidson diagonalization with overlap
     ethr =  1.07E-09,  avg # of iterations =  4.0

     total cpu time spent up to now is        7.1 secs

     End of self-consistent calculation

          k = 0.0000 0.0000 0.0000 ( 13186 PWs)   bands (ev):

    -6.6062  -5.9151  -5.7100  -5.6076  -5.5558  -5.3245  -5.2355  -5.1186
    -4.9043  -4.7554  -4.6806  -4.6048  -4.4946  -4.4182  -4.3085  -4.2619
    -4.2036  -4.0755  -4.0407  -3.9861  -3.9719  -3.8218  -3.5108  -3.1360
    -2.9268  -2.8782  -2.8001  -2.6367  -2.5979  -2.5700  -2.4426  -2.3820
    -2.3018  -2.1913  -2.0643  -2.0197  -1.9136  -1.8855  -1.7484  -1.6818
    -1.6278  -1.5262  -1.3938  -1.2761  -0.9134  -0.7065  -0.5636  -0.4394
    -0.3829  -0.2617  -0.1469  -0.1183   0.0132   0.0411   0.1277   0.2490
     0.3170   0.8897   1.0238   1.0683   1.1575   1.2707   1.3334   1.3806
     1.4276   1.5171   1.5450   1.5661   1.5971   1.6552   1.6853   1.7501
     1.7573   1.8257   1.8667   1.9403   1.9468   2.0107   2.0339   2.0665
     2.1271   2.1595   2.1975   2.2249   2.3151   2.3230   2.3914   2.4164
     2.4665   2.5736   2.6531   2.7253   2.8182   2.8784   3.1805   3.1975
     3.2883   3.3087   3.3918   3.4407   3.4503   3.5391   3.6195   3.6660
     3.7234   3.8058   3.8218   3.9142   3.9255   3.9866   4.0878   4.1120
     4.1704   4.2002   4.2795   4.2914   4.3681   4.5218   4.5482   4.5796
     4.6658   4.6932   4.7854   4.8349   4.9573   5.2283   5.3114   5.4681
     5.5492   5.6058   5.7031   5.8206   5.8733   5.9888   6.0192   6.0913
     6.1300   6.1923   6.2738   6.3155   6.4036   6.4488   6.4852   6.6251
     6.7477   6.7921   6.8502   6.9857   7.0123   7.1293   7.1931   7.2289
     7.3001   7.3700

     the Fermi energy is     5.4657 ev

!    total energy              =    -501.77828702 Ry
     estimated scf accuracy    <       0.00000088 Ry
     smearing contrib. (-TS)   =      -0.08824250 Ry
     internal energy E=F+TS    =    -501.69004453 Ry

     The total energy is F=E-TS. E is the sum of the following terms:
     one-electron contribution =     110.11059470 Ry
     hartree contribution      =      47.17433973 Ry
     xc contribution           =    -151.17879783 Ry
     ewald contribution        =    -507.79618112 Ry

     convergence has been achieved in  14 iterations

     Forces acting on atoms (cartesian axes, Ry/au):

     atom    1 type  1   force =     0.20780923   -0.20997815    0.16560982
     atom    2 type  1   force =     0.17100010   -0.09333076    0.08715687
     atom    3 type  1   force =    -0.03081667   -0.10341124    0.00209491
     atom    4 type  1   force =     0.15510859   -0.15426081    0.16403774
     atom    5 type  1   force =     0.01166486    0.07468214   -0.03847348
     atom    6 type  1   force =    -0.03342774   -0.04518909   -0.02734121
     atom    7 type  1   force =     0.00985222   -0.10954433   -0.01088136
     atom    8 type  1   force =    -0.02206286    0.07812468   -0.00721982
     atom    9 type  1   force =     0.05075659   -0.08804110    0.04875359
     atom   10 type  1   force =    -0.01614531   -0.06130073    0.07984119
     atom   11 type  1   force =     0.13837667    0.08142484   -0.07313548
     atom   12 type  1   force =     0.00428970    0.02731556   -0.02181684
     atom   13 type  1   force =    -0.00922882    0.01562244    0.01331828
     atom   14 type  1   force =    -0.12100237   -0.05321315    0.02417050
     atom   15 type  1   force =     0.07768067    0.06788186   -0.06323973
     atom   16 type  1   force =    -0.07637445    0.06908999   -0.05775061
     atom   17 type  1   force =    -0.15379748    0.05099405   -0.05716070
     atom   18 type  1   force =     0.01488401   -0.01921368    0.09538172
     atom   19 type  1   force =     0.06394829    0.01562010   -0.03962524
     atom   20 type  1   force =    -0.17298576    0.16312528    0.16520780
     atom   21 type  1   force =     0.04207947    0.03089872   -0.03214299
     atom   22 type  1   force =     0.02432274   -0.04392342    0.02817654
     atom   23 type  1   force =    -0.08373671    0.09638203    0.11085220
     atom   24 type  1   force =    -0.09592106   -0.01514037    0.00923766
     atom   25 type  1   force =     0.29025071   -0.41592669    0.42285309
     atom   26 type  1   force =    -0.09206494   -0.10877808   -0.08047954
     atom   27 type  1   force =    -0.00412064    0.04119523   -0.04962453
     atom   28 type  1   force =     0.02255795    0.10114405    0.03648985
     atom   29 type  1   force =     0.02786299   -0.08092854    0.03775882
     atom   30 type  1   force =    -0.02041806   -0.04532340   -0.01233391
     atom   31 type  1   force =    -0.31851462    0.35840666   -0.37732668
     atom   32 type  1   force =     0.03969086   -0.00000450    0.00255463
     atom   33 type  1   force =     0.03004410   -0.02253369    0.03892115
     atom   34 type  1   force =     0.22436126   -0.11720678    0.13638465
     atom   35 type  1   force =     0.04690653   -0.05926040   -0.12739549
     atom   36 type  1   force =     0.01397111    0.03695417    0.02952439
     atom   37 type  1   force =    -0.10852624    0.10017339   -0.09955761
     atom   38 type  1   force =     0.04740226    0.04706483    0.10092342
     atom   39 type  1   force =     0.12945631   -0.06137043    0.06931743
     atom   40 type  1   force =     0.03005721   -0.01818106   -0.06299688
     atom   41 type  1   force =    -0.17500657    0.16425585   -0.20060999
     atom   42 type  1   force =    -0.09568117   -0.02908848    0.08000317
     atom   43 type  1   force =     0.00445164    0.04285132    0.01199984
     atom   44 type  1   force =     0.04936903    0.00480269    0.02890839
     atom   45 type  1   force =    -0.02534716    0.08199491   -0.02057470
     atom   46 type  1   force =    -0.02664663    0.06397221   -0.03615356
     atom   47 type  1   force =    -0.03857834    0.01055147    0.07021034
     atom   48 type  1   force =    -0.10879330    0.07776371   -0.08717256
     atom   49 type  1   force =     0.07628317    0.02831257   -0.05000432
     atom   50 type  1   force =    -0.00957536   -0.08672775   -0.05388325
     atom   51 type  1   force =     0.07407511    0.06848084    0.06505676
     atom   52 type  1   force =    -0.07632990   -0.06020353   -0.06163781
     atom   53 type  1   force =    -0.04909221   -0.01931403    0.01220085
     atom   54 type  1   force =    -0.18441932    0.11274001   -0.19014262
     atom   55 type  1   force =    -0.16594431    0.12572289   -0.10873491
     atom   56 type  1   force =     0.08684629   -0.03004281    0.02136722
     atom   57 type  1   force =    -0.03802053    0.10745628   -0.00735076
     atom   58 type  1   force =     0.17594101   -0.17172228   -0.14748904
     atom   59 type  1   force =     0.00006852   -0.04228693   -0.05855296
     atom   60 type  1   force =     0.00861860   -0.12928153   -0.00118135
     atom   61 type  1   force =     0.06267096    0.07790325    0.06408730
     atom   62 type  1   force =    -0.02890609   -0.00312136    0.00559394
     atom   63 type  1   force =    -0.04712631   -0.00167183    0.02119984
     atom   64 type  1   force =     0.01595214    0.07661290    0.01279604

     Total force =     1.452023     Total SCF correction =     0.001554


     Computing stress (Cartesian axis) and pressure

          total   stress  (Ry/bohr**3)                   (kbar)     P=        1.60
  -0.00022914  -0.00025467   0.00019150          -33.71      -37.46       28.17
  -0.00025467   0.00008719  -0.00035323          -37.46       12.83      -51.96
   0.00019150  -0.00035323   0.00017469           28.17      -51.96       25.70

 
     init_run     :      1.05s CPU      4.97s WALL (       1 calls)
     electrons    :      1.86s CPU      2.02s WALL (       1 calls)
     forces       :      0.04s CPU      0.05s WALL (       1 calls)
     stress       :      0.17s CPU      0.18s WALL (       1 calls)

     Called by init_run:
     wfcinit      :      0.52s CPU      4.26s WALL (       1 calls)
                                        4.26s GPU  (       1 calls)
     potinit      :      0.22s CPU      0.32s WALL (       1 calls)
     hinit0       :      0.29s CPU      0.31s WALL (       1 calls)

     Called by electrons:
     c_bands      :      1.18s CPU      1.25s WALL (      15 calls)
     sum_band     :      0.36s CPU      0.40s WALL (      15 calls)
     v_of_rho     :      0.17s CPU      0.28s WALL (      15 calls)
     mix_rho      :      0.15s CPU      0.17s WALL (      15 calls)

     Called by c_bands:
     init_us_2    :      0.05s CPU      0.06s WALL (      31 calls)
     init_us_2:gp :      0.05s CPU      0.06s WALL (      31 calls)
     regterg      :      1.04s CPU      1.10s WALL (      15 calls)

     Called by *egterg:
     rdiaghg      :      0.38s CPU      1.15s WALL (      81 calls)
                                        1.13s GPU  (      81 calls)
     h_psi        :      1.01s CPU      4.01s WALL (      83 calls)
                                        4.01s GPU  (      83 calls)
     g_psi        :      0.00s CPU      0.00s WALL (      67 calls)
                                        0.00s GPU  (      67 calls)

     Called by h_psi:
     h_psi:calbec :      0.47s CPU      3.40s WALL (      83 calls)
                                        3.40s GPU  (      83 calls)
     vloc_psi     :      0.48s CPU      0.55s WALL (      83 calls)
                                        0.55s GPU  (      83 calls)
     add_vuspsi   :      0.03s CPU      0.05s WALL (      83 calls)
                                        0.05s GPU  (      83 calls)

     General routines
     calbec       :      0.48s CPU      3.40s WALL (      88 calls)
     fft          :      0.39s CPU      0.53s WALL (     127 calls)
                                        0.13s GPU  (      81 calls)
     ffts         :      0.05s CPU      0.06s WALL (      15 calls)
     fftw         :      0.52s CPU      0.70s WALL (    1611 calls)
                                        0.63s GPU  (    1611 calls)
 
     Parallel routines
 
     PWSCF        :      3.18s CPU      7.31s WALL

 
   This run was terminated on:  11:35:55  10May2023            

=------------------------------------------------------------------------------=
   JOB DONE.
=------------------------------------------------------------------------------=
