An instance of this daemon is already running
An instance of this daemon is already running

     Program PWSCF v.7.1 starts on 10May2023 at 11:35:38 

     This program is part of the open-source Quantum ESPRESSO suite
     for quantum simulation of materials; please cite
         "P. Giannozzi et al., J. Phys.:Condens. Matter 21 395502 (2009);
         "P. Giannozzi et al., J. Phys.:Condens. Matter 29 465901 (2017);
         "P. Giannozzi et al., J. Chem. Phys. 152 154105 (2020);
          URL http://www.quantum-espresso.org", 
     in publications or presentations arising from this work. More details at
     http://www.quantum-espresso.org/quote

     Parallel version (MPI & OpenMP), running on       4 processor cores
     Number of MPI processes:                 4
     Threads/MPI process:                     1

     MPI processes distributed on     1 nodes
     706973 MiB available memory on the printing compute node when the environment starts
 
     Reading input from pw-si-33.in
Warning: card &CELL ignored
Warning: card / ignored

     Current dimensions of program PWSCF are:
     Max number of different atomic species (ntypx) = 10
     Max number of k-points (npk) =  40000
     Max angular momentum in pseudopotentials (lmaxx) =  4

     IMPORTANT: XC functional enforced from input :
     Exchange-correlation= PBE
                           (   1   4   3   4   0   0   0)
     Any further DFT definition will be discarded
     Please, verify this is what you really want


     gamma-point specific algorithms are used
 
     K-points division:     npool     =       2
     R & G space division:  proc/nbgrp/npool/nimage =       2
     Subspace diagonalization in iterative solution of the eigenvalue problem:
     a serial algorithm will be used

     Message from routine divide_et_impera:
     suboptimal parallelization: some nodes have no k-points
 
     Parallelization info
     --------------------
     sticks:   dense  smooth     PW     G-vecs:    dense   smooth      PW
     Min        2044    2044    539                97065    97065   13214
     Max        2047    2047    542                97068    97068   13215
     Sum        4091    4091   1081               194133   194133   26429
 
     Using Slab Decomposition
 


     bravais-lattice index     =            0
     lattice parameter (alat)  =      19.9262  a.u.
     unit-cell volume          =    8743.2927 (a.u.)^3
     number of atoms/cell      =           64
     number of atomic types    =            1
     number of electrons       =       256.00
     number of Kohn-Sham states=          154
     kinetic-energy cutoff     =      30.0000  Ry
     charge density cutoff     =     120.0000  Ry
     scf convergence threshold =      1.0E-06
     mixing beta               =       0.5000
     number of iterations used =            8  plain     mixing
     Exchange-correlation= PBE
                           (   1   4   3   4   0   0   0)

     GPU acceleration is ACTIVE.
     GPU-aware MPI enabled

     Message from routine print_cuda_info:
     High GPU oversubscription detected. Are you sure this is what you want?

     celldm(1)=  19.926180  celldm(2)=   0.000000  celldm(3)=   0.000000
     celldm(4)=   0.000000  celldm(5)=   0.000000  celldm(6)=   0.000000

     crystal axes: (cart. coord. in units of alat)
               a(1) = (   1.000000   0.000000   0.000000 )  
               a(2) = (   0.000000   1.078610   0.000000 )  
               a(3) = (   0.000000   0.000000   1.024562 )  

     reciprocal axes: (cart. coord. in units 2 pi/alat)
               b(1) = (  1.000000  0.000000  0.000000 )  
               b(2) = (  0.000000  0.927119  0.000000 )  
               b(3) = (  0.000000  0.000000  0.976027 )  


     PseudoPot. # 1 for Si read from file:
     /home/ppiaggi/pseudos/Si_ONCV_PBE_sr.upf
     MD5 check sum: 8553c464762ac42b85b1eed164b4d029
     Pseudo is Norm-conserving, Zval =  4.0
     Generated using ONCVPSP code by D. R. Hamann
     Using radial grid of 1510 points,  4 beta functions with: 
                l(1) =   0
                l(2) =   0
                l(3) =   1
                l(4) =   1

     atomic species   valence    mass     pseudopotential
        Si             4.00    28.08500     Si( 1.00)

     No symmetry found



   Cartesian axes

     site n.     atom                  positions (alat units)
         1           Si  tau(   1) = (   0.0011898  -0.0060152  -0.0125849  )
         2           Si  tau(   2) = (   0.0116501   0.2492222   0.2626186  )
         3           Si  tau(   3) = (   0.2296658   0.0160876   0.2507213  )
         4           Si  tau(   4) = (   0.2355356   0.2565028   0.0160625  )
         5           Si  tau(   5) = (   0.1264721   0.1341555   0.1339807  )
         6           Si  tau(   6) = (   0.4785698  -0.0166677  -0.0054217  )
         7           Si  tau(   7) = (   0.4916413   0.2540196   0.2597716  )
         8           Si  tau(   8) = (   0.6343871   0.1391715   0.1240387  )
         9           Si  tau(   9) = (   0.7296223   0.0095463   0.2545843  )
        10           Si  tau(  10) = (   0.7572330   0.2672499   0.0163402  )
        11           Si  tau(  11) = (   0.0068842   0.5350464  -0.0009684  )
        12           Si  tau(  12) = (   0.2534128   0.5359654   0.2394770  )
        13           Si  tau(  13) = (   0.1397870   0.6534744   0.1149788  )
        14           Si  tau(  14) = (   0.3866797   0.3958540   0.1461028  )
        15           Si  tau(  15) = (   0.4769126   0.5162862  -0.0063474  )
        16           Si  tau(  16) = (   0.6131621   0.6496123   0.1132056  )
        17           Si  tau(  17) = (   0.8688647   0.3731235   0.1185039  )
        18           Si  tau(  18) = (   0.7293784   0.5355537   0.2723605  )
        19           Si  tau(  19) = (   0.0110095   0.7747594   0.2561485  )
        20           Si  tau(  20) = (   0.2565968   0.7857019  -0.0027584  )
        21           Si  tau(  21) = (   0.3827242   0.9132928   0.1387687  )
        22           Si  tau(  22) = (   0.4976767   0.7684165   0.2519534  )
        23           Si  tau(  23) = (   0.7416279   0.7929365  -0.0032105  )
        24           Si  tau(  24) = (   0.8703396   0.8972154   0.1396149  )
        25           Si  tau(  25) = (   0.0073536  -0.0152083   0.5159119  )
        26           Si  tau(  26) = (   0.2541018   0.2679613   0.5325561  )
        27           Si  tau(  27) = (   0.1304778   0.1449110   0.6519622  )
        28           Si  tau(  28) = (   0.3595653   0.1175859   0.4026803  )
        29           Si  tau(  29) = (   0.4807219  -0.0130610   0.5100535  )
        30           Si  tau(  30) = (   0.6033339   0.1392489   0.6517708  )
        31           Si  tau(  31) = (   0.8509481   0.1272585   0.3914716  )
        32           Si  tau(  32) = (   0.7272352   0.2473357   0.4992807  )
        33           Si  tau(  33) = (   0.1224254   0.3955208   0.3832635  )
        34           Si  tau(  34) = (   0.0127168   0.5099404   0.5178872  )
        35           Si  tau(  35) = (   0.1342473   0.6322919   0.6333294  )
        36           Si  tau(  36) = (   0.6287992   0.3938392   0.3743346  )
        37           Si  tau(  37) = (   0.3870361   0.6448155   0.3796295  )
        38           Si  tau(  38) = (   0.3826923   0.3854451   0.6383326  )
        39           Si  tau(  39) = (   0.4923876   0.5250552   0.5102108  )
        40           Si  tau(  40) = (   0.6214758   0.6446031   0.6361007  )
        41           Si  tau(  41) = (   0.8659904   0.6396365   0.3917872  )
        42           Si  tau(  42) = (   0.8704601   0.3775758   0.6502587  )
        43           Si  tau(  43) = (   0.1302197   0.9074550   0.3877327  )
        44           Si  tau(  44) = (   0.2480026   0.7873810   0.5203589  )
        45           Si  tau(  45) = (   0.6327351   0.9117005   0.4031735  )
        46           Si  tau(  46) = (   0.3819741   0.9118052   0.6472600  )
        47           Si  tau(  47) = (   0.7332405   0.7613948   0.5147899  )
        48           Si  tau(  48) = (   0.8585552   0.9116767   0.6487704  )
        49           Si  tau(  49) = (  -0.0113306   0.2584876   0.7818237  )
        50           Si  tau(  50) = (   0.2522940  -0.0094807   0.7648332  )
        51           Si  tau(  51) = (   0.3690949   0.1324627   0.8922920  )
        52           Si  tau(  52) = (   0.5031019   0.2405297   0.7820539  )
        53           Si  tau(  53) = (   0.7305439  -0.0121092   0.7743949  )
        54           Si  tau(  54) = (   0.8583016   0.1133173   0.9195356  )
        55           Si  tau(  55) = (   0.1374858   0.3731768   0.9008744  )
        56           Si  tau(  56) = (   0.2629173   0.5166097   0.7803032  )
        57           Si  tau(  57) = (   0.6096879   0.3984719   0.9167478  )
        58           Si  tau(  58) = (   0.3751703   0.6605271   0.8971578  )
        59           Si  tau(  59) = (   0.7503491   0.5093732   0.7838449  )
        60           Si  tau(  60) = (   0.8691857   0.6609625   0.8857561  )
        61           Si  tau(  61) = (   0.0139157   0.7708380   0.7568467  )
        62           Si  tau(  62) = (   0.1119615   0.9073146   0.9057505  )
        63           Si  tau(  63) = (   0.5060965   0.7641338   0.7880474  )
        64           Si  tau(  64) = (   0.6157601   0.9133607   0.9020576  )

     number of k points=     1  Fermi-Dirac smearing, width (Ry)=  0.0100
                       cart. coord. in units 2pi/alat
        k(    1) = (   0.0000000   0.0000000   0.0000000), wk =   2.0000000

     Dense  grid:    97067 G-vectors     FFT dimensions: (  72,  75,  72)

     Estimated max dynamical RAM per process >     155.20 MB

     Estimated total dynamical RAM >     597.08 MB

     Initial potential from superposition of free atoms

     starting charge     255.9608, renormalised to     256.0000
     Starting wfcs are  256 randomized atomic wfcs

     total cpu time spent up to now is        5.1 secs

     Self-consistent Calculation

     iteration #  1     ecut=    30.00 Ry     beta= 0.50
     Davidson diagonalization with overlap
     ethr =  1.00E-02,  avg # of iterations =  3.0

     Threshold (ethr) on eigenvalues was too large:
     Diagonalizing with lowered threshold

     Davidson diagonalization with overlap
     ethr =  7.20E-04,  avg # of iterations =  4.0

     total cpu time spent up to now is        5.4 secs

     total energy              =    -502.55683474 Ry
     estimated scf accuracy    <       2.08649654 Ry

     iteration #  2     ecut=    30.00 Ry     beta= 0.50
     Davidson diagonalization with overlap
     ethr =  8.15E-04,  avg # of iterations =  4.0

     total cpu time spent up to now is        5.5 secs

     total energy              =    -502.24562444 Ry
     estimated scf accuracy    <       2.04070147 Ry

     iteration #  3     ecut=    30.00 Ry     beta= 0.50
     Davidson diagonalization with overlap
     ethr =  7.97E-04,  avg # of iterations =  4.0

     total cpu time spent up to now is        5.6 secs

     total energy              =    -502.45534750 Ry
     estimated scf accuracy    <       2.50036969 Ry

     iteration #  4     ecut=    30.00 Ry     beta= 0.50
     Davidson diagonalization with overlap
     ethr =  7.97E-04,  avg # of iterations =  3.0

     total cpu time spent up to now is        5.7 secs

     total energy              =    -502.69858454 Ry
     estimated scf accuracy    <       0.14474119 Ry

     iteration #  5     ecut=    30.00 Ry     beta= 0.50
     Davidson diagonalization with overlap
     ethr =  5.65E-05,  avg # of iterations = 15.0

     total cpu time spent up to now is        5.9 secs

     total energy              =    -502.72619797 Ry
     estimated scf accuracy    <       0.06380559 Ry

     iteration #  6     ecut=    30.00 Ry     beta= 0.50
     Davidson diagonalization with overlap
     ethr =  2.49E-05,  avg # of iterations = 10.0

     total cpu time spent up to now is        6.1 secs

     total energy              =    -502.73308536 Ry
     estimated scf accuracy    <       0.01646578 Ry

     iteration #  7     ecut=    30.00 Ry     beta= 0.50
     Davidson diagonalization with overlap
     ethr =  6.43E-06,  avg # of iterations = 18.0

     total cpu time spent up to now is        6.3 secs

     total energy              =    -502.73482542 Ry
     estimated scf accuracy    <       0.00161742 Ry

     iteration #  8     ecut=    30.00 Ry     beta= 0.50
     Davidson diagonalization with overlap
     ethr =  6.32E-07,  avg # of iterations =  6.0

     total cpu time spent up to now is        6.4 secs

     total energy              =    -502.73520004 Ry
     estimated scf accuracy    <       0.00112139 Ry

     iteration #  9     ecut=    30.00 Ry     beta= 0.50
     Davidson diagonalization with overlap
     ethr =  4.38E-07,  avg # of iterations =  3.0

     total cpu time spent up to now is        6.5 secs

     total energy              =    -502.73525292 Ry
     estimated scf accuracy    <       0.00045072 Ry

     iteration # 10     ecut=    30.00 Ry     beta= 0.50
     Davidson diagonalization with overlap
     ethr =  1.76E-07,  avg # of iterations =  2.0

     total cpu time spent up to now is        6.6 secs

     total energy              =    -502.73529058 Ry
     estimated scf accuracy    <       0.00005219 Ry

     iteration # 11     ecut=    30.00 Ry     beta= 0.50
     Davidson diagonalization with overlap
     ethr =  2.04E-08,  avg # of iterations =  5.0

     total cpu time spent up to now is        6.7 secs

     total energy              =    -502.73530191 Ry
     estimated scf accuracy    <       0.00001823 Ry

     iteration # 12     ecut=    30.00 Ry     beta= 0.50
     Davidson diagonalization with overlap
     ethr =  7.12E-09,  avg # of iterations =  3.0

     total cpu time spent up to now is        6.8 secs

     total energy              =    -502.73530383 Ry
     estimated scf accuracy    <       0.00001036 Ry

     iteration # 13     ecut=    30.00 Ry     beta= 0.50
     Davidson diagonalization with overlap
     ethr =  4.05E-09,  avg # of iterations =  2.0

     total cpu time spent up to now is        6.9 secs

     total energy              =    -502.73530452 Ry
     estimated scf accuracy    <       0.00000183 Ry

     iteration # 14     ecut=    30.00 Ry     beta= 0.50
     Davidson diagonalization with overlap
     ethr =  7.16E-10,  avg # of iterations =  4.0

     total cpu time spent up to now is        7.0 secs

     End of self-consistent calculation

          k = 0.0000 0.0000 0.0000 ( 12137 PWs)   bands (ev):

    -6.0231  -5.2636  -5.0533  -4.9772  -4.9410  -4.7745  -4.6433  -4.4300
    -4.2592  -4.1535  -4.0663  -3.9968  -3.8892  -3.8393  -3.8310  -3.7768
    -3.7305  -3.6030  -3.5614  -3.5213  -3.4188  -3.3249  -2.9602  -2.2309
    -2.2082  -2.0080  -1.9831  -1.9156  -1.8814  -1.8425  -1.6776  -1.6522
    -1.6238  -1.5509  -1.4998  -1.4694  -1.3909  -1.3526  -1.2329  -1.0746
    -0.9863  -0.9147  -0.8066  -0.6971  -0.5660   0.2953   0.3633   0.3762
     0.4488   0.5323   0.5521   0.6330   0.6396   0.7044   0.7973   0.9477
     0.9756   1.7415   1.8145   1.8823   1.9132   1.9601   2.0392   2.0625
     2.0986   2.1323   2.1420   2.1725   2.2250   2.2543   2.2932   2.3309
     2.3575   2.3785   2.4164   2.4751   2.4949   2.5769   2.6057   2.6402
     2.7234   2.8012   2.8741   2.9049   2.9285   2.9675   3.0092   3.0526
     3.1529   3.3237   3.3466   3.5159   3.5553   3.8095   3.9066   3.9836
     4.0072   4.0987   4.1029   4.1368   4.2309   4.2675   4.3057   4.3887
     4.4489   4.4736   4.5704   4.5988   4.6727   4.6802   4.7463   4.7627
     4.7867   4.8983   4.9600   4.9729   5.0035   5.0897   5.1446   5.1757
     5.3119   5.3580   5.4683   5.5124   5.9831   6.1678   6.2372   6.2533
     6.4246   6.5997   6.6933   6.7435   6.7719   6.8179   6.9223   7.0152
     7.1224   7.1508   7.1629   7.2403   7.3046   7.3980   7.4537   7.4829
     7.8165   7.9480   7.9598   8.0061   8.1386   8.1847   8.2478   8.3741
     8.4001   8.4345

     the Fermi energy is     6.3687 ev

!    total energy              =    -502.73530482 Ry
     estimated scf accuracy    <       0.00000011 Ry
     smearing contrib. (-TS)   =      -0.08265867 Ry
     internal energy E=F+TS    =    -502.65264615 Ry

     The total energy is F=E-TS. E is the sum of the following terms:
     one-electron contribution =     139.67353162 Ry
     hartree contribution      =      40.32726893 Ry
     xc contribution           =    -153.69842515 Ry
     ewald contribution        =    -528.95502155 Ry

     convergence has been achieved in  14 iterations

     Forces acting on atoms (cartesian axes, Ry/au):

     atom    1 type  1   force =     0.03030463   -0.06082818    0.08330009
     atom    2 type  1   force =    -0.11127425    0.03863743    0.03452293
     atom    3 type  1   force =     0.11374138   -0.17302575    0.12354064
     atom    4 type  1   force =     0.14453777    0.03647015   -0.02553835
     atom    5 type  1   force =    -0.11806300   -0.04193373   -0.09565413
     atom    6 type  1   force =     0.05683680    0.00452523    0.02951520
     atom    7 type  1   force =     0.04135456   -0.04349406    0.04294135
     atom    8 type  1   force =    -0.12954977   -0.04360182   -0.00908179
     atom    9 type  1   force =     0.05453701   -0.11849497    0.04797987
     atom   10 type  1   force =    -0.16013782   -0.10951137   -0.19206003
     atom   11 type  1   force =    -0.05404287   -0.06936082   -0.04001298
     atom   12 type  1   force =     0.00931572   -0.06274342    0.10484376
     atom   13 type  1   force =    -0.05851440    0.04312951    0.01236597
     atom   14 type  1   force =    -0.07704486   -0.03301955   -0.05652307
     atom   15 type  1   force =     0.00665572    0.04735830    0.05692560
     atom   16 type  1   force =     0.02625504   -0.01024877    0.00452201
     atom   17 type  1   force =     0.20990999    0.21073186    0.19850695
     atom   18 type  1   force =     0.04511243    0.00916135   -0.13774745
     atom   19 type  1   force =    -0.02716706   -0.01776550    0.02120555
     atom   20 type  1   force =    -0.00024597    0.06977821    0.01828299
     atom   21 type  1   force =    -0.05322093    0.05593019   -0.02430477
     atom   22 type  1   force =     0.05841799    0.07460948    0.02867460
     atom   23 type  1   force =     0.03477958   -0.04246026    0.01783747
     atom   24 type  1   force =    -0.00140583    0.08718595   -0.00919645
     atom   25 type  1   force =    -0.04202177    0.00127306    0.00932742
     atom   26 type  1   force =    -0.04751142   -0.02054806   -0.10241706
     atom   27 type  1   force =    -0.04744364   -0.08597575    0.00503417
     atom   28 type  1   force =    -0.02346927    0.05459590   -0.07110444
     atom   29 type  1   force =     0.07991878   -0.05144046    0.05991940
     atom   30 type  1   force =     0.10089097   -0.15761744   -0.14053134
     atom   31 type  1   force =     0.13067341   -0.06721020   -0.04414915
     atom   32 type  1   force =    -0.00453211    0.07062847    0.10690796
     atom   33 type  1   force =     0.07886843   -0.03040703   -0.03724532
     atom   34 type  1   force =    -0.12499831   -0.00337710   -0.00243304
     atom   35 type  1   force =     0.04479865    0.04899616    0.04899085
     atom   36 type  1   force =    -0.09360992   -0.06328961    0.05858751
     atom   37 type  1   force =    -0.10313518    0.05072578    0.01052130
     atom   38 type  1   force =     0.05628082    0.03235287    0.08730934
     atom   39 type  1   force =     0.05108139   -0.06384401    0.01334443
     atom   40 type  1   force =    -0.03075439   -0.06301730    0.10199097
     atom   41 type  1   force =     0.08794587    0.03382475    0.01325981
     atom   42 type  1   force =    -0.02163241    0.01235261   -0.05043573
     atom   43 type  1   force =    -0.02716494    0.07924617   -0.02593334
     atom   44 type  1   force =     0.05089436   -0.03912748   -0.01340520
     atom   45 type  1   force =    -0.07080800    0.06057886   -0.08469624
     atom   46 type  1   force =    -0.01002763    0.01026062    0.01986284
     atom   47 type  1   force =     0.09555180    0.08549713   -0.00378433
     atom   48 type  1   force =     0.03929447    0.01520741   -0.02149625
     atom   49 type  1   force =     0.01528463   -0.05177343    0.03022618
     atom   50 type  1   force =    -0.01774593   -0.02837030    0.01244517
     atom   51 type  1   force =    -0.07359819   -0.05974245    0.07341316
     atom   52 type  1   force =    -0.04682771    0.18506050    0.06716182
     atom   53 type  1   force =     0.01092869   -0.00961923   -0.00207010
     atom   54 type  1   force =    -0.02176183    0.03583445   -0.09000661
     atom   55 type  1   force =    -0.06525406    0.08104478   -0.02466505
     atom   56 type  1   force =    -0.02925486   -0.02001956   -0.04401974
     atom   57 type  1   force =     0.07737747   -0.08936048   -0.06386088
     atom   58 type  1   force =    -0.06948011   -0.05616559    0.03551083
     atom   59 type  1   force =    -0.03370184    0.02023701   -0.04450741
     atom   60 type  1   force =     0.02643412   -0.00318914    0.04009138
     atom   61 type  1   force =    -0.04695090    0.03719559    0.00971703
     atom   62 type  1   force =     0.03038892    0.03762791   -0.04021308
     atom   63 type  1   force =     0.05692306    0.09033816   -0.11630305
     atom   64 type  1   force =    -0.02294328    0.07018694   -0.01519014

     Total force =     0.967010     Total SCF correction =     0.000384


     Computing stress (Cartesian axis) and pressure

          total   stress  (Ry/bohr**3)                   (kbar)     P=       41.89
   0.00036422  -0.00000860   0.00006615           53.58       -1.26        9.73
  -0.00000860   0.00014533  -0.00007020           -1.26       21.38      -10.33
   0.00006615  -0.00007020   0.00034468            9.73      -10.33       50.70

 
     init_run     :      1.21s CPU      5.07s WALL (       1 calls)
     electrons    :      1.79s CPU      1.91s WALL (       1 calls)
     forces       :      0.04s CPU      0.04s WALL (       1 calls)
     stress       :      0.16s CPU      0.16s WALL (       1 calls)

     Called by init_run:
     wfcinit      :      0.57s CPU      4.25s WALL (       1 calls)
                                        4.25s GPU  (       1 calls)
     potinit      :      0.20s CPU      0.30s WALL (       1 calls)
     hinit0       :      0.41s CPU      0.44s WALL (       1 calls)

     Called by electrons:
     c_bands      :      1.15s CPU      1.20s WALL (      15 calls)
     sum_band     :      0.33s CPU      0.36s WALL (      15 calls)
     v_of_rho     :      0.15s CPU      0.26s WALL (      15 calls)
     mix_rho      :      0.14s CPU      0.15s WALL (      15 calls)

     Called by c_bands:
     init_us_2    :      0.06s CPU      0.06s WALL (      31 calls)
     init_us_2:gp :      0.05s CPU      0.06s WALL (      31 calls)
     regterg      :      1.03s CPU      1.07s WALL (      15 calls)

     Called by *egterg:
     rdiaghg      :      0.44s CPU      1.21s WALL (     100 calls)
                                        1.19s GPU  (     100 calls)
     h_psi        :      0.97s CPU      3.91s WALL (     102 calls)
                                        3.91s GPU  (     102 calls)
     g_psi        :      0.00s CPU      0.00s WALL (      86 calls)
                                        0.00s GPU  (      86 calls)

     Called by h_psi:
     h_psi:calbec :      0.53s CPU      3.40s WALL (     102 calls)
                                        3.40s GPU  (     102 calls)
     vloc_psi     :      0.38s CPU      0.44s WALL (     102 calls)
                                        0.44s GPU  (     102 calls)
     add_vuspsi   :      0.04s CPU      0.06s WALL (     102 calls)
                                        0.06s GPU  (     102 calls)

     General routines
     calbec       :      0.53s CPU      3.40s WALL (     107 calls)
     fft          :      0.50s CPU      0.64s WALL (     127 calls)
                                        0.13s GPU  (      81 calls)
     ffts         :      0.04s CPU      0.05s WALL (      15 calls)
     fftw         :      0.44s CPU      0.58s WALL (    1643 calls)
                                        0.51s GPU  (    1643 calls)
 
     Parallel routines
 
     PWSCF        :      3.25s CPU      7.27s WALL

 
   This run was terminated on:  11:35:45  10May2023            

=------------------------------------------------------------------------------=
   JOB DONE.
=------------------------------------------------------------------------------=
