An instance of this daemon is already running
An instance of this daemon is already running

     Program PWSCF v.7.1 starts on 10May2023 at 11:46:17 

     This program is part of the open-source Quantum ESPRESSO suite
     for quantum simulation of materials; please cite
         "P. Giannozzi et al., J. Phys.:Condens. Matter 21 395502 (2009);
         "P. Giannozzi et al., J. Phys.:Condens. Matter 29 465901 (2017);
         "P. Giannozzi et al., J. Chem. Phys. 152 154105 (2020);
          URL http://www.quantum-espresso.org", 
     in publications or presentations arising from this work. More details at
     http://www.quantum-espresso.org/quote

     Parallel version (MPI & OpenMP), running on       4 processor cores
     Number of MPI processes:                 4
     Threads/MPI process:                     1

     MPI processes distributed on     1 nodes
     707046 MiB available memory on the printing compute node when the environment starts
 
     Reading input from pw-si-99.in
Warning: card &CELL ignored
Warning: card / ignored

     Current dimensions of program PWSCF are:
     Max number of different atomic species (ntypx) = 10
     Max number of k-points (npk) =  40000
     Max angular momentum in pseudopotentials (lmaxx) =  4

     IMPORTANT: XC functional enforced from input :
     Exchange-correlation= PBE
                           (   1   4   3   4   0   0   0)
     Any further DFT definition will be discarded
     Please, verify this is what you really want


     gamma-point specific algorithms are used
 
     K-points division:     npool     =       2
     R & G space division:  proc/nbgrp/npool/nimage =       2
     Subspace diagonalization in iterative solution of the eigenvalue problem:
     a serial algorithm will be used

     Message from routine divide_et_impera:
     suboptimal parallelization: some nodes have no k-points
 
     Parallelization info
     --------------------
     sticks:   dense  smooth     PW     G-vecs:    dense   smooth      PW
     Min        2198    2198    584               108194   108194   14613
     Max        2199    2199    585               108195   108195   14616
     Sum        4397    4397   1169               216389   216389   29229
 
     Using Slab Decomposition
 


     bravais-lattice index     =            0
     lattice parameter (alat)  =      21.5227  a.u.
     unit-cell volume          =    9743.0517 (a.u.)^3
     number of atoms/cell      =           64
     number of atomic types    =            1
     number of electrons       =       256.00
     number of Kohn-Sham states=          154
     kinetic-energy cutoff     =      30.0000  Ry
     charge density cutoff     =     120.0000  Ry
     scf convergence threshold =      1.0E-06
     mixing beta               =       0.5000
     number of iterations used =            8  plain     mixing
     Exchange-correlation= PBE
                           (   1   4   3   4   0   0   0)

     GPU acceleration is ACTIVE.
     GPU-aware MPI enabled

     Message from routine print_cuda_info:
     High GPU oversubscription detected. Are you sure this is what you want?

     celldm(1)=  21.522724  celldm(2)=   0.000000  celldm(3)=   0.000000
     celldm(4)=   0.000000  celldm(5)=   0.000000  celldm(6)=   0.000000

     crystal axes: (cart. coord. in units of alat)
               a(1) = (   1.000000   0.000000   0.000000 )  
               a(2) = (   0.000000   0.994817   0.000000 )  
               a(3) = (   0.000000   0.000000   0.982336 )  

     reciprocal axes: (cart. coord. in units 2 pi/alat)
               b(1) = (  1.000000  0.000000  0.000000 )  
               b(2) = (  0.000000  1.005210  0.000000 )  
               b(3) = (  0.000000  0.000000  1.017982 )  


     PseudoPot. # 1 for Si read from file:
     /home/ppiaggi/pseudos/Si_ONCV_PBE_sr.upf
     MD5 check sum: 8553c464762ac42b85b1eed164b4d029
     Pseudo is Norm-conserving, Zval =  4.0
     Generated using ONCVPSP code by D. R. Hamann
     Using radial grid of 1510 points,  4 beta functions with: 
                l(1) =   0
                l(2) =   0
                l(3) =   1
                l(4) =   1

     atomic species   valence    mass     pseudopotential
        Si             4.00    28.08500     Si( 1.00)

     No symmetry found



   Cartesian axes

     site n.     atom                  positions (alat units)
         1           Si  tau(   1) = (  -0.0077105  -0.0089053  -0.0170423  )
         2           Si  tau(   2) = (  -0.0112462   0.2501672   0.2538443  )
         3           Si  tau(   3) = (   0.2563633   0.0111874   0.2529586  )
         4           Si  tau(   4) = (   0.2501163   0.2641298   0.0011953  )
         5           Si  tau(   5) = (   0.1187525   0.1163574   0.1365459  )
         6           Si  tau(   6) = (   0.4963943  -0.0066534   0.0102405  )
         7           Si  tau(   7) = (   0.5026845   0.2555652   0.2227326  )
         8           Si  tau(   8) = (   0.6499420   0.1434051   0.1188696  )
         9           Si  tau(   9) = (   0.7709317  -0.0087975   0.2555526  )
        10           Si  tau(  10) = (   0.7484669   0.2511208   0.0116642  )
        11           Si  tau(  11) = (   0.0085369   0.4976185   0.0140535  )
        12           Si  tau(  12) = (   0.2422875   0.5212311   0.2531702  )
        13           Si  tau(  13) = (   0.1164044   0.6477390   0.1165425  )
        14           Si  tau(  14) = (   0.3924014   0.3784220   0.1350752  )
        15           Si  tau(  15) = (   0.5028341   0.5173770  -0.0005829  )
        16           Si  tau(  16) = (   0.6477344   0.6403660   0.1173800  )
        17           Si  tau(  17) = (   0.8962257   0.3699038   0.1183559  )
        18           Si  tau(  18) = (   0.7770646   0.5173753   0.2507141  )
        19           Si  tau(  19) = (  -0.0051444   0.7589262   0.2349618  )
        20           Si  tau(  20) = (   0.2731574   0.7874862  -0.0089787  )
        21           Si  tau(  21) = (   0.3813437   0.8948070   0.1273894  )
        22           Si  tau(  22) = (   0.5088679   0.7587621   0.2313141  )
        23           Si  tau(  23) = (   0.7715561   0.7627356   0.0088575  )
        24           Si  tau(  24) = (   0.9008809   0.8966502   0.1201757  )
        25           Si  tau(  25) = (  -0.0022358   0.0031187   0.4952772  )
        26           Si  tau(  26) = (   0.2627465   0.2622229   0.4872111  )
        27           Si  tau(  27) = (   0.1105668   0.1448336   0.5842120  )
        28           Si  tau(  28) = (   0.3760742   0.1253958   0.3505318  )
        29           Si  tau(  29) = (   0.4947612  -0.0133182   0.4775491  )
        30           Si  tau(  30) = (   0.6267968   0.1391284   0.5807280  )
        31           Si  tau(  31) = (   0.8767786   0.1194946   0.3747339  )
        32           Si  tau(  32) = (   0.7837593   0.2401975   0.4790791  )
        33           Si  tau(  33) = (   0.1249369   0.3875322   0.3578528  )
        34           Si  tau(  34) = (   0.0021887   0.5250160   0.4761712  )
        35           Si  tau(  35) = (   0.1449491   0.6447156   0.6013777  )
        36           Si  tau(  36) = (   0.6243010   0.3949830   0.3743349  )
        37           Si  tau(  37) = (   0.3722652   0.6473613   0.3712218  )
        38           Si  tau(  38) = (   0.3795553   0.3690559   0.5898962  )
        39           Si  tau(  39) = (   0.5037474   0.5173969   0.4610574  )
        40           Si  tau(  40) = (   0.6446386   0.6510870   0.6019663  )
        41           Si  tau(  41) = (   0.9030072   0.6453825   0.3563493  )
        42           Si  tau(  42) = (   0.9054072   0.3931673   0.5852628  )
        43           Si  tau(  43) = (   0.1426206   0.9057346   0.3696092  )
        44           Si  tau(  44) = (   0.2625633   0.7912568   0.4629275  )
        45           Si  tau(  45) = (   0.6452579   0.9095503   0.3457766  )
        46           Si  tau(  46) = (   0.4014117   0.8914757   0.5830949  )
        47           Si  tau(  47) = (   0.7636322   0.7758011   0.4710134  )
        48           Si  tau(  48) = (   0.8765388   0.9067118   0.5985560  )
        49           Si  tau(  49) = (  -0.0182275   0.2563670   0.7178326  )
        50           Si  tau(  50) = (   0.2476115  -0.0030190   0.7181927  )
        51           Si  tau(  51) = (   0.3772387   0.1177713   0.8481009  )
        52           Si  tau(  52) = (   0.5278388   0.2653572   0.7166036  )
        53           Si  tau(  53) = (   0.7480685  -0.0181163   0.7142465  )
        54           Si  tau(  54) = (   0.8999296   0.1116419   0.8380279  )
        55           Si  tau(  55) = (   0.1313841   0.3982608   0.8496310  )
        56           Si  tau(  56) = (   0.2422489   0.5291921   0.7194524  )
        57           Si  tau(  57) = (   0.6329601   0.4029187   0.8288298  )
        58           Si  tau(  58) = (   0.3665734   0.6545822   0.8411128  )
        59           Si  tau(  59) = (   0.7617843   0.5329833   0.7245761  )
        60           Si  tau(  60) = (   0.9125987   0.6404828   0.8416284  )
        61           Si  tau(  61) = (   0.0077089   0.7721796   0.7153378  )
        62           Si  tau(  62) = (   0.1250143   0.8887874   0.8265999  )
        63           Si  tau(  63) = (   0.5105953   0.7838740   0.7015006  )
        64           Si  tau(  64) = (   0.6204216   0.8923468   0.8470237  )

     number of k points=     1  Fermi-Dirac smearing, width (Ry)=  0.0100
                       cart. coord. in units 2pi/alat
        k(    1) = (   0.0000000   0.0000000   0.0000000), wk =   2.0000000

     Dense  grid:   108195 G-vectors     FFT dimensions: (  75,  75,  75)

     Estimated max dynamical RAM per process >     172.39 MB

     Estimated total dynamical RAM >     663.16 MB

     Initial potential from superposition of free atoms

     starting charge     255.9608, renormalised to     256.0000
     Starting wfcs are  256 randomized atomic wfcs

     total cpu time spent up to now is        5.0 secs

     Self-consistent Calculation

     iteration #  1     ecut=    30.00 Ry     beta= 0.50
     Davidson diagonalization with overlap
     ethr =  1.00E-02,  avg # of iterations =  3.0

     Threshold (ethr) on eigenvalues was too large:
     Diagonalizing with lowered threshold

     Davidson diagonalization with overlap
     ethr =  6.15E-04,  avg # of iterations =  4.0

     total cpu time spent up to now is        5.3 secs

     total energy              =    -502.04547849 Ry
     estimated scf accuracy    <       1.81227702 Ry

     iteration #  2     ecut=    30.00 Ry     beta= 0.50
     Davidson diagonalization with overlap
     ethr =  7.08E-04,  avg # of iterations =  3.0

     total cpu time spent up to now is        5.4 secs

     total energy              =    -501.81120127 Ry
     estimated scf accuracy    <       1.62313547 Ry

     iteration #  3     ecut=    30.00 Ry     beta= 0.50
     Davidson diagonalization with overlap
     ethr =  6.34E-04,  avg # of iterations =  5.0

     total cpu time spent up to now is        5.5 secs

     total energy              =    -501.96574125 Ry
     estimated scf accuracy    <       1.93029135 Ry

     iteration #  4     ecut=    30.00 Ry     beta= 0.50
     Davidson diagonalization with overlap
     ethr =  6.34E-04,  avg # of iterations =  2.0

     total cpu time spent up to now is        5.7 secs

     total energy              =    -502.15827227 Ry
     estimated scf accuracy    <       0.18418200 Ry

     iteration #  5     ecut=    30.00 Ry     beta= 0.50
     Davidson diagonalization with overlap
     ethr =  7.19E-05,  avg # of iterations =  4.0

     total cpu time spent up to now is        5.8 secs

     total energy              =    -502.18978119 Ry
     estimated scf accuracy    <       0.06746575 Ry

     iteration #  6     ecut=    30.00 Ry     beta= 0.50
     Davidson diagonalization with overlap
     ethr =  2.64E-05,  avg # of iterations =  9.0

     total cpu time spent up to now is        5.9 secs

     total energy              =    -502.19697977 Ry
     estimated scf accuracy    <       0.02112956 Ry

     iteration #  7     ecut=    30.00 Ry     beta= 0.50
     Davidson diagonalization with overlap
     ethr =  8.25E-06,  avg # of iterations =  7.0

     total cpu time spent up to now is        6.1 secs

     total energy              =    -502.19903762 Ry
     estimated scf accuracy    <       0.00264530 Ry

     iteration #  8     ecut=    30.00 Ry     beta= 0.50
     Davidson diagonalization with overlap
     ethr =  1.03E-06,  avg # of iterations =  6.0

     total cpu time spent up to now is        6.2 secs

     total energy              =    -502.19946888 Ry
     estimated scf accuracy    <       0.00222347 Ry

     iteration #  9     ecut=    30.00 Ry     beta= 0.50
     Davidson diagonalization with overlap
     ethr =  8.69E-07,  avg # of iterations =  3.0

     total cpu time spent up to now is        6.4 secs

     total energy              =    -502.19974323 Ry
     estimated scf accuracy    <       0.00042251 Ry

     iteration # 10     ecut=    30.00 Ry     beta= 0.50
     Davidson diagonalization with overlap
     ethr =  1.65E-07,  avg # of iterations =  2.0

     total cpu time spent up to now is        6.5 secs

     total energy              =    -502.19977282 Ry
     estimated scf accuracy    <       0.00008086 Ry

     iteration # 11     ecut=    30.00 Ry     beta= 0.50
     Davidson diagonalization with overlap
     ethr =  3.16E-08,  avg # of iterations =  5.0

     total cpu time spent up to now is        6.6 secs

     total energy              =    -502.19978265 Ry
     estimated scf accuracy    <       0.00003608 Ry

     iteration # 12     ecut=    30.00 Ry     beta= 0.50
     Davidson diagonalization with overlap
     ethr =  1.41E-08,  avg # of iterations =  3.0

     total cpu time spent up to now is        6.8 secs

     total energy              =    -502.19978849 Ry
     estimated scf accuracy    <       0.00001203 Ry

     iteration # 13     ecut=    30.00 Ry     beta= 0.50
     Davidson diagonalization with overlap
     ethr =  4.70E-09,  avg # of iterations =  2.0

     total cpu time spent up to now is        6.9 secs

     total energy              =    -502.19978937 Ry
     estimated scf accuracy    <       0.00000329 Ry

     iteration # 14     ecut=    30.00 Ry     beta= 0.50
     Davidson diagonalization with overlap
     ethr =  1.28E-09,  avg # of iterations =  3.0

     total cpu time spent up to now is        7.0 secs

     End of self-consistent calculation

          k = 0.0000 0.0000 0.0000 ( 13551 PWs)   bands (ev):

    -6.6446  -5.9681  -5.7094  -5.5981  -5.5178  -5.4914  -5.3405  -5.1059
    -4.8823  -4.8556  -4.8053  -4.6500  -4.5411  -4.5203  -4.3822  -4.3533
    -4.3213  -4.2523  -4.1691  -4.0728  -4.0243  -3.8892  -3.6718  -3.4647
    -3.0841  -2.9649  -2.8687  -2.7934  -2.7029  -2.6773  -2.5739  -2.4405
    -2.3796  -2.2721  -2.2095  -2.1822  -2.0514  -2.0009  -1.9210  -1.8923
    -1.7308  -1.6678  -1.4816  -1.3333  -1.0812  -0.8362  -0.6904  -0.5146
    -0.4681  -0.4228  -0.3411  -0.3109  -0.2292  -0.1443  -0.1175  -0.0441
     0.1266   0.8613   0.9320   0.9893   1.0364   1.1000   1.2043   1.2284
     1.2884   1.3636   1.3901   1.4341   1.4871   1.5299   1.5802   1.6381
     1.6613   1.7047   1.7663   1.8081   1.8478   1.8738   1.9133   1.9340
     1.9730   2.0039   2.0577   2.0965   2.1276   2.1604   2.2053   2.2178
     2.2525   2.3718   2.4054   2.5578   2.6575   2.7466   2.9397   3.0786
     3.1344   3.1852   3.2742   3.3028   3.3093   3.3853   3.4681   3.5147
     3.5265   3.5634   3.5955   3.6532   3.6917   3.8369   3.8910   3.9124
     3.9963   4.0157   4.0849   4.1194   4.1464   4.2095   4.2561   4.2955
     4.3715   4.4900   4.5044   4.5972   4.7709   5.0100   5.1751   5.3251
     5.3595   5.4121   5.4898   5.5897   5.7322   5.7917   5.8250   5.8728
     5.9044   5.9719   6.0338   6.0839   6.1772   6.2939   6.3728   6.4611
     6.5532   6.7173   6.7533   6.8173   6.8467   6.9325   6.9888   7.0285
     7.1307   7.1949

     the Fermi energy is     5.2843 ev

!    total energy              =    -502.19978960 Ry
     estimated scf accuracy    <       0.00000032 Ry
     smearing contrib. (-TS)   =      -0.09023723 Ry
     internal energy E=F+TS    =    -502.10955237 Ry

     The total energy is F=E-TS. E is the sum of the following terms:
     one-electron contribution =     105.56347738 Ry
     hartree contribution      =      47.62076561 Ry
     xc contribution           =    -150.48743917 Ry
     ewald contribution        =    -504.80635618 Ry

     convergence has been achieved in  14 iterations

     Forces acting on atoms (cartesian axes, Ry/au):

     atom    1 type  1   force =     0.12151456    0.06381650   -0.03529623
     atom    2 type  1   force =     0.06348846   -0.01780438   -0.00350842
     atom    3 type  1   force =    -0.01288482    0.00755369   -0.09071555
     atom    4 type  1   force =     0.00830765   -0.02844430   -0.01053699
     atom    5 type  1   force =    -0.00205229    0.04792041   -0.05925428
     atom    6 type  1   force =     0.08062892    0.11217293   -0.09034828
     atom    7 type  1   force =     0.07617419   -0.06345088    0.10626235
     atom    8 type  1   force =    -0.11189145   -0.13929904    0.09485387
     atom    9 type  1   force =     0.14710546    0.17031834   -0.17074806
     atom   10 type  1   force =     0.11826939    0.11700698   -0.15633248
     atom   11 type  1   force =     0.03475514    0.04657274   -0.07957023
     atom   12 type  1   force =     0.02402114   -0.00244100   -0.03950640
     atom   13 type  1   force =     0.06913632   -0.01845326   -0.00815119
     atom   14 type  1   force =    -0.09915179    0.10665309   -0.09372651
     atom   15 type  1   force =     0.00961454   -0.00265519   -0.02786668
     atom   16 type  1   force =    -0.02322789   -0.03032662    0.01117748
     atom   17 type  1   force =    -0.08512698    0.00606971    0.02647174
     atom   18 type  1   force =    -0.04534478   -0.03403957   -0.02814674
     atom   19 type  1   force =     0.09315235    0.07146599   -0.01539801
     atom   20 type  1   force =    -0.08332417   -0.04330184   -0.02635648
     atom   21 type  1   force =    -0.03168919   -0.06359366    0.05354470
     atom   22 type  1   force =     0.01181218    0.01096070    0.02979836
     atom   23 type  1   force =     0.00857195    0.01459995   -0.06341257
     atom   24 type  1   force =    -0.09953312   -0.07847501    0.04796990
     atom   25 type  1   force =     0.09796993    0.07555863   -0.09801005
     atom   26 type  1   force =    -0.09101005   -0.06794950   -0.09545668
     atom   27 type  1   force =     0.05264897    0.00233785    0.06550795
     atom   28 type  1   force =     0.06362287    0.06929403    0.05995455
     atom   29 type  1   force =     0.21416985    0.26818027   -0.23559755
     atom   30 type  1   force =     0.02694925   -0.03763334    0.02937550
     atom   31 type  1   force =     0.06823242   -0.04992120   -0.07872635
     atom   32 type  1   force =    -0.11274251    0.12269790    0.08399656
     atom   33 type  1   force =    -0.00229686   -0.01101860    0.02515249
     atom   34 type  1   force =     0.10737136   -0.00784333    0.01584789
     atom   35 type  1   force =    -0.07161009    0.07131777   -0.07805323
     atom   36 type  1   force =     0.08163705   -0.06431871   -0.08300036
     atom   37 type  1   force =     0.02174062   -0.00302894   -0.06610140
     atom   38 type  1   force =     0.07997552    0.11340816    0.07638846
     atom   39 type  1   force =    -0.03243032    0.02404492    0.10425672
     atom   40 type  1   force =    -0.03054630    0.00438351   -0.04146992
     atom   41 type  1   force =    -0.10921785   -0.00429499    0.03751878
     atom   42 type  1   force =    -0.10219080   -0.02432538    0.05092184
     atom   43 type  1   force =    -0.12628050   -0.04145981   -0.01521083
     atom   44 type  1   force =     0.03004441   -0.09051354    0.09248631
     atom   45 type  1   force =    -0.21285678   -0.19572345    0.14098703
     atom   46 type  1   force =    -0.25450747   -0.14363481    0.20261272
     atom   47 type  1   force =     0.00277331   -0.01250663    0.00010392
     atom   48 type  1   force =    -0.01302006   -0.16490404    0.01775322
     atom   49 type  1   force =     0.08226957    0.02254212    0.01039924
     atom   50 type  1   force =     0.05070433    0.08429783   -0.05076750
     atom   51 type  1   force =     0.00630918    0.03935733    0.01777432
     atom   52 type  1   force =    -0.06649197   -0.03083380   -0.00302962
     atom   53 type  1   force =    -0.05347809    0.13633808    0.06530878
     atom   54 type  1   force =    -0.10537477    0.02753072   -0.00419464
     atom   55 type  1   force =    -0.01434223   -0.03070956    0.01367038
     atom   56 type  1   force =     0.06550748   -0.08232433    0.05411472
     atom   57 type  1   force =     0.00331717   -0.00518642    0.07165023
     atom   58 type  1   force =     0.05853891   -0.00676434    0.00349433
     atom   59 type  1   force =     0.04230679   -0.02851830   -0.00750798
     atom   60 type  1   force =    -0.06732420   -0.01819037    0.05448736
     atom   61 type  1   force =     0.00192359   -0.03269821   -0.02953348
     atom   62 type  1   force =     0.00482797   -0.02507321    0.09696323
     atom   63 type  1   force =     0.01666404   -0.08775490    0.08435746
     atom   64 type  1   force =     0.01389049   -0.04698570    0.04037229

     Total force =     1.100328     Total SCF correction =     0.000948


     Computing stress (Cartesian axis) and pressure

          total   stress  (Ry/bohr**3)                   (kbar)     P=      -24.22
  -0.00017055   0.00009543  -0.00017981          -25.09       14.04      -26.45
   0.00009543  -0.00021289  -0.00018628           14.04      -31.32      -27.40
  -0.00017981  -0.00018628  -0.00011039          -26.45      -27.40      -16.24

 
     init_run     :      0.98s CPU      4.88s WALL (       1 calls)
     electrons    :      1.88s CPU      2.05s WALL (       1 calls)
     forces       :      0.04s CPU      0.05s WALL (       1 calls)
     stress       :      0.18s CPU      0.18s WALL (       1 calls)

     Called by init_run:
     wfcinit      :      0.54s CPU      4.27s WALL (       1 calls)
                                        4.27s GPU  (       1 calls)
     potinit      :      0.22s CPU      0.30s WALL (       1 calls)
     hinit0       :      0.20s CPU      0.22s WALL (       1 calls)

     Called by electrons:
     c_bands      :      1.16s CPU      1.23s WALL (      15 calls)
     sum_band     :      0.38s CPU      0.43s WALL (      15 calls)
     v_of_rho     :      0.17s CPU      0.26s WALL (      15 calls)
     mix_rho      :      0.16s CPU      0.18s WALL (      15 calls)

     Called by c_bands:
     init_us_2    :      0.05s CPU      0.06s WALL (      31 calls)
     init_us_2:gp :      0.05s CPU      0.06s WALL (      31 calls)
     regterg      :      1.02s CPU      1.09s WALL (      15 calls)

     Called by *egterg:
     rdiaghg      :      0.33s CPU      1.10s WALL (      75 calls)
                                        1.09s GPU  (      75 calls)
     h_psi        :      1.06s CPU      4.06s WALL (      77 calls)
                                        4.06s GPU  (      77 calls)
     g_psi        :      0.00s CPU      0.00s WALL (      61 calls)
                                        0.00s GPU  (      61 calls)

     Called by h_psi:
     h_psi:calbec :      0.49s CPU      3.40s WALL (      77 calls)
                                        3.40s GPU  (      77 calls)
     vloc_psi     :      0.53s CPU      0.60s WALL (      77 calls)
                                        0.60s GPU  (      77 calls)
     add_vuspsi   :      0.03s CPU      0.05s WALL (      77 calls)
                                        0.05s GPU  (      77 calls)

     General routines
     calbec       :      0.49s CPU      3.41s WALL (      82 calls)
     fft          :      0.31s CPU      0.44s WALL (     127 calls)
                                        0.12s GPU  (      81 calls)
     ffts         :      0.06s CPU      0.06s WALL (      15 calls)
     fftw         :      0.57s CPU      0.76s WALL (    1595 calls)
                                        0.68s GPU  (    1595 calls)
 
     Parallel routines
 
     PWSCF        :      3.13s CPU      7.25s WALL

 
   This run was terminated on:  11:46:24  10May2023            

=------------------------------------------------------------------------------=
   JOB DONE.
=------------------------------------------------------------------------------=
