An instance of this daemon is already running

     Program PWSCF v.7.1 starts on 10May2023 at 11:37:25 

     This program is part of the open-source Quantum ESPRESSO suite
     for quantum simulation of materials; please cite
         "P. Giannozzi et al., J. Phys.:Condens. Matter 21 395502 (2009);
         "P. Giannozzi et al., J. Phys.:Condens. Matter 29 465901 (2017);
         "P. Giannozzi et al., J. Chem. Phys. 152 154105 (2020);
          URL http://www.quantum-espresso.org", 
     in publications or presentations arising from this work. More details at
     http://www.quantum-espresso.org/quote

     Parallel version (MPI & OpenMP), running on       4 processor cores
     Number of MPI processes:                 4
     Threads/MPI process:                     1

     MPI processes distributed on     1 nodes
     706975 MiB available memory on the printing compute node when the environment starts
 
     Reading input from pw-si-44.in
Warning: card &CELL ignored
Warning: card / ignored

     Current dimensions of program PWSCF are:
     Max number of different atomic species (ntypx) = 10
     Max number of k-points (npk) =  40000
     Max angular momentum in pseudopotentials (lmaxx) =  4

     IMPORTANT: XC functional enforced from input :
     Exchange-correlation= PBE
                           (   1   4   3   4   0   0   0)
     Any further DFT definition will be discarded
     Please, verify this is what you really want


     gamma-point specific algorithms are used
 
     K-points division:     npool     =       2
     R & G space division:  proc/nbgrp/npool/nimage =       2
     Subspace diagonalization in iterative solution of the eigenvalue problem:
     a serial algorithm will be used

     Message from routine divide_et_impera:
     suboptimal parallelization: some nodes have no k-points
 
     Parallelization info
     --------------------
     sticks:   dense  smooth     PW     G-vecs:    dense   smooth      PW
     Min        2141    2141    561               102853   102853   13977
     Max        2142    2142    562               102858   102858   13982
     Sum        4283    4283   1123               205711   205711   27959
 
     Using Slab Decomposition
 


     bravais-lattice index     =            0
     lattice parameter (alat)  =      20.8545  a.u.
     unit-cell volume          =    9266.8945 (a.u.)^3
     number of atoms/cell      =           64
     number of atomic types    =            1
     number of electrons       =       256.00
     number of Kohn-Sham states=          154
     kinetic-energy cutoff     =      30.0000  Ry
     charge density cutoff     =     120.0000  Ry
     scf convergence threshold =      1.0E-06
     mixing beta               =       0.5000
     number of iterations used =            8  plain     mixing
     Exchange-correlation= PBE
                           (   1   4   3   4   0   0   0)

     GPU acceleration is ACTIVE.
     GPU-aware MPI enabled

     Message from routine print_cuda_info:
     High GPU oversubscription detected. Are you sure this is what you want?

     celldm(1)=  20.854549  celldm(2)=   0.000000  celldm(3)=   0.000000
     celldm(4)=   0.000000  celldm(5)=   0.000000  celldm(6)=   0.000000

     crystal axes: (cart. coord. in units of alat)
               a(1) = (   1.000000   0.000000   0.000000 )  
               a(2) = (   0.000000   1.028607   0.000000 )  
               a(3) = (   0.000000   0.000000   0.993304 )  

     reciprocal axes: (cart. coord. in units 2 pi/alat)
               b(1) = (  1.000000  0.000000  0.000000 )  
               b(2) = (  0.000000  0.972188  0.000000 )  
               b(3) = (  0.000000  0.000000  1.006741 )  


     PseudoPot. # 1 for Si read from file:
     /home/ppiaggi/pseudos/Si_ONCV_PBE_sr.upf
     MD5 check sum: 8553c464762ac42b85b1eed164b4d029
     Pseudo is Norm-conserving, Zval =  4.0
     Generated using ONCVPSP code by D. R. Hamann
     Using radial grid of 1510 points,  4 beta functions with: 
                l(1) =   0
                l(2) =   0
                l(3) =   1
                l(4) =   1

     atomic species   valence    mass     pseudopotential
        Si             4.00    28.08500     Si( 1.00)

     No symmetry found



   Cartesian axes

     site n.     atom                  positions (alat units)
         1           Si  tau(   1) = (  -0.0085403  -0.0073245   0.0029380  )
         2           Si  tau(   2) = (  -0.0126370   0.2411899   0.2296424  )
         3           Si  tau(   3) = (   0.2349642   0.0131074   0.2605853  )
         4           Si  tau(   4) = (   0.2362279   0.2719390  -0.0011973  )
         5           Si  tau(   5) = (   0.1153866   0.1242178   0.1061542  )
         6           Si  tau(   6) = (   0.4876083  -0.0047471  -0.0041710  )
         7           Si  tau(   7) = (   0.4709429   0.2511520   0.2431496  )
         8           Si  tau(   8) = (   0.5879782   0.1377049   0.1331852  )
         9           Si  tau(   9) = (   0.7150207  -0.0126088   0.2450610  )
        10           Si  tau(  10) = (   0.7175570   0.2694737   0.0129333  )
        11           Si  tau(  11) = (  -0.0024016   0.5211511  -0.0108751  )
        12           Si  tau(  12) = (   0.2239203   0.5174869   0.2437073  )
        13           Si  tau(  13) = (   0.1345394   0.6415043   0.1145033  )
        14           Si  tau(  14) = (   0.3625587   0.3914642   0.1294000  )
        15           Si  tau(  15) = (   0.4729897   0.5276163   0.0122559  )
        16           Si  tau(  16) = (   0.5898475   0.6396135   0.1124139  )
        17           Si  tau(  17) = (   0.8347106   0.3866692   0.1344395  )
        18           Si  tau(  18) = (   0.7206128   0.5106551   0.2458381  )
        19           Si  tau(  19) = (   0.0173397   0.7716796   0.2367310  )
        20           Si  tau(  20) = (   0.2452829   0.7793391  -0.0004342  )
        21           Si  tau(  21) = (   0.3459981   0.9118179   0.1373602  )
        22           Si  tau(  22) = (   0.4708715   0.7690672   0.2385093  )
        23           Si  tau(  23) = (   0.7202347   0.7550602  -0.0032308  )
        24           Si  tau(  24) = (   0.8262569   0.8783432   0.1236201  )
        25           Si  tau(  25) = (   0.0113382  -0.0102178   0.4693325  )
        26           Si  tau(  26) = (   0.2234608   0.2371675   0.4743475  )
        27           Si  tau(  27) = (   0.1069062   0.1242650   0.6049378  )
        28           Si  tau(  28) = (   0.3448217   0.1183155   0.3522590  )
        29           Si  tau(  29) = (   0.4848629  -0.0156816   0.4936921  )
        30           Si  tau(  30) = (   0.6024129   0.1109423   0.5993990  )
        31           Si  tau(  31) = (   0.8376516   0.1253492   0.3672681  )
        32           Si  tau(  32) = (   0.7275379   0.2658425   0.4862371  )
        33           Si  tau(  33) = (   0.1174133   0.3897059   0.3753109  )
        34           Si  tau(  34) = (   0.0163759   0.5105120   0.4731610  )
        35           Si  tau(  35) = (   0.1277807   0.6362818   0.5961880  )
        36           Si  tau(  36) = (   0.6034921   0.3729023   0.3546869  )
        37           Si  tau(  37) = (   0.3656108   0.6431739   0.3519437  )
        38           Si  tau(  38) = (   0.3473638   0.3732942   0.6023232  )
        39           Si  tau(  39) = (   0.4797950   0.5199920   0.4850805  )
        40           Si  tau(  40) = (   0.6148007   0.6371983   0.6048949  )
        41           Si  tau(  41) = (   0.8400447   0.6438381   0.3702055  )
        42           Si  tau(  42) = (   0.8253450   0.3653686   0.6171294  )
        43           Si  tau(  43) = (   0.1358303   0.8788465   0.3502318  )
        44           Si  tau(  44) = (   0.2553922   0.7487844   0.4910292  )
        45           Si  tau(  45) = (   0.5988766   0.9061653   0.3533481  )
        46           Si  tau(  46) = (   0.3695448   0.8886254   0.5924691  )
        47           Si  tau(  47) = (   0.7091286   0.7629588   0.4928812  )
        48           Si  tau(  48) = (   0.8362396   0.8848854   0.6195411  )
        49           Si  tau(  49) = (  -0.0123292   0.2516409   0.7221969  )
        50           Si  tau(  50) = (   0.2487396   0.0174493   0.7164743  )
        51           Si  tau(  51) = (   0.3529070   0.1347150   0.8661230  )
        52           Si  tau(  52) = (   0.4714509   0.2474482   0.7173959  )
        53           Si  tau(  53) = (   0.7139254  -0.0176933   0.7398675  )
        54           Si  tau(  54) = (   0.8420629   0.1179188   0.8335588  )
        55           Si  tau(  55) = (   0.1157902   0.3755030   0.8587639  )
        56           Si  tau(  56) = (   0.2433742   0.4933162   0.7179293  )
        57           Si  tau(  57) = (   0.5920681   0.3832800   0.8481245  )
        58           Si  tau(  58) = (   0.3665018   0.6398985   0.8663745  )
        59           Si  tau(  59) = (   0.7289326   0.5016725   0.7151943  )
        60           Si  tau(  60) = (   0.8343342   0.6310108   0.8345805  )
        61           Si  tau(  61) = (  -0.0048922   0.7752921   0.7453239  )
        62           Si  tau(  62) = (   0.1309331   0.8776664   0.8672708  )
        63           Si  tau(  63) = (   0.4821318   0.7615545   0.7133341  )
        64           Si  tau(  64) = (   0.6074999   0.8995574   0.8614837  )

     number of k points=     1  Fermi-Dirac smearing, width (Ry)=  0.0100
                       cart. coord. in units 2pi/alat
        k(    1) = (   0.0000000   0.0000000   0.0000000), wk =   2.0000000

     Dense  grid:   102856 G-vectors     FFT dimensions: (  75,  75,  75)

     Estimated max dynamical RAM per process >     164.83 MB

     Estimated total dynamical RAM >     634.20 MB

     Initial potential from superposition of free atoms

     starting charge     255.9608, renormalised to     256.0000
     Starting wfcs are  256 randomized atomic wfcs

     total cpu time spent up to now is        4.9 secs

     Self-consistent Calculation

     iteration #  1     ecut=    30.00 Ry     beta= 0.50
     Davidson diagonalization with overlap
     ethr =  1.00E-02,  avg # of iterations =  3.0

     Threshold (ethr) on eigenvalues was too large:
     Diagonalizing with lowered threshold

     Davidson diagonalization with overlap
     ethr =  6.68E-04,  avg # of iterations =  4.0

     total cpu time spent up to now is        5.2 secs

     total energy              =    -502.48310056 Ry
     estimated scf accuracy    <       1.94758514 Ry

     iteration #  2     ecut=    30.00 Ry     beta= 0.50
     Davidson diagonalization with overlap
     ethr =  7.61E-04,  avg # of iterations =  4.0

     total cpu time spent up to now is        5.4 secs

     total energy              =    -502.27359974 Ry
     estimated scf accuracy    <       1.49109223 Ry

     iteration #  3     ecut=    30.00 Ry     beta= 0.50
     Davidson diagonalization with overlap
     ethr =  5.82E-04,  avg # of iterations =  5.0

     total cpu time spent up to now is        5.5 secs

     total energy              =    -502.38334283 Ry
     estimated scf accuracy    <       2.10660515 Ry

     iteration #  4     ecut=    30.00 Ry     beta= 0.50
     Davidson diagonalization with overlap
     ethr =  5.82E-04,  avg # of iterations =  3.0

     total cpu time spent up to now is        5.6 secs

     total energy              =    -502.62028065 Ry
     estimated scf accuracy    <       0.12903904 Ry

     iteration #  5     ecut=    30.00 Ry     beta= 0.50
     Davidson diagonalization with overlap
     ethr =  5.04E-05,  avg # of iterations = 13.0

     total cpu time spent up to now is        5.8 secs

     total energy              =    -502.63976820 Ry
     estimated scf accuracy    <       0.04908308 Ry

     iteration #  6     ecut=    30.00 Ry     beta= 0.50
     Davidson diagonalization with overlap
     ethr =  1.92E-05,  avg # of iterations =  5.0

     total cpu time spent up to now is        6.0 secs

     total energy              =    -502.64363366 Ry
     estimated scf accuracy    <       0.01800015 Ry

     iteration #  7     ecut=    30.00 Ry     beta= 0.50
     Davidson diagonalization with overlap
     ethr =  7.03E-06,  avg # of iterations =  3.0

     total cpu time spent up to now is        6.1 secs

     total energy              =    -502.64559075 Ry
     estimated scf accuracy    <       0.00180343 Ry

     iteration #  8     ecut=    30.00 Ry     beta= 0.50
     Davidson diagonalization with overlap
     c_bands:  1 eigenvalues not converged
     ethr =  7.04E-07,  avg # of iterations = 20.0

     total cpu time spent up to now is        6.3 secs

     total energy              =    -502.64591961 Ry
     estimated scf accuracy    <       0.00197412 Ry

     iteration #  9     ecut=    30.00 Ry     beta= 0.50
     Davidson diagonalization with overlap
     ethr =  7.04E-07,  avg # of iterations =  3.0

     total cpu time spent up to now is        6.4 secs

     total energy              =    -502.64604653 Ry
     estimated scf accuracy    <       0.00072760 Ry

     iteration # 10     ecut=    30.00 Ry     beta= 0.50
     Davidson diagonalization with overlap
     ethr =  2.84E-07,  avg # of iterations =  2.0

     total cpu time spent up to now is        6.6 secs

     total energy              =    -502.64608815 Ry
     estimated scf accuracy    <       0.00008683 Ry

     iteration # 11     ecut=    30.00 Ry     beta= 0.50
     Davidson diagonalization with overlap
     ethr =  3.39E-08,  avg # of iterations =  5.0

     total cpu time spent up to now is        6.7 secs

     total energy              =    -502.64610613 Ry
     estimated scf accuracy    <       0.00002274 Ry

     iteration # 12     ecut=    30.00 Ry     beta= 0.50
     Davidson diagonalization with overlap
     ethr =  8.88E-09,  avg # of iterations =  3.0

     total cpu time spent up to now is        6.8 secs

     total energy              =    -502.64610891 Ry
     estimated scf accuracy    <       0.00001467 Ry

     iteration # 13     ecut=    30.00 Ry     beta= 0.50
     Davidson diagonalization with overlap
     ethr =  5.73E-09,  avg # of iterations =  2.0

     total cpu time spent up to now is        6.9 secs

     total energy              =    -502.64610971 Ry
     estimated scf accuracy    <       0.00000324 Ry

     iteration # 14     ecut=    30.00 Ry     beta= 0.50
     Davidson diagonalization with overlap
     ethr =  1.27E-09,  avg # of iterations =  5.0

     total cpu time spent up to now is        7.1 secs

     End of self-consistent calculation

          k = 0.0000 0.0000 0.0000 ( 12851 PWs)   bands (ev):

    -6.3228  -5.5918  -5.4252  -5.3606  -5.3347  -5.0221  -4.9270  -4.7901
    -4.6373  -4.5849  -4.4595  -4.4207  -4.3311  -4.2949  -4.1944  -4.1540
    -4.0724  -3.9483  -3.8441  -3.7826  -3.7153  -3.6626  -3.2282  -2.7563
    -2.6677  -2.5085  -2.4782  -2.4122  -2.3138  -2.2013  -2.0671  -2.0394
    -2.0217  -1.9532  -1.8929  -1.8456  -1.8067  -1.7125  -1.6369  -1.5610
    -1.4927  -1.3196  -1.0859  -1.0455  -0.9765  -0.3791  -0.1964  -0.1435
    -0.0549  -0.0308   0.0772   0.1359   0.2454   0.2618   0.3052   0.4059
     0.4930   1.2002   1.3529   1.3795   1.5234   1.5385   1.5622   1.6162
     1.6471   1.7081   1.7419   1.7945   1.8233   1.8516   1.8923   1.8985
     1.9120   1.9759   2.0085   2.0326   2.0850   2.1439   2.1890   2.2600
     2.2857   2.3376   2.3571   2.4505   2.4995   2.5350   2.5800   2.6578
     2.7286   2.7593   2.7763   3.0357   3.1602   3.2604   3.3524   3.4268
     3.5298   3.6022   3.6211   3.7000   3.7278   3.8071   3.8406   3.9051
     3.9431   3.9817   4.0208   4.0859   4.1036   4.1594   4.1995   4.2482
     4.3746   4.3953   4.4157   4.4850   4.5533   4.6000   4.6917   4.7156
     4.7633   4.8575   4.8897   4.9953   5.4193   5.5755   5.6597   5.7625
     5.8215   5.9315   6.0095   6.1126   6.2680   6.3298   6.3501   6.4232
     6.4761   6.5519   6.5751   6.6017   6.6852   6.7561   6.8650   6.9042
     7.1603   7.2655   7.3939   7.4255   7.4981   7.5707   7.6375   7.6693
     7.7075   7.7655

     the Fermi energy is     5.7822 ev

!    total energy              =    -502.64610994 Ry
     estimated scf accuracy    <       0.00000039 Ry
     smearing contrib. (-TS)   =      -0.08973336 Ry
     internal energy E=F+TS    =    -502.55637657 Ry

     The total energy is F=E-TS. E is the sum of the following terms:
     one-electron contribution =     120.17659316 Ry
     hartree contribution      =      44.75204989 Ry
     xc contribution           =    -152.00652125 Ry
     ewald contribution        =    -515.47849838 Ry

     convergence has been achieved in  14 iterations

     Forces acting on atoms (cartesian axes, Ry/au):

     atom    1 type  1   force =    -0.04672162   -0.04899268   -0.06394492
     atom    2 type  1   force =    -0.04710294    0.04883885    0.05055747
     atom    3 type  1   force =    -0.17111972   -0.14690197   -0.18089117
     atom    4 type  1   force =     0.02112460   -0.04733730   -0.00039956
     atom    5 type  1   force =     0.01389186    0.01356077    0.03452782
     atom    6 type  1   force =    -0.03942376    0.03047913    0.01608098
     atom    7 type  1   force =    -0.03117902    0.03848863    0.04204850
     atom    8 type  1   force =     0.07616705   -0.07730772   -0.08369827
     atom    9 type  1   force =     0.06198876    0.09399078   -0.05491820
     atom   10 type  1   force =    -0.02415111   -0.04236544   -0.07991265
     atom   11 type  1   force =    -0.04759186   -0.02300797   -0.01574713
     atom   12 type  1   force =     0.07040494   -0.03855781    0.03268626
     atom   13 type  1   force =    -0.07383533    0.02013747   -0.04415710
     atom   14 type  1   force =    -0.04505139    0.00088358   -0.01069954
     atom   15 type  1   force =    -0.03003751   -0.11356348   -0.10757166
     atom   16 type  1   force =     0.08412928    0.05357393    0.09554853
     atom   17 type  1   force =     0.10700742   -0.01283339   -0.04046812
     atom   18 type  1   force =    -0.02080532    0.05018695    0.00678442
     atom   19 type  1   force =    -0.12773761   -0.05305604   -0.04360230
     atom   20 type  1   force =     0.06107250   -0.04831575    0.02946427
     atom   21 type  1   force =     0.03925348   -0.01266857   -0.05877879
     atom   22 type  1   force =     0.05189450    0.05966302   -0.03198540
     atom   23 type  1   force =     0.00053682   -0.00370218   -0.07487453
     atom   24 type  1   force =     0.10164591    0.03688043    0.01695952
     atom   25 type  1   force =    -0.08208027   -0.00655351    0.01615465
     atom   26 type  1   force =     0.03328222    0.04736296    0.02911947
     atom   27 type  1   force =    -0.00461917   -0.01838717   -0.01606501
     atom   28 type  1   force =     0.18829799    0.13611855    0.17545631
     atom   29 type  1   force =    -0.00129129    0.05032546   -0.10298060
     atom   30 type  1   force =     0.02259967    0.06018535    0.04435241
     atom   31 type  1   force =     0.07639300   -0.02706196   -0.03092726
     atom   32 type  1   force =    -0.06637177   -0.10578800   -0.05856588
     atom   33 type  1   force =     0.04117936   -0.13953024   -0.13557581
     atom   34 type  1   force =    -0.16734688    0.11240006    0.08634763
     atom   35 type  1   force =    -0.05082312   -0.01259216    0.08778458
     atom   36 type  1   force =    -0.03022880    0.03907844    0.03967271
     atom   37 type  1   force =    -0.03677022   -0.06278717    0.03431350
     atom   38 type  1   force =     0.04629596   -0.03351255   -0.07785319
     atom   39 type  1   force =     0.01039650   -0.05891355   -0.01230241
     atom   40 type  1   force =    -0.08174669   -0.06221011    0.03680914
     atom   41 type  1   force =     0.06547866   -0.01231393   -0.01657025
     atom   42 type  1   force =     0.16435184   -0.00094053    0.01539637
     atom   43 type  1   force =     0.02025316    0.04780011    0.08985756
     atom   44 type  1   force =    -0.01137889    0.06172139   -0.05734272
     atom   45 type  1   force =    -0.05533763   -0.11034499    0.07603176
     atom   46 type  1   force =    -0.06830454    0.00381315    0.07836850
     atom   47 type  1   force =     0.08183537    0.09256303   -0.07280084
     atom   48 type  1   force =     0.06240227    0.00252853   -0.01411700
     atom   49 type  1   force =    -0.04470907    0.00520977    0.03570712
     atom   50 type  1   force =    -0.00206218   -0.06884296    0.04833299
     atom   51 type  1   force =     0.02515813   -0.01244755   -0.01077164
     atom   52 type  1   force =     0.03291783   -0.00772941    0.04017666
     atom   53 type  1   force =     0.04797388    0.05634512   -0.07372591
     atom   54 type  1   force =     0.04608041    0.04489495    0.08461198
     atom   55 type  1   force =    -0.03555922    0.04170518   -0.03129216
     atom   56 type  1   force =    -0.05151528    0.07708815    0.09658694
     atom   57 type  1   force =     0.00985910    0.00272783    0.03425973
     atom   58 type  1   force =    -0.03676052    0.01445812   -0.05348273
     atom   59 type  1   force =    -0.07087347    0.03087991    0.06811322
     atom   60 type  1   force =     0.08614619    0.05122472    0.08193493
     atom   61 type  1   force =    -0.04255861   -0.05676890   -0.05666509
     atom   62 type  1   force =    -0.06557006    0.12024162   -0.04770197
     atom   63 type  1   force =     0.02648727    0.00515564    0.09349632
     atom   64 type  1   force =    -0.06584104   -0.08517657    0.04284758

     Total force =     0.904935     Total SCF correction =     0.001082


     Computing stress (Cartesian axis) and pressure

          total   stress  (Ry/bohr**3)                   (kbar)     P=        0.80
   0.00004331   0.00010669  -0.00000382            6.37       15.69       -0.56
   0.00010669  -0.00006137   0.00012713           15.69       -9.03       18.70
  -0.00000382   0.00012713   0.00003447           -0.56       18.70        5.07

 
     init_run     :      0.96s CPU      4.86s WALL (       1 calls)
     electrons    :      2.00s CPU      2.14s WALL (       1 calls)
     forces       :      0.04s CPU      0.05s WALL (       1 calls)
     stress       :      0.17s CPU      0.18s WALL (       1 calls)

     Called by init_run:
     wfcinit      :      0.53s CPU      4.26s WALL (       1 calls)
                                        4.26s GPU  (       1 calls)
     potinit      :      0.21s CPU      0.29s WALL (       1 calls)
     hinit0       :      0.19s CPU      0.22s WALL (       1 calls)

     Called by electrons:
     c_bands      :      1.28s CPU      1.35s WALL (      15 calls)
     sum_band     :      0.38s CPU      0.42s WALL (      15 calls)
     v_of_rho     :      0.17s CPU      0.26s WALL (      15 calls)
     mix_rho      :      0.15s CPU      0.17s WALL (      15 calls)

     Called by c_bands:
     init_us_2    :      0.06s CPU      0.06s WALL (      31 calls)
     init_us_2:gp :      0.06s CPU      0.06s WALL (      31 calls)
     regterg      :      1.14s CPU      1.20s WALL (      15 calls)

     Called by *egterg:
     rdiaghg      :      0.43s CPU      1.19s WALL (      94 calls)
                                        1.17s GPU  (      94 calls)
     h_psi        :      1.06s CPU      4.07s WALL (      96 calls)
                                        4.07s GPU  (      96 calls)
     g_psi        :      0.00s CPU      0.00s WALL (      80 calls)
                                        0.00s GPU  (      80 calls)

     Called by h_psi:
     h_psi:calbec :      0.47s CPU      3.40s WALL (      96 calls)
                                        3.40s GPU  (      96 calls)
     vloc_psi     :      0.53s CPU      0.60s WALL (      96 calls)
                                        0.60s GPU  (      96 calls)
     add_vuspsi   :      0.04s CPU      0.06s WALL (      96 calls)
                                        0.06s GPU  (      96 calls)

     General routines
     calbec       :      0.48s CPU      3.40s WALL (     101 calls)
     fft          :      0.31s CPU      0.43s WALL (     127 calls)
                                        0.12s GPU  (      81 calls)
     ffts         :      0.06s CPU      0.06s WALL (      15 calls)
     fftw         :      0.56s CPU      0.75s WALL (    1637 calls)
                                        0.68s GPU  (    1637 calls)
 
     Parallel routines
 
     PWSCF        :      3.21s CPU      7.31s WALL

 
   This run was terminated on:  11:37:33  10May2023            

=------------------------------------------------------------------------------=
   JOB DONE.
=------------------------------------------------------------------------------=
