ITEM: TIMESTEP
0
ITEM: NUMBER OF ATOMS
64
ITEM: BOX BOUNDS pp pp pp
1.4004804032037299e-02 1.0847395195967866e+01
1.4004804032037299e-02 1.0847395195967866e+01
1.4004804032037299e-02 1.0847395195967866e+01
ITEM: ATOMS id type xs ys zs
28 1 0.0691753 0.201076 0.199547
29 1 0.454587 0.00261802 0.400252
43 1 0.267269 0.323381 0.2952
61 1 0.3798 0.0117031 0.0589351
48 1 0.454176 0.479488 0.259529
47 1 0.392039 0.184231 0.398492
40 1 0.0631545 0.00166666 0.483616
18 1 0.00716629 0.014323 0.0768783
11 1 0.174522 0.478376 0.398967
58 1 0.301694 0.396891 0.0813582
20 1 0.964452 0.3716 0.0936865
8 1 0.674679 0.251401 0.184394
10 1 0.925735 0.161949 0.359457
14 1 0.845234 0.324665 0.493533
44 1 0.804984 0.282281 0.0131959
62 1 0.699423 0.425657 0.316553
4 1 0.573916 0.128664 0.010635
27 1 0.617844 0.0011985 0.226208
19 1 0.55578 0.357593 0.464456
2 1 0.309906 0.824521 0.459995
6 1 0.270499 0.980677 0.247893
45 1 0.0516128 0.844024 0.279033
59 1 0.178097 0.866237 0.0793456
36 1 0.12743 0.69272 0.4164
16 1 0.391928 0.5232 0.499772
55 1 0.381035 0.63732 0.154865
32 1 0.133005 0.650962 0.13688
26 1 0.828365 0.534431 0.183733
53 1 0.730983 0.833531 0.0177141
17 1 0.603863 0.631281 0.002191
12 1 0.901071 0.684715 0.000362238
24 1 0.548511 0.776544 0.180727
42 1 0.62027 0.652579 0.347034
25 1 0.821991 0.971836 0.221995
56 1 0.198401 0.420697 0.885572
1 1 0.0692816 0.280084 0.541775
54 1 0.414235 0.119223 0.740586
49 1 0.474771 0.318325 0.676792
51 1 0.342928 0.476675 0.731115
31 1 0.499552 0.416641 0.955904
5 1 0.346736 0.221778 0.947049
7 1 0.287152 0.0812963 0.55582
64 1 0.723255 0.463537 0.728939
23 1 0.924066 0.239235 0.722287
46 1 0.807178 0.0971985 0.505066
52 1 0.702332 0.268076 0.630657
3 1 0.656239 0.314192 0.851992
41 1 0.933836 0.116324 0.909575
57 1 0.707341 0.00725437 0.870121
38 1 0.126928 0.96583 0.805457
37 1 0.27089 0.83565 0.691422
34 1 0.083326 0.69328 0.769924
15 1 0.440129 0.695272 0.784462
60 1 0.0607184 0.506375 0.656147
33 1 0.276166 0.762844 0.937815
63 1 0.0473212 0.529799 0.995286
35 1 0.695121 0.777621 0.565543
21 1 0.62654 0.978162 0.513914
30 1 0.908085 0.756584 0.554696
22 1 0.898724 0.865504 0.762347
39 1 0.612787 0.57635 0.569897
13 1 0.760746 0.666789 0.801748
50 1 0.858464 0.556638 0.581575
9 1 0.554779 0.948339 0.731582
ITEM: TIMESTEP
10
ITEM: NUMBER OF ATOMS
64
ITEM: BOX BOUNDS pp pp pp
1.4593962689686713e-02 1.0846806037310211e+01
1.4593962689686713e-02 1.0846806037310211e+01
1.4593962689686713e-02 1.0846806037310211e+01
ITEM: ATOMS id type xs ys zs
28 1 0.0734997 0.194113 0.202464
29 1 0.453953 0.983791 0.39765
43 1 0.266816 0.323552 0.300076
61 1 0.376867 0.0139095 0.0620711
48 1 0.453527 0.470132 0.262996
47 1 0.399945 0.196609 0.388826
40 1 0.0649351 0.00323631 0.495279
18 1 0.00500452 0.00730767 0.074734
11 1 0.175472 0.479423 0.404753
58 1 0.305304 0.397417 0.0866719
20 1 0.961705 0.368362 0.103928
8 1 0.673941 0.253684 0.179671
10 1 0.934008 0.15093 0.349765
14 1 0.847385 0.335742 0.482824
44 1 0.81511 0.286063 0.00878681
62 1 0.696948 0.439623 0.317863
4 1 0.577882 0.127249 0.0239328
27 1 0.619809 0.00288286 0.222634
19 1 0.560807 0.364182 0.471925
2 1 0.315069 0.832282 0.466721
6 1 0.271676 0.983042 0.246587
45 1 0.0553275 0.844336 0.274685
59 1 0.168908 0.878618 0.0809701
36 1 0.122075 0.699208 0.416845
16 1 0.39361 0.52628 0.503436
55 1 0.39078 0.638925 0.142026
32 1 0.126464 0.64555 0.13132
26 1 0.82248 0.538711 0.194595
53 1 0.721902 0.839578 0.0192349
17 1 0.595644 0.625419 0.99418
12 1 0.889487 0.681899 0.000999065
24 1 0.549337 0.783794 0.189263
42 1 0.621864 0.661378 0.345696
25 1 0.820497 0.963699 0.220043
56 1 0.196936 0.423144 0.883294
1 1 0.071514 0.283434 0.540392
54 1 0.414086 0.121494 0.747483
49 1 0.480884 0.319896 0.671296
51 1 0.334909 0.477212 0.733688
31 1 0.492762 0.420405 0.954043
5 1 0.346099 0.211605 0.950836
7 1 0.28932 0.0908454 0.563928
64 1 0.721946 0.45486 0.725011
23 1 0.932777 0.239697 0.721124
46 1 0.796945 0.0937809 0.509822
52 1 0.700846 0.263988 0.631476
3 1 0.656357 0.309058 0.853695
41 1 0.928588 0.12614 0.906206
57 1 0.714546 0.00753204 0.870656
38 1 0.132415 0.952017 0.794326
37 1 0.277855 0.836699 0.702996
34 1 0.0755425 0.679166 0.756641
15 1 0.426825 0.690555 0.790262
60 1 0.0700501 0.514501 0.64799
33 1 0.275882 0.758692 0.943156
63 1 0.0438646 0.521249 0.993267
35 1 0.694344 0.764923 0.570124
21 1 0.635633 0.976551 0.512012
30 1 0.912902 0.761127 0.547241
22 1 0.902828 0.861961 0.753677
39 1 0.604431 0.585721 0.574391
13 1 0.769202 0.668509 0.804407
50 1 0.857063 0.555693 0.568497
9 1 0.546836 0.947536 0.732508
ITEM: TIMESTEP
20
ITEM: NUMBER OF ATOMS
64
ITEM: BOX BOUNDS pp pp pp
1.6364621609198160e-02 1.0845035378390694e+01
1.6364621609198160e-02 1.0845035378390694e+01
1.6364621609198160e-02 1.0845035378390694e+01
ITEM: ATOMS id type xs ys zs
28 1 0.0808175 0.189891 0.202646
29 1 0.453931 0.965525 0.392486
43 1 0.263218 0.323177 0.298626
61 1 0.374279 0.017314 0.0639717
48 1 0.453597 0.45991 0.268593
47 1 0.410477 0.208413 0.382874
40 1 0.0668643 0.00576987 0.506637
18 1 0.999445 0.00357209 0.0745358
11 1 0.175255 0.482855 0.414952
58 1 0.310113 0.397849 0.090792
20 1 0.964055 0.366407 0.121881
8 1 0.672447 0.254661 0.175227
10 1 0.940902 0.137563 0.34212
14 1 0.851488 0.348151 0.469829
44 1 0.817641 0.286007 0.000578882
62 1 0.691046 0.450952 0.321283
4 1 0.580458 0.124967 0.036779
27 1 0.616888 0.00549822 0.21912
19 1 0.563842 0.369122 0.477844
2 1 0.316991 0.837915 0.475295
6 1 0.27249 0.984433 0.248516
45 1 0.0576757 0.846777 0.269751
59 1 0.1619 0.889617 0.0820455
36 1 0.117481 0.705088 0.418722
16 1 0.394454 0.529495 0.50693
55 1 0.396634 0.641903 0.126364
32 1 0.124327 0.645321 0.129457
26 1 0.820522 0.546855 0.2016
53 1 0.712722 0.845081 0.0229534
17 1 0.586882 0.619936 0.984618
12 1 0.87688 0.67835 0.002704
24 1 0.55145 0.793783 0.194855
42 1 0.62566 0.667253 0.347717
25 1 0.827088 0.954539 0.216546
56 1 0.195476 0.423691 0.881605
1 1 0.0740283 0.287392 0.539849
54 1 0.412364 0.124172 0.753964
49 1 0.485142 0.320015 0.667804
51 1 0.329315 0.479834 0.733403
31 1 0.485659 0.424307 0.952988
5 1 0.346701 0.201551 0.954234
7 1 0.289095 0.100287 0.571039
64 1 0.723801 0.454923 0.719172
23 1 0.941323 0.24145 0.716994
46 1 0.790962 0.0940581 0.515368
52 1 0.700427 0.255873 0.63235
3 1 0.654998 0.300763 0.859247
41 1 0.922023 0.133896 0.901719
57 1 0.722552 0.00716102 0.872124
38 1 0.132774 0.939214 0.784392
37 1 0.287398 0.835151 0.711148
34 1 0.0681878 0.674299 0.748357
15 1 0.41386 0.685153 0.797097
60 1 0.0797217 0.514657 0.635426
33 1 0.276285 0.752209 0.947696
63 1 0.0396247 0.51333 0.986528
35 1 0.694577 0.759253 0.573726
21 1 0.640177 0.96924 0.514551
30 1 0.921835 0.768477 0.53868
22 1 0.907779 0.857156 0.745429
39 1 0.593009 0.590051 0.578814
13 1 0.777498 0.67041 0.807909
50 1 0.856344 0.550955 0.555758
9 1 0.539371 0.94604 0.731675
ITEM: TIMESTEP
30
ITEM: NUMBER OF ATOMS
64
ITEM: BOX BOUNDS pp pp pp
1.9227058206403136e-02 1.0842172941793493e+01
1.9227058206403136e-02 1.0842172941793493e+01
1.9227058206403136e-02 1.0842172941793493e+01
ITEM: ATOMS id type xs ys zs
28 1 0.0919437 0.188176 0.199816
29 1 0.457364 0.95175 0.384294
43 1 0.255408 0.323276 0.292265
61 1 0.372166 0.0203799 0.0653654
48 1 0.454002 0.450531 0.27503
47 1 0.424365 0.216252 0.381152
40 1 0.0688744 0.00930045 0.518568
18 1 0.987707 0.00610272 0.0738505
11 1 0.174667 0.487849 0.428284
58 1 0.315238 0.397799 0.0922692
20 1 0.968124 0.365705 0.144725
8 1 0.672045 0.256621 0.172649
10 1 0.944134 0.120971 0.339398
14 1 0.856809 0.359388 0.455207
44 1 0.816337 0.286463 0.993547
62 1 0.681591 0.459062 0.3262
4 1 0.580384 0.120983 0.0462948
27 1 0.613073 0.0086848 0.217421
19 1 0.565701 0.372894 0.48099
2 1 0.313279 0.83953 0.487267
6 1 0.27265 0.985211 0.253816
45 1 0.0582014 0.850529 0.264922
59 1 0.161737 0.896382 0.0800085
36 1 0.114111 0.710558 0.422214
16 1 0.39324 0.532787 0.509821
55 1 0.400579 0.644931 0.110085
32 1 0.125064 0.648961 0.129074
26 1 0.82291 0.559015 0.204544
53 1 0.703471 0.849311 0.0287726
17 1 0.577849 0.615866 0.973165
12 1 0.863843 0.673246 0.00732105
24 1 0.553454 0.804874 0.197937
42 1 0.631983 0.670861 0.352728
25 1 0.838064 0.945129 0.212064
56 1 0.194902 0.421091 0.881606
1 1 0.0769407 0.291436 0.539358
54 1 0.409964 0.12732 0.759325
49 1 0.4861 0.318571 0.668254
51 1 0.326966 0.483676 0.729694
31 1 0.478702 0.426539 0.951486
5 1 0.347787 0.194234 0.957199
7 1 0.286828 0.110341 0.575877
64 1 0.727816 0.460894 0.712558
23 1 0.949019 0.24444 0.709787
46 1 0.792112 0.0996372 0.519822
52 1 0.702633 0.245915 0.633718
3 1 0.651253 0.292071 0.865643
41 1 0.915437 0.136801 0.896929
57 1 0.730022 0.0062259 0.8732
38 1 0.126251 0.928064 0.775271
37 1 0.301569 0.831628 0.714472
34 1 0.0604499 0.678555 0.7456
15 1 0.40315 0.676916 0.804631
60 1 0.0899355 0.506736 0.61751
33 1 0.275062 0.745286 0.954814
63 1 0.0331186 0.507251 0.978269
35 1 0.698602 0.760717 0.576121
21 1 0.637153 0.955772 0.520731
30 1 0.933177 0.776318 0.528696
22 1 0.913366 0.851638 0.737767
39 1 0.578658 0.588702 0.583964
13 1 0.784777 0.671978 0.810409
50 1 0.857021 0.546429 0.544034
9 1 0.533083 0.944357 0.730087
ITEM: TIMESTEP
40
ITEM: NUMBER OF ATOMS
64
ITEM: BOX BOUNDS pp pp pp
2.3067269421405356e-02 1.0838332730578490e+01
2.3067269421405356e-02 1.0838332730578490e+01
2.3067269421405356e-02 1.0838332730578490e+01
ITEM: ATOMS id type xs ys zs
28 1 0.103926 0.187173 0.196159
29 1 0.463708 0.941356 0.374611
43 1 0.245923 0.323635 0.284675
61 1 0.37013 0.0207821 0.0679305
48 1 0.454396 0.442492 0.28129
47 1 0.438003 0.221316 0.381871
40 1 0.0708854 0.0134473 0.530961
18 1 0.974473 0.0139172 0.070237
11 1 0.176691 0.492605 0.437222
58 1 0.319523 0.39731 0.0906983
20 1 0.970552 0.366907 0.166898
8 1 0.673654 0.260507 0.172819
10 1 0.945181 0.102982 0.34052
14 1 0.862832 0.365888 0.438637
44 1 0.815635 0.290952 0.99297
62 1 0.673063 0.464626 0.328831
4 1 0.577053 0.116506 0.048639
27 1 0.612331 0.0122394 0.22009
19 1 0.566647 0.374745 0.482846
2 1 0.305174 0.838174 0.500325
6 1 0.271703 0.985557 0.26079
45 1 0.0572585 0.854215 0.261297
59 1 0.167132 0.900314 0.0745979
36 1 0.113713 0.715615 0.425979
16 1 0.387577 0.535596 0.510702
55 1 0.403672 0.647577 0.0972601
32 1 0.127089 0.654508 0.128274
26 1 0.827377 0.572142 0.205944
53 1 0.69519 0.851775 0.0353234
17 1 0.57093 0.61454 0.960064
12 1 0.851492 0.66726 0.0151495
24 1 0.55399 0.812599 0.200019
42 1 0.639925 0.673957 0.358757
25 1 0.848039 0.936323 0.208827
56 1 0.196703 0.415192 0.88338
1 1 0.0807095 0.294061 0.537635
54 1 0.407697 0.130074 0.762393
49 1 0.484325 0.315673 0.672942
51 1 0.326855 0.486579 0.723461
31 1 0.47295 0.425275 0.948554
5 1 0.348349 0.192702 0.959091
7 1 0.282641 0.121263 0.577783
64 1 0.732596 0.469088 0.70584
23 1 0.95429 0.24745 0.701564
46 1 0.79776 0.104903 0.521064
52 1 0.705734 0.239485 0.638341
3 1 0.644091 0.285163 0.869583
41 1 0.910572 0.134244 0.891443
57 1 0.735305 0.004391 0.873473
38 1 0.116378 0.917923 0.765871
37 1 0.317763 0.829973 0.714172
34 1 0.0535089 0.684795 0.745006
15 1 0.397124 0.665094 0.812249
60 1 0.0972712 0.498189 0.604453
33 1 0.270408 0.739645 0.964582
63 1 0.0236548 0.503665 0.972374
35 1 0.705849 0.762109 0.577876
21 1 0.629767 0.943298 0.528937
30 1 0.943603 0.783365 0.518503
22 1 0.917558 0.846662 0.731126
39 1 0.566788 0.586352 0.590676
13 1 0.789943 0.673084 0.810358
50 1 0.859172 0.546585 0.535324
9 1 0.527996 0.943095 0.728625
ITEM: TIMESTEP
50
ITEM: NUMBER OF ATOMS
64
ITEM: BOX BOUNDS pp pp pp
2.7665773209676559e-02 1.0833734226790220e+01
2.7665773209676559e-02 1.0833734226790220e+01
2.7665773209676559e-02 1.0833734226790220e+01
ITEM: ATOMS id type xs ys zs
28 1 0.113258 0.184043 0.19256
29 1 0.47011 0.931393 0.366466
43 1 0.237304 0.325574 0.278368
61 1 0.367575 0.0182196 0.0721521
48 1 0.453894 0.435203 0.286853
47 1 0.44905 0.224528 0.383294
40 1 0.0729108 0.0180132 0.543959
18 1 0.965144 0.0251901 0.0622536
11 1 0.185399 0.496777 0.431654
58 1 0.322379 0.396451 0.0875458
20 1 0.970778 0.370204 0.187628
8 1 0.67663 0.265158 0.174573
10 1 0.946486 0.0846084 0.343835
14 1 0.869802 0.367341 0.418832
44 1 0.817185 0.299339 0.998355
62 1 0.668678 0.468832 0.326882
4 1 0.57153 0.11318 0.0438796
27 1 0.616365 0.0177497 0.227276
19 1 0.567 0.374344 0.486589
2 1 0.295021 0.835727 0.510346
6 1 0.269253 0.985643 0.268158
45 1 0.0563263 0.857026 0.258891
59 1 0.173842 0.904582 0.0671892
36 1 0.119048 0.719991 0.427977
16 1 0.37722 0.538101 0.508505
55 1 0.407951 0.649338 0.090875
32 1 0.128926 0.660753 0.126669
26 1 0.832252 0.584007 0.209824
53 1 0.688852 0.852899 0.0411541
17 1 0.568036 0.615708 0.94508
12 1 0.839318 0.661719 0.0233091
24 1 0.552276 0.813949 0.202502
42 1 0.649129 0.678257 0.364744
25 1 0.853857 0.92721 0.208526
56 1 0.20081 0.407048 0.886809
1 1 0.0861866 0.293338 0.533244
54 1 0.405378 0.131384 0.762784
49 1 0.481367 0.312299 0.680638
51 1 0.326716 0.485804 0.715678
31 1 0.46945 0.420174 0.943241
5 1 0.347918 0.19731 0.960032
7 1 0.276284 0.134178 0.577069
64 1 0.737564 0.478183 0.698717
23 1 0.955981 0.249117 0.694259
46 1 0.805716 0.106048 0.518457
52 1 0.708165 0.239201 0.647699
3 1 0.633911 0.279852 0.870766
41 1 0.907483 0.129406 0.88501
57 1 0.737109 0.000701995 0.873121
38 1 0.108697 0.908133 0.75567
37 1 0.334633 0.831329 0.713865
34 1 0.0491496 0.687528 0.744907
15 1 0.394723 0.652082 0.819998
60 1 0.0968179 0.493453 0.607485
33 1 0.261581 0.735673 0.974179
63 1 0.0116252 0.501643 0.969741
35 1 0.71635 0.757867 0.579875
21 1 0.620357 0.937082 0.537393
30 1 0.949623 0.79083 0.509553
22 1 0.916318 0.843826 0.724686
39 1 0.560055 0.585577 0.59982
13 1 0.793166 0.673652 0.808192
50 1 0.862789 0.552336 0.529879
9 1 0.523519 0.942803 0.728426
ITEM: TIMESTEP
60
ITEM: NUMBER OF ATOMS
64
ITEM: BOX BOUNDS pp pp pp
3.3006074705247634e-02 1.0828393925294646e+01
3.3006074705247634e-02 1.0828393925294646e+01
3.3006074705247634e-02 1.0828393925294646e+01
ITEM: ATOMS id type xs ys zs
28 1 0.117041 0.176861 0.188688
29 1 0.473653 0.921733 0.363334
43 1 0.230815 0.330965 0.27446
61 1 0.364866 0.0151088 0.0766574
48 1 0.451654 0.428968 0.291125
47 1 0.456319 0.224849 0.38452
40 1 0.0747271 0.0225718 0.556544
18 1 0.961136 0.0369461 0.053374
11 1 0.195096 0.500381 0.415935
58 1 0.323629 0.395627 0.0852075
20 1 0.969669 0.37454 0.206617
8 1 0.679691 0.268649 0.17625
10 1 0.949689 0.0669034 0.348312
14 1 0.877876 0.366701 0.397476
44 1 0.820932 0.309806 0.00643824
62 1 0.668822 0.472028 0.320984
4 1 0.565867 0.111319 0.0353583
27 1 0.624751 0.0260394 0.236156
19 1 0.567807 0.372974 0.493543
2 1 0.284829 0.83348 0.514812
6 1 0.265477 0.985395 0.275167
45 1 0.0573508 0.858413 0.257499
59 1 0.178221 0.910998 0.0598579
36 1 0.129993 0.722811 0.426874
16 1 0.367917 0.541534 0.504256
55 1 0.414694 0.650127 0.0914107
32 1 0.128253 0.666137 0.12583
26 1 0.836922 0.592688 0.219999
53 1 0.68566 0.853122 0.0452801
17 1 0.570766 0.617801 0.930124
12 1 0.827041 0.658399 0.0263925
24 1 0.548793 0.808404 0.204957
42 1 0.659211 0.683916 0.369956
25 1 0.854943 0.918383 0.209567
56 1 0.205365 0.398461 0.891306
1 1 0.0935049 0.28931 0.526052
54 1 0.401993 0.12988 0.760976
49 1 0.478545 0.310406 0.689463
51 1 0.324724 0.480042 0.707508
31 1 0.469399 0.413058 0.935352
5 1 0.346558 0.205217 0.960721
7 1 0.268249 0.149129 0.574301
64 1 0.742243 0.487034 0.691214
23 1 0.953656 0.248723 0.688711
46 1 0.813278 0.10419 0.514824
52 1 0.710757 0.243375 0.659608
3 1 0.623393 0.275509 0.870569
41 1 0.905303 0.126762 0.877092
57 1 0.734251 0.994473 0.872296
38 1 0.107546 0.899836 0.745618
37 1 0.350102 0.833238 0.716466
34 1 0.0482177 0.684103 0.745367
15 1 0.392684 0.642145 0.826867
60 1 0.0904821 0.492896 0.621535
33 1 0.251369 0.732455 0.979555
63 1 0.998768 0.499932 0.970007
35 1 0.72923 0.749202 0.581621
21 1 0.612179 0.936761 0.544077
30 1 0.949737 0.799253 0.502458
22 1 0.906448 0.844182 0.717986
39 1 0.556861 0.5859 0.610214
13 1 0.794567 0.6736 0.805677
50 1 0.868056 0.560483 0.526233
9 1 0.520653 0.944783 0.731256
ITEM: TIMESTEP
70
ITEM: NUMBER OF ATOMS
64
ITEM: BOX BOUNDS pp pp pp
3.9201624022276782e-02 1.0822198375977617e+01
3.9201624022276782e-02 1.0822198375977617e+01
3.9201624022276782e-02 1.0822198375977617e+01
ITEM: ATOMS id type xs ys zs
28 1 0.115518 0.166171 0.185087
29 1 0.47356 0.913463 0.366231
43 1 0.225062 0.338503 0.271669
61 1 0.363516 0.0142944 0.0805475
48 1 0.447809 0.424181 0.294235
47 1 0.460354 0.221419 0.385515
40 1 0.0763336 0.0272221 0.56767
18 1 0.961837 0.0466736 0.0482982
11 1 0.198056 0.50322 0.396601
58 1 0.324604 0.395789 0.0850663
20 1 0.97066 0.379269 0.219354
8 1 0.682023 0.270038 0.177309
10 1 0.955963 0.0497413 0.353331
14 1 0.884703 0.366203 0.381141
44 1 0.826407 0.321364 0.0150279
62 1 0.671481 0.474077 0.313151
4 1 0.561459 0.109889 0.026366
27 1 0.635516 0.0365904 0.244741
19 1 0.570146 0.372088 0.502841
2 1 0.277479 0.833638 0.516785
6 1 0.260982 0.984658 0.281767
45 1 0.0611577 0.858271 0.256806
59 1 0.178198 0.919652 0.0531207
36 1 0.140971 0.723106 0.42229
16 1 0.365527 0.54736 0.500497
55 1 0.423126 0.650391 0.0959079
32 1 0.122613 0.669337 0.128416
26 1 0.841766 0.599079 0.235347
53 1 0.685495 0.85279 0.0483034
17 1 0.579662 0.619481 0.917351
12 1 0.813971 0.656968 0.0243346
24 1 0.544879 0.797702 0.206445
42 1 0.670123 0.690259 0.374035
25 1 0.852174 0.910845 0.209292
56 1 0.208192 0.390482 0.895617
1 1 0.101068 0.285118 0.516958
54 1 0.395986 0.125247 0.757689
49 1 0.476467 0.311364 0.69815
51 1 0.320193 0.470809 0.700006
31 1 0.472021 0.407083 0.926022
5 1 0.344458 0.212721 0.961307
7 1 0.260258 0.165005 0.57067
64 1 0.746517 0.494554 0.683344
23 1 0.948241 0.246592 0.683607
46 1 0.818954 0.101844 0.513245
52 1 0.714919 0.249746 0.671227
3 1 0.615513 0.27076 0.870521
41 1 0.902373 0.128111 0.866177
57 1 0.72699 0.986207 0.870836
38 1 0.112014 0.892086 0.736084
37 1 0.360504 0.832404 0.721362
34 1 0.0485798 0.67693 0.746825
15 1 0.387824 0.635885 0.831642
60 1 0.0823211 0.493953 0.63768
33 1 0.24431 0.728845 0.978701
63 1 0.985919 0.497601 0.972572
35 1 0.74227 0.739636 0.582301
21 1 0.607937 0.938724 0.547451
30 1 0.946915 0.807936 0.495723
22 1 0.89139 0.847132 0.711558
39 1 0.554596 0.586577 0.620632
13 1 0.794461 0.672985 0.804185
50 1 0.875556 0.567957 0.522494
9 1 0.52235 0.950891 0.73843
ITEM: TIMESTEP
80
ITEM: NUMBER OF ATOMS
64
ITEM: BOX BOUNDS pp pp pp
4.6194632429106264e-02 1.0815205367570794e+01
4.6194632429106264e-02 1.0815205367570794e+01
4.6194632429106264e-02 1.0815205367570794e+01
ITEM: ATOMS id type xs ys zs
28 1 0.110536 0.15421 0.182989
29 1 0.470685 0.907113 0.3735
43 1 0.218089 0.343449 0.26719
61 1 0.364597 0.0170558 0.0838778
48 1 0.443489 0.421097 0.296688
47 1 0.462461 0.214688 0.38682
40 1 0.07763 0.0326961 0.575995
18 1 0.966522 0.0540102 0.0475301
11 1 0.194565 0.507805 0.37744
58 1 0.327262 0.397987 0.0873148
20 1 0.980219 0.385011 0.214703
8 1 0.683507 0.269488 0.177729
10 1 0.965469 0.0330239 0.358698
14 1 0.88393 0.365469 0.38174
44 1 0.832812 0.33278 0.0231758
62 1 0.674382 0.474555 0.305171
4 1 0.558831 0.108019 0.0190015
27 1 0.646814 0.0489436 0.252882
19 1 0.574114 0.371767 0.5125
2 1 0.275893 0.838578 0.520501
6 1 0.256818 0.983486 0.287798
45 1 0.0668333 0.856779 0.256245
59 1 0.173446 0.928669 0.0463812
36 1 0.146721 0.719181 0.413533
16 1 0.369351 0.555256 0.497556
55 1 0.43091 0.649324 0.100721
32 1 0.111703 0.670189 0.134764
26 1 0.847258 0.605069 0.251293
53 1 0.687254 0.852107 0.0515388
17 1 0.59264 0.620248 0.907221
12 1 0.800344 0.655957 0.0212469
24 1 0.541783 0.784521 0.207898
42 1 0.681162 0.69652 0.376283
25 1 0.846765 0.905157 0.206906
56 1 0.207573 0.383789 0.898462
1 1 0.104211 0.285426 0.505759
54 1 0.386409 0.119124 0.753162
49 1 0.475015 0.314589 0.705942
51 1 0.312677 0.460923 0.693955
31 1 0.47476 0.406103 0.917217
5 1 0.341858 0.216646 0.961323
7 1 0.256767 0.178047 0.568403
64 1 0.750354 0.499461 0.675123
23 1 0.94182 0.243797 0.677201
46 1 0.822295 0.100157 0.514827
52 1 0.720758 0.25738 0.680688
3 1 0.613479 0.263832 0.871471
41 1 0.897182 0.131807 0.85382
57 1 0.717013 0.977508 0.868422
38 1 0.119514 0.882988 0.72743
37 1 0.364131 0.82771 0.726691
34 1 0.0479339 0.670671 0.750409
15 1 0.38057 0.631606 0.834309
60 1 0.0740493 0.492993 0.652489
33 1 0.241704 0.724963 0.973122
63 1 0.974024 0.494744 0.977128
35 1 0.751998 0.73117 0.581405
21 1 0.60836 0.941022 0.54721
30 1 0.944463 0.816052 0.488406
22 1 0.876535 0.852986 0.706885
39 1 0.552039 0.587666 0.630601
13 1 0.793679 0.672091 0.804379
50 1 0.886281 0.572661 0.517604
9 1 0.529981 0.960797 0.749222
ITEM: TIMESTEP
90
ITEM: NUMBER OF ATOMS
64
ITEM: BOX BOUNDS pp pp pp
5.4062977768811749e-02 1.0807337022231085e+01
5.4062977768811749e-02 1.0807337022231085e+01
5.4062977768811749e-02 1.0807337022231085e+01
ITEM: ATOMS id type xs ys zs
28 1 0.104827 0.143771 0.183875
29 1 0.466012 0.902089 0.38221
43 1 0.209076 0.341627 0.259378
61 1 0.366561 0.0227162 0.086957
48 1 0.439834 0.419468 0.29921
47 1 0.463843 0.20628 0.389107
40 1 0.0785724 0.0393086 0.581258
18 1 0.972776 0.0592381 0.0473012
11 1 0.18852 0.516716 0.362319
58 1 0.332668 0.402373 0.0907284
20 1 0.995368 0.391315 0.198244
8 1 0.684372 0.267935 0.177207
10 1 0.976458 0.0173968 0.36508
14 1 0.878064 0.364528 0.393781
44 1 0.838235 0.341535 0.0311048
62 1 0.676302 0.473134 0.29804
4 1 0.558153 0.105201 0.0148295
27 1 0.657376 0.0623128 0.260943
19 1 0.579038 0.371372 0.520773
2 1 0.278333 0.84669 0.525702
6 1 0.254308 0.982344 0.292865
45 1 0.0727217 0.854448 0.25485
59 1 0.166045 0.93609 0.0393188
36 1 0.148217 0.712776 0.402944
16 1 0.375105 0.563259 0.494122
55 1 0.434654 0.644358 0.102235
32 1 0.0982092 0.669121 0.141911
26 1 0.854084 0.611316 0.264509
53 1 0.689038 0.851171 0.0558193
17 1 0.60547 0.619772 0.89915
12 1 0.787559 0.654372 0.0204389
24 1 0.541183 0.77334 0.212588
42 1 0.690372 0.7025 0.375958
25 1 0.840861 0.902073 0.203275
56 1 0.203122 0.379014 0.899486
1 1 0.0996478 0.292463 0.491716
54 1 0.374318 0.114101 0.747817
49 1 0.473703 0.317839 0.712305
51 1 0.302085 0.453052 0.689286
31 1 0.476406 0.411682 0.910366
5 1 0.33926 0.2156 0.960577
7 1 0.260794 0.184894 0.568996
64 1 0.753826 0.501382 0.666316
23 1 0.937511 0.241725 0.668014
46 1 0.823598 0.0989199 0.518432
52 1 0.727109 0.265937 0.687391
3 1 0.617805 0.255038 0.873809
41 1 0.889233 0.134779 0.844418
57 1 0.707984 0.96997 0.866079
38 1 0.128463 0.872233 0.719663
37 1 0.364044 0.822048 0.731708
34 1 0.0454659 0.668902 0.757583
15 1 0.374152 0.626873 0.835048
60 1 0.0665982 0.486958 0.66409
33 1 0.240611 0.72184 0.967786
63 1 0.965155 0.493148 0.982878
35 1 0.756424 0.724293 0.579103
21 1 0.612828 0.943533 0.544985
30 1 0.943479 0.823251 0.480918
22 1 0.864074 0.862404 0.704949
39 1 0.549063 0.589344 0.63997
13 1 0.793879 0.671527 0.80521
50 1 0.900546 0.5737 0.511542
9 1 0.538827 0.970519 0.759421
ITEM: TIMESTEP
100
ITEM: NUMBER OF ATOMS
64
ITEM: BOX BOUNDS pp pp pp
6.2846205224023954e-02 1.0798553794775870e+01
6.2846205224023954e-02 1.0798553794775870e+01
6.2846205224023954e-02 1.0798553794775870e+01
ITEM: ATOMS id type xs ys zs
28 1 0.100829 0.13683 0.189935
29 1 0.459702 0.897526 0.391117
43 1 0.198387 0.333901 0.249814
61 1 0.366927 0.0299965 0.0900925
48 1 0.437259 0.418611 0.302834
47 1 0.465035 0.197432 0.392838
40 1 0.0795469 0.04685 0.584662
18 1 0.977178 0.0622593 0.0433456
11 1 0.182856 0.525162 0.349397
58 1 0.340895 0.408534 0.0934443
20 1 0.0100753 0.39747 0.180044
8 1 0.685041 0.266786 0.175013
10 1 0.987371 0.00451901 0.373125
14 1 0.872517 0.364026 0.4074
44 1 0.839731 0.34461 0.0399119
62 1 0.677392 0.469956 0.291823
4 1 0.559383 0.100917 0.0149183
27 1 0.667105 0.0756766 0.269899
19 1 0.584519 0.370517 0.527369
2 1 0.281754 0.855246 0.530126
6 1 0.254372 0.98163 0.297147
45 1 0.0781053 0.851971 0.25153
59 1 0.15874 0.941395 0.0318019
36 1 0.148263 0.709682 0.394562
16 1 0.380342 0.56982 0.48978
55 1 0.432685 0.634023 0.0989852
32 1 0.0837141 0.665292 0.147679
26 1 0.863388 0.617343 0.274221
53 1 0.688653 0.849948 0.0607059
17 1 0.613753 0.617017 0.891844
12 1 0.777451 0.651858 0.0236065
24 1 0.543477 0.766352 0.222144
42 1 0.69605 0.708814 0.372726
25 1 0.836648 0.902416 0.200282
56 1 0.195591 0.376029 0.899161
1 1 0.0906576 0.303464 0.475802
54 1 0.362102 0.110568 0.742818
49 1 0.472123 0.319468 0.716993
51 1 0.288887 0.44788 0.685411
31 1 0.478343 0.422435 0.905848
5 1 0.336828 0.210717 0.959267
7 1 0.268532 0.188104 0.569937
64 1 0.757143 0.500959 0.656458
23 1 0.938185 0.241011 0.655348
46 1 0.823089 0.097097 0.52251
52 1 0.732387 0.275568 0.69192
3 1 0.626166 0.247147 0.877261
41 1 0.87856 0.135759 0.839604
57 1 0.705843 0.963621 0.867424
38 1 0.138494 0.860815 0.71161
37 1 0.363214 0.818044 0.736657
34 1 0.0411034 0.671106 0.76853
15 1 0.37042 0.619586 0.833279
60 1 0.0596444 0.475889 0.673019
33 1 0.237822 0.720395 0.966264
63 1 0.961725 0.496167 0.987971
35 1 0.756681 0.718916 0.576779
21 1 0.620721 0.946873 0.542723
30 1 0.943401 0.828808 0.474456
22 1 0.853384 0.874968 0.70518
39 1 0.545986 0.591818 0.649112
13 1 0.797613 0.672001 0.804511
50 1 0.918022 0.571449 0.504881
9 1 0.540417 0.977868 0.763039
ITEM: TIMESTEP
110
ITEM: NUMBER OF ATOMS
64
ITEM: BOX BOUNDS pp pp pp
7.2439873500330876e-02 1.0788960126499568e+01
7.2439873500330876e-02 1.0788960126499568e+01
7.2439873500330876e-02 1.0788960126499568e+01
ITEM: ATOMS id type xs ys zs
28 1 0.0987352 0.133057 0.201329
29 1 0.452763 0.893081 0.399736
43 1 0.189809 0.323323 0.241383
61 1 0.36421 0.0373465 0.0937285
48 1 0.43591 0.417937 0.308305
47 1 0.466048 0.189185 0.397971
40 1 0.0810159 0.0546532 0.587619
18 1 0.977645 0.0639125 0.0344684
11 1 0.179419 0.525311 0.335514
58 1 0.350541 0.415035 0.0945054
20 1 0.0212778 0.403707 0.163065
8 1 0.685313 0.267191 0.170719
10 1 0.997618 0.998693 0.381182
14 1 0.867563 0.36381 0.42044
44 1 0.837147 0.342042 0.0489351
62 1 0.678345 0.465745 0.286818
4 1 0.562257 0.0951296 0.0193876
27 1 0.676222 0.0868761 0.280835
19 1 0.589925 0.36924 0.532042
2 1 0.284945 0.862864 0.532688
6 1 0.257448 0.981575 0.300809
45 1 0.0827167 0.850724 0.245235
59 1 0.154136 0.944129 0.0241818
36 1 0.147824 0.715018 0.392027
16 1 0.38398 0.57376 0.484905
55 1 0.426803 0.621376 0.0933246
32 1 0.0687708 0.657774 0.150933
26 1 0.874939 0.622185 0.280621
53 1 0.6843 0.848234 0.065106
17 1 0.61521 0.611444 0.884045
12 1 0.771494 0.648356 0.0308099
24 1 0.545618 0.762447 0.233463
42 1 0.698639 0.715166 0.367363
25 1 0.835892 0.90701 0.199837
56 1 0.186522 0.374272 0.89799
1 1 0.0818229 0.315111 0.459945
54 1 0.352154 0.107743 0.740714
49 1 0.469861 0.319056 0.719979
51 1 0.275137 0.444649 0.682194
31 1 0.481954 0.435209 0.903897
5 1 0.334217 0.204718 0.957207
7 1 0.275252 0.191404 0.566953
64 1 0.760506 0.499197 0.64578
23 1 0.944304 0.241535 0.640877
46 1 0.820583 0.0935045 0.525671
52 1 0.735897 0.285951 0.694959
3 1 0.636068 0.242773 0.881224
41 1 0.866297 0.135099 0.838335
57 1 0.711758 0.957913 0.873568
38 1 0.148297 0.850466 0.702675
37 1 0.36341 0.816411 0.741845
34 1 0.0351936 0.674063 0.781955
15 1 0.368652 0.610033 0.829011
60 1 0.0524793 0.462764 0.680979
33 1 0.232704 0.720377 0.968769
63 1 0.96335 0.505149 0.989747
35 1 0.755055 0.715466 0.575632
21 1 0.630932 0.951385 0.541264
30 1 0.942624 0.828962 0.471763
22 1 0.843841 0.889116 0.705856
39 1 0.54307 0.595237 0.657866
13 1 0.806432 0.673785 0.801631
50 1 0.937094 0.567485 0.498193
9 1 0.53228 0.98275 0.758084
ITEM: TIMESTEP
120
ITEM: NUMBER OF ATOMS
64
ITEM: BOX BOUNDS pp pp pp
8.2717601091949255e-02 1.0778682398907947e+01
8.2717601091949255e-02 1.0778682398907947e+01
8.2717601091949255e-02 1.0778682398907947e+01
ITEM: ATOMS id type xs ys zs
28 1 0.0956951 0.128714 0.215191
29 1 0.447858 0.888977 0.407106
43 1 0.187411 0.312236 0.235648
61 1 0.35856 0.0432463 0.0982519
48 1 0.43573 0.416944 0.315689
47 1 0.466876 0.182197 0.40419
40 1 0.0836349 0.0623683 0.591209
18 1 0.974995 0.0658421 0.0234836
11 1 0.178046 0.519348 0.321115
58 1 0.359275 0.418215 0.0944038
20 1 0.0282729 0.409821 0.147707
8 1 0.683256 0.267978 0.165456
10 1 0.00783209 0.00190016 0.387301
14 1 0.860994 0.363725 0.432515
44 1 0.835262 0.338439 0.0552654
62 1 0.67975 0.461291 0.283449
4 1 0.566509 0.0885347 0.0272499
27 1 0.68506 0.094906 0.294646
19 1 0.594378 0.367619 0.534433
2 1 0.287098 0.869251 0.533455
6 1 0.263314 0.982111 0.303985
45 1 0.0862516 0.852057 0.234923
59 1 0.153465 0.944196 0.0170086
36 1 0.148009 0.725053 0.396005
16 1 0.385856 0.57482 0.48009
55 1 0.419848 0.612032 0.0882877
32 1 0.0541911 0.647421 0.151322
26 1 0.88644 0.62565 0.284843
53 1 0.676072 0.845952 0.0693099
17 1 0.614181 0.605308 0.875662
12 1 0.768748 0.643772 0.0399749
24 1 0.543289 0.760469 0.241946
42 1 0.701962 0.720322 0.362394
25 1 0.838467 0.91589 0.202096
56 1 0.177034 0.373093 0.896408
1 1 0.0756415 0.326162 0.44462
54 1 0.344461 0.105687 0.742679
49 1 0.466677 0.317171 0.721922
51 1 0.263231 0.442238 0.679503
31 1 0.487327 0.444999 0.904438
5 1 0.330867 0.200373 0.95363
7 1 0.279686 0.196135 0.558604
64 1 0.764499 0.497801 0.634398
23 1 0.953451 0.242881 0.627023
46 1 0.816614 0.0880474 0.527219
52 1 0.738751 0.295445 0.697266
3 1 0.646095 0.24187 0.88588
41 1 0.853726 0.133568 0.838731
57 1 0.718806 0.95333 0.881306
38 1 0.155231 0.841378 0.693666
37 1 0.365693 0.816377 0.747632
34 1 0.0294245 0.67605 0.796731
15 1 0.365741 0.601084 0.82277
60 1 0.0443471 0.450141 0.689243
33 1 0.226302 0.720628 0.973476
63 1 0.966212 0.518266 0.985937
35 1 0.752787 0.714154 0.575494
21 1 0.641237 0.956607 0.540567
30 1 0.940021 0.82131 0.473994
22 1 0.835517 0.903695 0.705087
39 1 0.540404 0.599698 0.665024
13 1 0.817924 0.676398 0.798197
50 1 0.956884 0.563381 0.491963
9 1 0.521052 0.984346 0.748875
ITEM: TIMESTEP
130
ITEM: NUMBER OF ATOMS
64
ITEM: BOX BOUNDS pp pp pp
9.3564089199018596e-02 1.0767835910800880e+01
9.3564089199018596e-02 1.0767835910800880e+01
9.3564089199018596e-02 1.0767835910800880e+01
ITEM: ATOMS id type xs ys zs
28 1 0.0893329 0.121295 0.228426
29 1 0.448463 0.885768 0.411196
43 1 0.191546 0.303253 0.232172
61 1 0.351493 0.0468725 0.10333