
     Program PWSCF v.7.0 starts on  8Jul2023 at 21:40: 5 

     This program is part of the open-source Quantum ESPRESSO suite
     for quantum simulation of materials; please cite
         "P. Giannozzi et al., J. Phys.:Condens. Matter 21 395502 (2009);
         "P. Giannozzi et al., J. Phys.:Condens. Matter 29 465901 (2017);
         "P. Giannozzi et al., J. Chem. Phys. 152 154105 (2020);
          URL http://www.quantum-espresso.org", 
     in publications or presentations arising from this work. More details at
     http://www.quantum-espresso.org/quote

     Parallel version (MPI & OpenMP), running on      36 processor cores
     Number of MPI processes:                 6
     Threads/MPI process:                     6

     MPI processes distributed on     1 nodes
     R & G space division:  proc/nbgrp/npool/nimage =       6
     107964 MiB available memory on the printing compute node when the environment starts
 
     Reading input from pw-si-vc_relax.in

     Current dimensions of program PWSCF are:
     Max number of different atomic species (ntypx) = 10
     Max number of k-points (npk) =  40000
     Max angular momentum in pseudopotentials (lmaxx) =  4

     IMPORTANT: XC functional enforced from input :
     Exchange-correlation= PBE
                           (   1   4   3   4   0   0   0)
     Any further DFT definition will be discarded
     Please, verify this is what you really want

     Found identity + (  0.0000  0.5000 -0.5000) symmetry
     This is a supercell, fractional translations are disabled
     Message from routine setup:
     using ibrav=0 with symmetry is DISCOURAGED, use correct ibrav instead

     Subspace diagonalization in iterative solution of the eigenvalue problem:
     a serial algorithm will be used

 
     Parallelization info
     --------------------
     sticks:   dense  smooth     PW     G-vecs:    dense   smooth      PW
     Min         167     167     48                 4017     4017     622
     Max         168     168     49                 4020     4020     625
     Sum        1005    1005    293                24111    24111    3743
 
     Using Slab Decomposition
 


     bravais-lattice index     =            0
     lattice parameter (alat)  =      10.2871  a.u.
     unit-cell volume          =    1088.6285 (a.u.)^3
     number of atoms/cell      =            8
     number of atomic types    =            1
     number of electrons       =        32.00
     number of Kohn-Sham states=           16
     kinetic-energy cutoff     =      30.0000  Ry
     charge density cutoff     =     120.0000  Ry
     scf convergence threshold =      1.0E-06
     mixing beta               =       0.5000
     number of iterations used =            8  plain     mixing
     energy convergence thresh.=      1.0E-04
     force convergence thresh. =      1.0E-04
     press convergence thresh. =      5.0E-01
     Exchange-correlation= PBE
                           (   1   4   3   4   0   0   0)
     nstep                     =           50


     GPU acceleration is ACTIVE.

     Message from routine print_cuda_info:
     High GPU oversubscription detected. Are you sure this is what you want?

     celldm(1)=  10.287107  celldm(2)=   0.000000  celldm(3)=   0.000000
     celldm(4)=   0.000000  celldm(5)=   0.000000  celldm(6)=   0.000000

     crystal axes: (cart. coord. in units of alat)
               a(1) = (   1.000000   0.000000   0.000000 )  
               a(2) = (   0.000000   1.000000   0.000000 )  
               a(3) = (   0.000000   0.000000   1.000000 )  

     reciprocal axes: (cart. coord. in units 2 pi/alat)
               b(1) = (  1.000000  0.000000  0.000000 )  
               b(2) = (  0.000000  1.000000  0.000000 )  
               b(3) = (  0.000000  0.000000  1.000000 )  


     PseudoPot. # 1 for Si read from file:
     ./Si_ONCV_PBE-1.0.upf
     MD5 check sum: 2de5a83d12544a9ea852f39b88f19b1f
     Pseudo is Norm-conserving, Zval =  4.0
     Generated using ONCVPSP code by D. R. Hamann
     Using radial grid of  602 points,  4 beta functions with: 
                l(1) =   0
                l(2) =   0
                l(3) =   1
                l(4) =   1

     atomic species   valence    mass     pseudopotential
        Si             4.00    28.08500     Si( 1.00)

     24 Sym. Ops. (no inversion) found



   Cartesian axes

     site n.     atom                  positions (alat units)
         1           Si  tau(   1) = (   0.7500000   0.7500000   0.2500000  )
         2           Si  tau(   2) = (   0.0000000   0.5000000   0.5000000  )
         3           Si  tau(   3) = (   0.7500000   0.2500000   0.7500000  )
         4           Si  tau(   4) = (   0.0000000   0.0000000   0.0000000  )
         5           Si  tau(   5) = (   0.2500000   0.7500000   0.7500000  )
         6           Si  tau(   6) = (   0.5000000   0.5000000   0.0000000  )
         7           Si  tau(   7) = (   0.2500000   0.2500000   0.2500000  )
         8           Si  tau(   8) = (   0.5000000   0.0000000   0.5000000  )

     number of k points=     4
                       cart. coord. in units 2pi/alat
        k(    1) = (   0.1250000   0.1250000   0.1250000), wk =   0.2500000
        k(    2) = (   0.1250000   0.1250000   0.3750000), wk =   0.7500000
        k(    3) = (   0.1250000   0.3750000   0.3750000), wk =   0.7500000
        k(    4) = (   0.3750000   0.3750000   0.3750000), wk =   0.2500000

     Dense  grid:    24111 G-vectors     FFT dimensions: (  36,  36,  36)

     Estimated max dynamical RAM per process >       4.37 MB

     Estimated total dynamical RAM >      26.20 MB

     Initial potential from superposition of free atoms

     starting charge      31.6302, renormalised to      32.0000
     Starting wfcs are random

     total cpu time spent up to now is        1.6 secs

     Self-consistent Calculation

     iteration #  1     ecut=    30.00 Ry     beta= 0.50
     Davidson diagonalization with overlap
     ethr =  1.00E-02,  avg # of iterations = 10.0

     Threshold (ethr) on eigenvalues was too large:
     Diagonalizing with lowered threshold

     Davidson diagonalization with overlap
     ethr =  6.13E-04,  avg # of iterations =  3.3

     total cpu time spent up to now is        3.2 secs

     total energy              =     -63.04737473 Ry
     estimated scf accuracy    <       0.20677621 Ry

     iteration #  2     ecut=    30.00 Ry     beta= 0.50
     Davidson diagonalization with overlap
     ethr =  6.46E-04,  avg # of iterations =  1.0

     total cpu time spent up to now is        3.6 secs

     total energy              =     -63.04740243 Ry
     estimated scf accuracy    <       0.03859676 Ry

     iteration #  3     ecut=    30.00 Ry     beta= 0.50
     Davidson diagonalization with overlap
     ethr =  1.21E-04,  avg # of iterations =  2.0

     total cpu time spent up to now is        4.0 secs

     total energy              =     -63.05132683 Ry
     estimated scf accuracy    <       0.00054396 Ry

     iteration #  4     ecut=    30.00 Ry     beta= 0.50
     Davidson diagonalization with overlap
     ethr =  1.70E-06,  avg # of iterations =  6.0

     total cpu time spent up to now is        4.8 secs

     total energy              =     -63.05234164 Ry
     estimated scf accuracy    <       0.00000567 Ry

     iteration #  5     ecut=    30.00 Ry     beta= 0.50
     Davidson diagonalization with overlap
     ethr =  1.77E-08,  avg # of iterations =  5.5

     total cpu time spent up to now is        5.6 secs

     End of self-consistent calculation

          k = 0.1250 0.1250 0.1250 (  3017 PWs)   bands (ev):

    -5.5567  -2.4912  -2.4906  -2.4906  -0.6640  -0.6635  -0.6635   2.7476
     2.7478   2.7478   3.4942   3.4942   3.4944   4.5559   5.8694   5.8694

          k = 0.1250 0.1250 0.3750 (  3012 PWs)   bands (ev):

    -5.0231  -3.9801  -2.3181  -2.3176  -0.7638  -0.7636   1.2169   2.1272
     2.1273   2.9328   3.2205   3.2205   3.5046   3.9656   4.8486   4.9179

          k = 0.1250 0.3750 0.3750 (  3026 PWs)   bands (ev):

    -4.5183  -3.5584  -3.5580  -2.8602  -0.4677   0.3271   0.3272   1.5404
     2.1907   2.8561   2.8562   3.8594   4.2417   4.2422   4.2842   5.3872

          k = 0.3750 0.3750 0.3750 (  3028 PWs)   bands (ev):

    -4.0790  -3.3617  -3.3610  -3.3610  -0.5659  -0.5659  -0.5658   0.2305
     3.8859   3.8865   3.8865   4.6057   4.6057   4.6060   5.0769   5.0769

     highest occupied level (ev):     5.8694

!    total energy              =     -63.05234690 Ry
     estimated scf accuracy    <       0.00000061 Ry

     The total energy is the sum of the following terms:
     one-electron contribution =      18.78321554 Ry
     hartree contribution      =       4.42594854 Ry
     xc contribution           =     -19.23487485 Ry
     ewald contribution        =     -67.02663613 Ry

     convergence has been achieved in   5 iterations

     Forces acting on atoms (cartesian axes, Ry/au):

     atom    1 type  1   force =    -0.00001678   -0.00001678    0.00001678
     atom    2 type  1   force =     0.00000000    0.00000000    0.00000000
     atom    3 type  1   force =    -0.00001678    0.00001678   -0.00001678
     atom    4 type  1   force =     0.00000000    0.00000000    0.00000000
     atom    5 type  1   force =     0.00001678   -0.00001678   -0.00001678
     atom    6 type  1   force =     0.00000000    0.00000000    0.00000000
     atom    7 type  1   force =     0.00001678    0.00001678    0.00001678
     atom    8 type  1   force =     0.00000000    0.00000000    0.00000000

     Total force =     0.000058     Total SCF correction =     0.000486
     SCF correction compared to forces is large: reduce conv_thr to get better values


     Computing stress (Cartesian axis) and pressure

          total   stress  (Ry/bohr**3)                   (kbar)     P=       15.73
   0.00010694   0.00000000   0.00000000           15.73        0.00        0.00
   0.00000000   0.00010694   0.00000000            0.00       15.73        0.00
   0.00000000   0.00000000   0.00010694            0.00        0.00       15.73


     BFGS Geometry Optimization
     Energy error            =      0.0E+00 Ry
     Gradient error          =      1.7E-05 Ry/Bohr
     Cell gradient error     =      1.6E+01 kbar

     number of scf cycles    =   1
     number of bfgs steps    =   0

     enthalpy           new  =     -63.0523469020 Ry

     new trust radius        =       0.0176412882 bohr
     new conv_thr            =       0.0000010000 Ry

     new unit-cell volume =   1097.38286 a.u.^3 (   162.61536 Ang^3 )
     density =      2.29431 g/cm^3

CELL_PARAMETERS (angstrom)
   5.458255446   0.000000000   0.000000000
   0.000000000   5.458255446   0.000000000
   0.000000000   0.000000000   5.458255446

ATOMIC_POSITIONS (angstrom)
Si            4.0936826839        4.0936826839        1.3645727626
Si            0.0000000000        2.7291277232        2.7291277232
Si            4.0936826839        1.3645727626        4.0936826839
Si            0.0000000000        0.0000000000        0.0000000000
Si            1.3645727626        4.0936826839        4.0936826839
Si            2.7291277232        2.7291277232        0.0000000000
Si            1.3645727626        1.3645727626        1.3645727626
Si            2.7291277232        0.0000000000        2.7291277232



     Writing config-only to output data dir ./pwscf.save/
     NEW-OLD atomic charge density approx. for the potential
     extrapolated charge   32.25233, renormalised to   32.00000

     total cpu time spent up to now is        6.6 secs

     Self-consistent Calculation

     iteration #  1     ecut=    30.00 Ry     beta= 0.50
     Davidson diagonalization with overlap
     ethr =  1.00E-06,  avg # of iterations =  3.5

     total cpu time spent up to now is        7.2 secs

     total energy              =     -63.05289209 Ry
     estimated scf accuracy    <       0.00009272 Ry

     iteration #  2     ecut=    30.00 Ry     beta= 0.50
     Davidson diagonalization with overlap
     ethr =  2.90E-07,  avg # of iterations =  3.5

     total cpu time spent up to now is        7.8 secs

     total energy              =     -63.05306098 Ry
     estimated scf accuracy    <       0.00003309 Ry

     iteration #  3     ecut=    30.00 Ry     beta= 0.50
     Davidson diagonalization with overlap
     ethr =  1.03E-07,  avg # of iterations =  1.0

     total cpu time spent up to now is        8.1 secs

     total energy              =     -63.05305646 Ry
     estimated scf accuracy    <       0.00001355 Ry

     iteration #  4     ecut=    30.00 Ry     beta= 0.50
     Davidson diagonalization with overlap
     ethr =  4.24E-08,  avg # of iterations =  2.0

     total cpu time spent up to now is        8.6 secs

     total energy              =     -63.05305795 Ry
     estimated scf accuracy    <       0.00000125 Ry

     iteration #  5     ecut=    30.00 Ry     beta= 0.50
     Davidson diagonalization with overlap
     ethr =  3.92E-09,  avg # of iterations =  1.5

     total cpu time spent up to now is        9.0 secs

     End of self-consistent calculation

          k = 0.1247 0.1247 0.1247 (  3017 PWs)   bands (ev):

    -5.5852  -2.5412  -2.5412  -2.5411  -0.7268  -0.7268  -0.7267   2.6942
     2.6942   2.6943   3.4322   3.4323   3.4323   4.4767   5.7904   5.7904

          k = 0.1247 0.1247 0.3740 (  3012 PWs)   bands (ev):

    -5.0552  -4.0197  -2.3714  -2.3714  -0.8250  -0.8250   1.1440   2.0793
     2.0793   2.8572   3.1635   3.1635   3.4433   3.9007   4.7777   4.8424

          k = 0.1247 0.3740 0.3740 (  3026 PWs)   bands (ev):

    -4.5543  -3.6017  -3.6017  -2.9104  -0.5248   0.2647   0.2647   1.4745
     2.1393   2.7980   2.7981   3.7937   4.1753   4.1754   4.2162   5.3101

          k = 0.3740 0.3740 0.3740 (  3028 PWs)   bands (ev):

    -4.1190  -3.4081  -3.4081  -3.4080  -0.6146  -0.6146  -0.6146   0.1767
     3.8168   3.8168   3.8169   4.5350   4.5350   4.5350   5.0020   5.0020

     highest occupied level (ev):     5.7904

!    total energy              =     -63.05305785 Ry
     estimated scf accuracy    <       0.00000029 Ry

     The total energy is the sum of the following terms:
     one-electron contribution =      18.54300716 Ry
     hartree contribution      =       4.45302557 Ry
     xc contribution           =     -19.20116426 Ry
     ewald contribution        =     -66.84792632 Ry

     convergence has been achieved in   5 iterations

     Forces acting on atoms (cartesian axes, Ry/au):

     atom    1 type  1   force =     0.00000497    0.00000497   -0.00000497
     atom    2 type  1   force =     0.00000000    0.00000000    0.00000000
     atom    3 type  1   force =     0.00000497   -0.00000497    0.00000497
     atom    4 type  1   force =     0.00000000    0.00000000    0.00000000
     atom    5 type  1   force =    -0.00000497    0.00000497    0.00000497
     atom    6 type  1   force =     0.00000000    0.00000000    0.00000000
     atom    7 type  1   force =    -0.00000497   -0.00000497   -0.00000497
     atom    8 type  1   force =     0.00000000    0.00000000    0.00000000

     Total force =     0.000017     Total SCF correction =     0.000041
     SCF correction compared to forces is large: reduce conv_thr to get better values


     Computing stress (Cartesian axis) and pressure

          total   stress  (Ry/bohr**3)                   (kbar)     P=        8.15
   0.00005543   0.00000000   0.00000000            8.15        0.00        0.00
   0.00000000   0.00005543   0.00000000            0.00        8.15        0.00
   0.00000000   0.00000000   0.00005543            0.00        0.00        8.15

     Energy error            =      7.1E-04 Ry
     Gradient error          =      5.0E-06 Ry/Bohr
     Cell gradient error     =      8.2E+00 kbar

     number of scf cycles    =   2
     number of bfgs steps    =   1

     enthalpy           old  =     -63.0523469020 Ry
     enthalpy           new  =     -63.0530578498 Ry

     CASE: enthalpy          _new < enthalpy          _old

     new trust radius        =       0.0192244751 bohr
     new conv_thr            =       0.0000000100 Ry

     new unit-cell volume =   1106.96327 a.u.^3 (   164.03503 Ang^3 )
     density =      2.27445 g/cm^3

CELL_PARAMETERS (angstrom)
   5.474093407   0.000000000   0.000000000
   0.000000000   5.474093407   0.000000000
   0.000000000   0.000000000   5.474093407

ATOMIC_POSITIONS (angstrom)
Si            4.1055666616        4.1055666616        1.3685267458
Si            0.0000000000        2.7370467037        2.7370467037
Si            4.1055666616        1.3685267458        4.1055666616
Si            0.0000000000        0.0000000000        0.0000000000
Si            1.3685267458        4.1055666616        4.1055666616
Si            2.7370467037        2.7370467037        0.0000000000
Si            1.3685267458        1.3685267458        1.3685267458
Si            2.7370467037        0.0000000000        2.7370467037



     Writing config-only to output data dir ./pwscf.save/
     NEW-OLD atomic charge density approx. for the potential
     extrapolated charge   32.27375, renormalised to   32.00000

     total cpu time spent up to now is       10.0 secs

     Self-consistent Calculation

     iteration #  1     ecut=    30.00 Ry     beta= 0.50
     Davidson diagonalization with overlap
     ethr =  1.00E-06,  avg # of iterations =  3.8

     total cpu time spent up to now is       10.7 secs

     total energy              =     -63.05314836 Ry
     estimated scf accuracy    <       0.00010338 Ry

     iteration #  2     ecut=    30.00 Ry     beta= 0.50
     Davidson diagonalization with overlap
     ethr =  3.23E-07,  avg # of iterations =  3.5

     total cpu time spent up to now is       11.3 secs

     total energy              =     -63.05334449 Ry
     estimated scf accuracy    <       0.00003964 Ry

     iteration #  3     ecut=    30.00 Ry     beta= 0.50
     Davidson diagonalization with overlap
     ethr =  1.24E-07,  avg # of iterations =  1.0

     total cpu time spent up to now is       11.7 secs

     total energy              =     -63.05333893 Ry
     estimated scf accuracy    <       0.00001654 Ry

     iteration #  4     ecut=    30.00 Ry     beta= 0.50
     Davidson diagonalization with overlap
     ethr =  5.17E-08,  avg # of iterations =  2.0

     total cpu time spent up to now is       12.1 secs

     total energy              =     -63.05334069 Ry
     estimated scf accuracy    <       0.00000128 Ry

     iteration #  5     ecut=    30.00 Ry     beta= 0.50
     Davidson diagonalization with overlap
     ethr =  4.01E-09,  avg # of iterations =  1.3

     total cpu time spent up to now is       12.5 secs

     total energy              =     -63.05334057 Ry
     estimated scf accuracy    <       0.00000034 Ry

     iteration #  6     ecut=    30.00 Ry     beta= 0.50
     Davidson diagonalization with overlap
     ethr =  1.05E-09,  avg # of iterations =  3.0

     total cpu time spent up to now is       13.1 secs

     total energy              =     -63.05334063 Ry
     estimated scf accuracy    <       0.00000003 Ry

     iteration #  7     ecut=    30.00 Ry     beta= 0.50
     Davidson diagonalization with overlap
     ethr =  1.04E-10,  avg # of iterations =  3.0

     total cpu time spent up to now is       13.6 secs

     total energy              =     -63.05334064 Ry
     estimated scf accuracy    <       0.00000003 Ry

     iteration #  8     ecut=    30.00 Ry     beta= 0.50
     Davidson diagonalization with overlap
     ethr =  8.97E-11,  avg # of iterations =  1.0

     total cpu time spent up to now is       14.0 secs

     total energy              =     -63.05334062 Ry
     estimated scf accuracy    <       0.00000003 Ry

     iteration #  9     ecut=    30.00 Ry     beta= 0.50
     Davidson diagonalization with overlap
     ethr =  8.97E-11,  avg # of iterations =  1.5

     total cpu time spent up to now is       14.4 secs

     End of self-consistent calculation

          k = 0.1243 0.1243 0.1243 (  3017 PWs)   bands (ev):

    -5.6177  -2.5976  -2.5976  -2.5976  -0.7969  -0.7969  -0.7969   2.6349
     2.6349   2.6349   3.3636   3.3636   3.3636   4.3890   5.7030   5.7030

          k = 0.1243 0.1243 0.3729 (  3012 PWs)   bands (ev):

    -5.0919  -4.0643  -2.4313  -2.4312  -0.8933  -0.8933   1.0631   2.0260
     2.0260   2.7734   3.1003   3.1003   3.3754   3.8288   4.6992   4.7590

          k = 0.1243 0.3729 0.3729 (  3026 PWs)   bands (ev):

    -4.5951  -3.6507  -3.6507  -2.9666  -0.5886   0.1952   0.1952   1.4012
     2.0822   2.7337   2.7337   3.7211   4.1016   4.1016   4.1409   5.2248

          k = 0.3729 0.3729 0.3729 (  3028 PWs)   bands (ev):

    -4.1641  -3.4607  -3.4607  -3.4607  -0.6691  -0.6691  -0.6691   0.1167
     3.7400   3.7400   3.7401   4.4567   4.4567   4.4567   4.9192   4.9192

     highest occupied level (ev):     5.7030

!    total energy              =     -63.05334062 Ry
     estimated scf accuracy    <          1.3E-09 Ry

     The total energy is the sum of the following terms:
     one-electron contribution =      18.28253263 Ry
     hartree contribution      =       4.48396736 Ry
     xc contribution           =     -19.16532254 Ry
     ewald contribution        =     -66.65451807 Ry

     convergence has been achieved in   9 iterations

     Forces acting on atoms (cartesian axes, Ry/au):

     atom    1 type  1   force =     0.00000341    0.00000341   -0.00000341
     atom    2 type  1   force =     0.00000000    0.00000000    0.00000000
     atom    3 type  1   force =     0.00000341   -0.00000341    0.00000341
     atom    4 type  1   force =     0.00000000    0.00000000    0.00000000
     atom    5 type  1   force =    -0.00000341    0.00000341    0.00000341
     atom    6 type  1   force =     0.00000000    0.00000000    0.00000000
     atom    7 type  1   force =    -0.00000341   -0.00000341   -0.00000341
     atom    8 type  1   force =     0.00000000    0.00000000    0.00000000

     Total force =     0.000012     Total SCF correction =     0.000010
     SCF correction compared to forces is large: reduce conv_thr to get better values


     Computing stress (Cartesian axis) and pressure

          total   stress  (Ry/bohr**3)                   (kbar)     P=        0.49
   0.00000332   0.00000000   0.00000000            0.49        0.00        0.00
   0.00000000   0.00000332   0.00000000            0.00        0.49        0.00
   0.00000000   0.00000000   0.00000332            0.00        0.00        0.49

     Energy error            =      2.8E-04 Ry
     Gradient error          =      3.4E-06 Ry/Bohr
     Cell gradient error     =      4.9E-01 kbar

     number of scf cycles    =   3
     number of bfgs steps    =   2

     enthalpy           old  =     -63.0530578498 Ry
     enthalpy           new  =     -63.0533406247 Ry

     CASE: enthalpy          _new < enthalpy          _old

     new trust radius        =       0.0012352492 bohr
     new conv_thr            =       0.0000000100 Ry

     new unit-cell volume =   1107.57986 a.u.^3 (   164.12640 Ang^3 )
     density =      2.27319 g/cm^3

CELL_PARAMETERS (angstrom)
   5.475109586   0.000000000   0.000000000
   0.000000000   5.475109586   0.000000000
   0.000000000   0.000000000   5.475109586

ATOMIC_POSITIONS (angstrom)
Si            4.1063309214        4.1063309214        1.3687786650
Si            0.0000000000        2.7375547932        2.7375547932
Si            4.1063309214        1.3687786650        4.1063309214
Si            0.0000000000        0.0000000000        0.0000000000
Si            1.3687786650        4.1063309214        4.1063309214
Si            2.7375547932        2.7375547932        0.0000000000
Si            1.3687786650        1.3687786650        1.3687786650
Si            2.7375547932        0.0000000000        2.7375547932



     Writing config-only to output data dir ./pwscf.save/
     NEW-OLD atomic charge density approx. for the potential
     extrapolated charge   32.01761, renormalised to   32.00000

     total cpu time spent up to now is       15.2 secs

     Self-consistent Calculation

     iteration #  1     ecut=    30.00 Ry     beta= 0.50
     Davidson diagonalization with overlap
     ethr =  1.00E-06,  avg # of iterations =  1.0

     Threshold (ethr) on eigenvalues was too large:
     Diagonalizing with lowered threshold

     Davidson diagonalization with overlap
     ethr =  1.50E-09,  avg # of iterations =  3.5

     total cpu time spent up to now is       16.1 secs

     total energy              =     -63.05334081 Ry
     estimated scf accuracy    <       0.00000048 Ry

     iteration #  2     ecut=    30.00 Ry     beta= 0.50
     Davidson diagonalization with overlap
     ethr =  1.49E-09,  avg # of iterations =  3.8

     total cpu time spent up to now is       16.7 secs

     total energy              =     -63.05334164 Ry
     estimated scf accuracy    <       0.00000016 Ry

     iteration #  3     ecut=    30.00 Ry     beta= 0.50
     Davidson diagonalization with overlap
     ethr =  4.88E-10,  avg # of iterations =  1.3

     total cpu time spent up to now is       17.1 secs

     total energy              =     -63.05334162 Ry
     estimated scf accuracy    <       0.00000006 Ry

     iteration #  4     ecut=    30.00 Ry     beta= 0.50
     Davidson diagonalization with overlap
     ethr =  2.00E-10,  avg # of iterations =  2.0

     total cpu time spent up to now is       17.6 secs

     End of self-consistent calculation

          k = 0.1243 0.1243 0.1243 (  3017 PWs)   bands (ev):

    -5.6197  -2.6010  -2.6010  -2.6010  -0.8012  -0.8012  -0.8012   2.6312
     2.6312   2.6312   3.3594   3.3594   3.3594   4.3835   5.6976   5.6976

          k = 0.1243 0.1243 0.3728 (  3012 PWs)   bands (ev):

    -5.0941  -4.0670  -2.4349  -2.4349  -0.8975  -0.8975   1.0581   2.0227
     2.0227   2.7682   3.0964   3.0964   3.3712   3.8243   4.6944   4.7538

          k = 0.1243 0.3728 0.3728 (  3026 PWs)   bands (ev):

    -4.5975  -3.6536  -3.6536  -2.9701  -0.5925   0.1910   0.1910   1.3966
     2.0787   2.7298   2.7298   3.7166   4.0970   4.0970   4.1362   5.2196

          k = 0.3728 0.3728 0.3728 (  3028 PWs)   bands (ev):

    -4.1668  -3.4639  -3.4639  -3.4639  -0.6725  -0.6725  -0.6725   0.1130
     3.7353   3.7353   3.7353   4.4519   4.4519   4.4519   4.9141   4.9141

     highest occupied level (ev):     5.6976

!    total energy              =     -63.05334162 Ry
     estimated scf accuracy    <          4.3E-09 Ry

     The total energy is the sum of the following terms:
     one-electron contribution =      18.26596507 Ry
     hartree contribution      =       4.48581847 Ry
     xc contribution           =     -19.16297816 Ry
     ewald contribution        =     -66.64214701 Ry

     convergence has been achieved in   4 iterations

     Forces acting on atoms (cartesian axes, Ry/au):

     atom    1 type  1   force =     0.00000103    0.00000103   -0.00000103
     atom    2 type  1   force =     0.00000000    0.00000000    0.00000000
     atom    3 type  1   force =     0.00000103   -0.00000103    0.00000103
     atom    4 type  1   force =     0.00000000    0.00000000    0.00000000
     atom    5 type  1   force =    -0.00000103    0.00000103    0.00000103
     atom    6 type  1   force =     0.00000000    0.00000000    0.00000000
     atom    7 type  1   force =    -0.00000103   -0.00000103   -0.00000103
     atom    8 type  1   force =     0.00000000    0.00000000    0.00000000

     Total force =     0.000004     Total SCF correction =     0.000005
     SCF correction compared to forces is large: reduce conv_thr to get better values


     Computing stress (Cartesian axis) and pressure

          total   stress  (Ry/bohr**3)                   (kbar)     P=       -0.02
  -0.00000011   0.00000000   0.00000000           -0.02        0.00        0.00
   0.00000000  -0.00000011   0.00000000            0.00       -0.02        0.00
   0.00000000   0.00000000  -0.00000011            0.00        0.00       -0.02

     Energy error            =      1.0E-06 Ry
     Gradient error          =      1.0E-06 Ry/Bohr
     Cell gradient error     =      1.6E-02 kbar

     bfgs converged in   4 scf cycles and   3 bfgs steps
     (criteria: energy <  1.0E-04 Ry, force <  1.0E-04Ry/Bohr, cell <  5.0E-01kbar)

     End of BFGS Geometry Optimization

     Final enthalpy           =     -63.0533416241 Ry

     File ./pwscf.bfgs deleted, as requested
Begin final coordinates
     new unit-cell volume =   1107.57986 a.u.^3 (   164.12640 Ang^3 )
     density =      2.27319 g/cm^3

CELL_PARAMETERS (angstrom)
   5.475109586   0.000000000   0.000000000
   0.000000000   5.475109586   0.000000000
   0.000000000   0.000000000   5.475109586

ATOMIC_POSITIONS (angstrom)
Si            4.1063309214        4.1063309214        1.3687786650
Si            0.0000000000        2.7375547932        2.7375547932
Si            4.1063309214        1.3687786650        4.1063309214
Si            0.0000000000        0.0000000000        0.0000000000
Si            1.3687786650        4.1063309214        4.1063309214
Si            2.7375547932        2.7375547932        0.0000000000
Si            1.3687786650        1.3687786650        1.3687786650
Si            2.7375547932        0.0000000000        2.7375547932
End final coordinates



     Writing config-only to output data dir ./pwscf.save/

     Final scf calculation at the relaxed structure.
     The G-vectors are recalculated for the final unit cell
     Results may differ from those at the preceding step.
 
     Parallelization info
     --------------------
     sticks:   dense  smooth     PW     G-vecs:    dense   smooth      PW
     Min         171     171     48                 4095     4095     630
     Max         173     173     49                 4096     4096     633
     Sum        1033    1033    293                24573    24573    3791
 
     Using Slab Decomposition
 


     bravais-lattice index     =            0
     lattice parameter (alat)  =      10.2871  a.u.
     unit-cell volume          =    1107.5799 (a.u.)^3
     number of atoms/cell      =            8
     number of atomic types    =            1
     number of electrons       =        32.00
     number of Kohn-Sham states=           16
     kinetic-energy cutoff     =      30.0000  Ry
     charge density cutoff     =     120.0000  Ry
     scf convergence threshold =      1.0E-08
     mixing beta               =       0.5000
     number of iterations used =            8  plain     mixing
     press convergence thresh. =      5.0E-01
     Exchange-correlation= PBE
                           (   1   4   3   4   0   0   0)

     GPU acceleration is ACTIVE.

     Message from routine print_cuda_info:
     High GPU oversubscription detected. Are you sure this is what you want?

     celldm(1)=  10.287107  celldm(2)=   0.000000  celldm(3)=   0.000000
     celldm(4)=   0.000000  celldm(5)=   0.000000  celldm(6)=   0.000000

     crystal axes: (cart. coord. in units of alat)
               a(1) = (   1.005769   0.000000   0.000000 )  
               a(2) = (   0.000000   1.005769   0.000000 )  
               a(3) = (   0.000000   0.000000   1.005769 )  

     reciprocal axes: (cart. coord. in units 2 pi/alat)
               b(1) = (  0.994264  0.000000  0.000000 )  
               b(2) = (  0.000000  0.994264  0.000000 )  
               b(3) = (  0.000000  0.000000  0.994264 )  


     PseudoPot. # 1 for Si read from file:
     ./Si_ONCV_PBE-1.0.upf
     MD5 check sum: 2de5a83d12544a9ea852f39b88f19b1f
     Pseudo is Norm-conserving, Zval =  4.0
     Generated using ONCVPSP code by D. R. Hamann
     Using radial grid of  602 points,  4 beta functions with: 
                l(1) =   0
                l(2) =   0
                l(3) =   1
                l(4) =   1

     atomic species   valence    mass     pseudopotential
        Si             4.00    28.08500     Si( 1.00)

     24 Sym. Ops. (no inversion) found



   Cartesian axes

     site n.     atom                  positions (alat units)
         1           Si  tau(   1) = (   0.7543269   0.7543269   0.2514426  )
         2           Si  tau(   2) = (   0.0000000   0.5028847   0.5028847  )
         3           Si  tau(   3) = (   0.7543269   0.2514426   0.7543269  )
         4           Si  tau(   4) = (   0.0000000   0.0000000   0.0000000  )
         5           Si  tau(   5) = (   0.2514426   0.7543269   0.7543269  )
         6           Si  tau(   6) = (   0.5028847   0.5028847   0.0000000  )
         7           Si  tau(   7) = (   0.2514426   0.2514426   0.2514426  )
         8           Si  tau(   8) = (   0.5028847   0.0000000   0.5028847  )

     number of k points=     4
                       cart. coord. in units 2pi/alat
        k(    1) = (   0.1242830   0.1242830   0.1242830), wk =   0.2500000
        k(    2) = (   0.1242830   0.1242830   0.3728489), wk =   0.7500000
        k(    3) = (   0.1242830   0.3728489   0.3728489), wk =   0.7500000
        k(    4) = (   0.3728489   0.3728489   0.3728489), wk =   0.2500000

     Dense  grid:    24573 G-vectors     FFT dimensions: (  40,  40,  40)

     Estimated max dynamical RAM per process >       4.69 MB

     Estimated total dynamical RAM >      28.16 MB

     Initial potential from superposition of free atoms

     starting charge      31.6302, renormalised to      32.0000
     Starting wfcs are random

     total cpu time spent up to now is       18.7 secs

     Self-consistent Calculation

     iteration #  1     ecut=    30.00 Ry     beta= 0.50
     Davidson diagonalization with overlap
     c_bands:  4 eigenvalues not converged
     c_bands:  2 eigenvalues not converged
     c_bands:  2 eigenvalues not converged
     c_bands:  2 eigenvalues not converged
     ethr =  1.00E-06,  avg # of iterations = 20.0

     total cpu time spent up to now is       21.1 secs

     total energy              =     -63.05240443 Ry
     estimated scf accuracy    <       0.20404061 Ry

     iteration #  2     ecut=    30.00 Ry     beta= 0.50
     Davidson diagonalization with overlap
     ethr =  6.38E-04,  avg # of iterations =  1.0

     total cpu time spent up to now is       21.4 secs

     total energy              =     -63.05080009 Ry
     estimated scf accuracy    <       0.03722793 Ry

     iteration #  3     ecut=    30.00 Ry     beta= 0.50
     Davidson diagonalization with overlap
     ethr =  1.16E-04,  avg # of iterations =  2.0

     total cpu time spent up to now is       21.9 secs

     total energy              =     -63.05319033 Ry
     estimated scf accuracy    <       0.00058019 Ry

     iteration #  4     ecut=    30.00 Ry     beta= 0.50
     Davidson diagonalization with overlap
     ethr =  1.81E-06,  avg # of iterations =  4.0

     total cpu time spent up to now is       22.5 secs

     total energy              =     -63.05353077 Ry
     estimated scf accuracy    <       0.00001326 Ry

     iteration #  5     ecut=    30.00 Ry     beta= 0.50
     Davidson diagonalization with overlap
     ethr =  4.15E-08,  avg # of iterations =  6.0

     total cpu time spent up to now is       23.3 secs

     total energy              =     -63.05354887 Ry
     estimated scf accuracy    <       0.00000112 Ry

     iteration #  6     ecut=    30.00 Ry     beta= 0.50
     Davidson diagonalization with overlap
     ethr =  3.50E-09,  avg # of iterations =  4.3

     total cpu time spent up to now is       23.9 secs

     total energy              =     -63.05354930 Ry
     estimated scf accuracy    <       0.00000010 Ry

     iteration #  7     ecut=    30.00 Ry     beta= 0.50
     Davidson diagonalization with overlap
     ethr =  3.27E-10,  avg # of iterations =  2.5

     total cpu time spent up to now is       24.4 secs

     total energy              =     -63.05354931 Ry
     estimated scf accuracy    <       0.00000004 Ry

     iteration #  8     ecut=    30.00 Ry     beta= 0.50
     Davidson diagonalization with overlap
     ethr =  1.19E-10,  avg # of iterations =  3.0

     total cpu time spent up to now is       24.9 secs

     End of self-consistent calculation

          k = 0.1243 0.1243 0.1243 (  3062 PWs)   bands (ev):

    -5.6197  -2.6010  -2.6010  -2.6010  -0.8012  -0.8012  -0.8012   2.6312
     2.6312   2.6312   3.3594   3.3594   3.3594   4.3834   5.6970   5.6970

          k = 0.1243 0.1243 0.3728 (  3056 PWs)   bands (ev):

    -5.0941  -4.0670  -2.4349  -2.4349  -0.8975  -0.8975   1.0581   2.0227
     2.0227   2.7679   3.0964   3.0964   3.3711   3.8243   4.6941   4.7535

          k = 0.1243 0.3728 0.3728 (  3085 PWs)   bands (ev):

    -4.5975  -3.6536  -3.6536  -2.9701  -0.5925   0.1909   0.1909   1.3966
     2.0787   2.7296   2.7296   3.7165   4.0969   4.0969   4.1362   5.2193

          k = 0.3728 0.3728 0.3728 (  3064 PWs)   bands (ev):

    -4.1667  -3.4639  -3.4639  -3.4639  -0.6725  -0.6725  -0.6725   0.1130
     3.7352   3.7352   3.7352   4.4518   4.4518   4.4518   4.9142   4.9142

     highest occupied level (ev):     5.6970

!    total energy              =     -63.05354932 Ry
     estimated scf accuracy    <          5.8E-09 Ry

     The total energy is the sum of the following terms:
     one-electron contribution =      18.26566736 Ry
     hartree contribution      =       4.48589296 Ry
     xc contribution           =     -19.16296262 Ry
     ewald contribution        =     -66.64214701 Ry

     convergence has been achieved in   8 iterations

     Forces acting on atoms (cartesian axes, Ry/au):

     atom    1 type  1   force =     0.00000151    0.00000151   -0.00000151
     atom    2 type  1   force =     0.00000000    0.00000000    0.00000000
     atom    3 type  1   force =     0.00000151   -0.00000151    0.00000151
     atom    4 type  1   force =     0.00000000    0.00000000    0.00000000
     atom    5 type  1   force =    -0.00000151    0.00000151    0.00000151
     atom    6 type  1   force =     0.00000000    0.00000000    0.00000000
     atom    7 type  1   force =    -0.00000151   -0.00000151   -0.00000151
     atom    8 type  1   force =     0.00000000    0.00000000    0.00000000

     Total force =     0.000005     Total SCF correction =     0.000019
     SCF correction compared to forces is large: reduce conv_thr to get better values


     Computing stress (Cartesian axis) and pressure

          total   stress  (Ry/bohr**3)                   (kbar)     P=       -0.04
  -0.00000027   0.00000000   0.00000000           -0.04        0.00        0.00
   0.00000000  -0.00000027   0.00000000            0.00       -0.04        0.00
   0.00000000   0.00000000  -0.00000027            0.00        0.00       -0.04

 
     init_run     :      1.51s CPU      2.07s WALL (       2 calls)
     electrons    :     18.23s CPU     19.37s WALL (       5 calls)
     update_pot   :      0.78s CPU      1.05s WALL (       3 calls)
     forces       :      0.49s CPU      0.60s WALL (       5 calls)
     stress       :      1.60s CPU      1.72s WALL (       5 calls)

     Called by init_run:
     wfcinit      :      0.75s CPU      1.09s WALL (       2 calls)
                                        1.09s GPU  (       2 calls)
     potinit      :      0.49s CPU      0.67s WALL (       2 calls)
     hinit0       :      0.20s CPU      0.22s WALL (       2 calls)

     Called by electrons:
     c_bands      :     14.76s CPU     15.11s WALL (      33 calls)
     sum_band     :      0.94s CPU      0.98s WALL (      33 calls)
     v_of_rho     :      2.89s CPU      3.79s WALL (      36 calls)
     mix_rho      :      0.02s CPU      0.03s WALL (      33 calls)

     Called by c_bands:
     init_us_2    :      0.16s CPU      0.17s WALL (     312 calls)
     init_us_2:gp :      0.11s CPU      0.12s WALL (     312 calls)
     cegterg      :     13.24s CPU     13.36s WALL (     132 calls)

     Called by *egterg:
     cdiaghg      :      0.79s CPU      0.86s WALL (     566 calls)
                                        0.68s GPU  (     566 calls)
     h_psi        :      7.16s CPU      7.85s WALL (     594 calls)
                                        7.55s GPU  (     594 calls)
     g_psi        :      0.00s CPU      0.28s WALL (     454 calls)
                                        0.00s GPU  (     454 calls)

     Called by h_psi:
     h_psi:calbec :      1.59s CPU      2.19s WALL (     594 calls)
                                        1.87s GPU  (     594 calls)
     vloc_psi     :      3.46s CPU      4.03s WALL (     594 calls)
                                        3.72s GPU  (     594 calls)
     add_vuspsi   :      0.48s CPU      0.94s WALL (     594 calls)
                                        0.50s GPU  (     594 calls)

     General routines
     calbec       :      1.42s CPU      1.71s WALL (     694 calls)
     fft          :      0.71s CPU      0.94s WALL (     400 calls)
                                        0.67s GPU  (     272 calls)
     ffts         :      0.04s CPU      0.04s WALL (      33 calls)
     fftw         :      2.73s CPU      3.97s WALL (    1320 calls)
                                        2.72s GPU  (    1320 calls)
 
     Parallel routines
 
     PWSCF        :     22.79s CPU     25.47s WALL

 
   This run was terminated on:  21:40:31   8Jul2023            

=------------------------------------------------------------------------------=
   JOB DONE.
=------------------------------------------------------------------------------=
