-6824.942660041258
-6824.660357580198
-6822.022978690376
-6823.6720852890985
-6822.927940336519
-6823.742952032157
-6824.193219345208
-6823.657765842567
-6821.2991229537765
-6823.816508756567
-6824.552977921985
-6821.912160329583
-6820.349562121592
-6822.015133920521
-6822.1978487031365
-6823.284910154621
-6822.7197675355565
-6823.964605080571
-6822.623303043697
-6821.456081617336
-6821.508625166898
-6821.366925831069
-6822.094716333774
-6822.6894585438085
-6820.881804272765
-6822.407155810635
-6820.569535955509
-6821.957776405039
-6821.890727283081
-6823.202219521046
-6824.4149620551325
-6824.3670430802595
-6824.6923222485975
-6823.123883253116
-6821.508672106535
-6823.534430381253
-6821.352202839714
-6823.365532859079
-6820.781653454733
-6821.60779379003
-6821.8900942102355
-6823.5948482250205
-6820.668950433494
-6821.701307479424
-6822.355224789325
-6821.608921974005
-6821.045646736158
-6823.836805727792
-6824.07768089777
-6822.67031751217
-6821.249662726121
-6824.275678682019
-6823.017498987325
-6821.563967271233
-6823.093478885467
-6822.248567321239
-6822.728647698567
-6820.181271685392
-6821.812041212812
-6822.097307537802
-6823.956141387791
-6821.836259072339
-6823.120322643537
-6822.124070069891
-6823.430567114119
