-0.29703080647261104 -0.49714927859718894 -0.08122783373324075 0.5370363446001137 -0.14419029349839038 0.6597430143034315 0.3764668384127516 0.17793088028394516 0.38820186746149277 0.4421546675288643 -0.8178645731709333 0.3834011036387397 -1.6986941772101776 -0.45462966006742356 1.860951612622924 0.8423800418137944 -1.839439192472445 -0.2848196091183998 0.3183527078788388 0.39227346642770505 0.8123822099001234 0.5273885370977046 0.3039028510020959 -0.11180442096851712 -0.7148188722316527 0.8043236012617051 -0.09764072787362539 0.9022450936005428 0.33038958443871486 -0.3196524005268689 1.367779059285296 1.4267223705887235 -0.823696349361362 -0.5410974020433649 0.015815626876017924 -0.3491316409329084 0.3952713727137644 -0.2178914798372828 -0.11879165091962769 -0.3914211457297388 0.622282041243496 -0.4787496930440787 0.2510697663614644 0.36794054610929533 -0.6051163280974869 1.1435130433802372 -0.0809306142077961 0.37577161211793997 -0.727639678145405 -0.73780710559671 -0.5027879649402051 0.39446893141712713 -0.7095082586520167 0.06547082800930014 -0.6514167538259232 -0.8172575357145537 0.01974581516835954 0.0757531837719147 0.2861583825344814 0.8267767880588986 -0.3934469179105159 0.03675777634532379 -0.023485741826766004 -0.8571122058176465 1.1746951254099962 0.020698151779299838 -0.4977007802252848 0.6024742624889495 0.8229957237499116 0.17992502789583853 -0.5640565819426996 -0.9395438300510014 -0.07229196469619162 0.08777129127871336 1.1713969142746987 -0.7446781216849304 -0.5990642083661359 -0.9855539782325283 0.4480172969572284 0.6497823035462938 -0.13518346201408976 -1.6691262337450739 -1.1767108702884443 0.33994020424162746 0.10455133895052962 0.5313498357382979 0.6488909020802761 -0.0326758929664663 0.7014427080350628 -0.807378843148261 -0.8072510593211453 -1.7158298084491999 0.46517683945565047 1.4579525322475988 1.3742839502833493 0.8494765436492596 -0.07959569744645646 -0.7882305523545844 -0.6195774978281394 0.8412430999958739 0.37908293587936004 0.635818385167034 -0.15889546091904894 0.039351505214429004 0.47763717670619027 -0.5129775038786972 -0.20110140486313752 0.012340523843223908 1.67156981018956 2.088795318576912 -1.281598252422154 0.7542094582141333 -0.04033495217362086 0.9804158856750147 -0.27912692960899665 0.3700941021171884 -0.7055374469297269 0.08069458693759006 -0.28506026437429616 0.0004563708111282463 -0.22847131223565814 -0.8331988895351586 -0.15097183519659807 0.5475094762172958 -0.37934467418117895 -0.3862018063123284 0.16600816070443025 0.07841298999226497 -0.6918038993937182 -0.8572826699572397 -0.2771278969010969 -0.10415821727716901 -1.3895658161430844 0.06499877346888806 -0.5042946313927186 0.1452848121141498 0.2712830080845457 0.5491989481045768 -0.11989028330044513 -0.5216246380307339 0.49625170648358413 0.2781892482860757 -0.718048434912544 -0.28816847098597465 -1.3114533881103736 -1.051777882357769 1.280296245781279 -0.820924700153496 0.12214874031731868 -0.08631347578626425 -0.6845251063441179 0.31183496136497907 0.5070698801450106 0.16895284515505096 0.36310275840101985 -0.7005667331880129 0.6249526460971238 0.12593777504610568 -0.11323086900239855 -0.011192269171393628 -0.5833853641782986 -0.44664664186194697 0.7934126107761561 -0.18726372764909685 -0.5857800896627202 0.027145707176856472 -0.07096476124433584 -0.7305825628238127 -0.005115209739378288 -0.0025459063503052927 0.3157348106400175 -0.38481315349491796 0.32097189066924076 -0.2822883580561138 0.8871522038231624 -0.03939392841659022 0.04441400733900093 0.9239770859609959 0.45616023777933695 0.13406734613177557 -0.6015496937921511 1.8373362871968295 0.17981498468053547 0.22790849775365268 -0.09801148094948281 0.29135355358217563 -0.6803236666682605 -0.43851269990090286 -0.7685341023669217 0.3195685825638109 0.1724490312337675 -0.5050711045474269
0.4273391997825866 -0.0456008285582505 0.565091193854801 0.5460814855215177 1.5887021268600512 -0.09640145614988559 0.9197759033954547 -0.2762177263820017 -0.40780421507345255 0.32121280303545324 0.48642417887020095 -0.622791891000379 0.9228655980643719 0.9208606518192012 -0.4693268570682821 -0.13613862683850744 0.1483120289762478 -0.6480974596447032 -0.3655237091376866 -0.41790093718782223 -0.24184773354256414 0.5942865844718346 -1.0588368460870796 0.03855986255106908 -1.1666894814967004 0.1529148178555818 0.20178866073814924 0.07817721983237505 -0.7244024021550298 -0.1370218007744092 0.32916599644425887 -0.4877927770829534 0.1609780544796905 -0.765985882023771 0.07948102624546312 0.22732331467414402 0.2224122505257718 0.4165811899351342 1.77465870566195 1.158601048061611 -0.7623955935693515 -0.1498606044102903 -0.3406727115322778 0.3349414654754554 -0.803979587658725 -0.03159191587366817 -1.323790826629804 0.5563738685864611 0.6908150531178876 -0.6292109071528454 0.7466686697523979 0.23537909509908492 0.9445109442482894 0.5611975152273496 -0.12779513996981862 -0.3207669737472863 -0.40315720321974446 0.08078226155538991 1.0408684345341173 -0.8453787194308021 1.14525419444106 0.497339283120808 0.8237146041938072 0.279703370937757 0.8920956638713669 0.4602287514217558 -0.039863668964157155 0.851130791423231 -0.3599531570284446 -0.1777863842862809 -0.21516251094189393 -0.6351193022174804 -0.1074523146474085 0.3493409287302371 -0.4817979929520993 2.326005296237149 -0.8710041333083902 1.4497967359096837 1.0838778482161076 0.06303393643303339 -0.23473194843338926 -0.08601445648860671 0.06508773363826854 0.5579185873657617 -0.072148754250108 -0.40889539125510227 0.5276322776773945 -0.9063053797128455 -0.3569071711132692 0.2080230716836353 -0.46105099021273505 -0.5695875390632578 0.5518888362319141 -0.3474647947534467 -0.5624596697692248 -0.12099277233600453 0.16306296203317724 0.13783555492495617 0.28117095662221897 -0.09024135008576072 0.4200912599709217 0.4538236192263603 0.28976666871103 0.6045090335307912 0.26813906313892527 1.0796023607692053 0.45210766497651816 0.11186638455470413 0.4659484275143524 -0.4742320076793833 0.19278774279111957 0.8406170363761007 1.4155398716093428 -0.7860510282047624 0.08147208853356291 1.2136488809653743 0.848587456176087 0.2426568597074208 -0.2699910287459995 0.6360017048224337 0.04767082371340177 -0.22044149995264614 0.34988831659327485 -1.0528873133718641 -0.6788522243290567 -0.8496953445282851 0.5306911191083763 0.13593062459275945 -0.15943179303849317 -0.30165724950102885 -0.40914067449668895 0.20716638011029484 -1.5674735564985778 -0.3155095820030889 -0.25654081677836466 0.6897732421169346 -0.4987477334325604 -1.217483424220116 -1.098292480979541 0.2325267132519544 -0.4671149370186278 -0.7546817698648616 -0.18053875022043747 1.029099209813331 0.020988943546841273 0.3845678702533312 -0.3214012648971755 0.022366797730974382 -0.5810405180952057 -0.03755841786974822 0.010782435327484656 -0.3094006408918736 -0.661569525989209 0.008723238805610784 -1.3275191833239848 0.9828921151296491 -0.1723238185098129 0.4756736252219163 -0.12792420934851517 0.14248899453656752 -0.029548145970762017 -0.9868554706527713 -0.5895608968613911 -0.7505654337036428 -0.38983168975543186 -0.03986289763320877 -0.7712990667065684 0.34784686068321385 -0.08067324678135138 0.5021616442101159 -0.6484643560658188 -0.9471465820989237 0.5162389482387884 -0.41482461225534367 -0.248841648361894 -0.016608555090958495 0.8961806325740178 -0.12290670152926575 -0.06388214336594158 -0.25745998615852433 -0.5403857206883209 0.05676790091866352 -1.074071403648647 -0.8842823384745351 0.21710806470403896 0.13129775380643838 -2.516755953993582 1.012905630772604 -1.2173942069404193 0.14211052815122624 -0.6809888110560852 0.383343768038243
0.43906625841152763 -0.6714577316371985 0.8506181134528705 -0.5576918160669363 0.9403460142373223 -0.4607123759263937 0.039861612081628126 0.8465092334908194 -0.584703825879406 0.3141294138261106 -0.21972467639127966 -0.13587868830890146 -0.37155320316121815 0.4534320402148965 -1.4995308699100176 0.7948465150092053 1.0913754421447333 -1.5656231335534003 -0.488595732600223 1.7375309475717176 1.058887239709041 -0.09424198660472156 0.888149020518793 0.17981549890116774 -0.4842402838450048 -0.19563395399066305 -0.12619565669318267 0.6822378529718379 0.19714807664234435 -0.27761383539858 0.3281853776985445 -0.2642723810946675 0.10028716435753696 -0.34773553191633017 0.7067317243481441 2.1774055608171534 -0.6583219655861888 2.568403760076861 0.6842106604274926 -0.5258381618914493 -1.6440788038581429 -1.2377462882342105 0.06185739962642896 0.12013248121823826 0.3592579307336329 0.4238584403228377 -0.6072606281339994 -0.2986266902048212 -0.22633806794273922 -0.47706767735596545 0.49815406571261944 -0.6924209641524268 -0.40547171028553397 1.2268165286955839 0.1335037603188217 -0.24850097719302364 -0.3412656079212703 0.6478238942683424 -0.5396483283016642 0.8924612747409016 0.13457591033707791 -0.2467955644661427 0.11698416539724368 -0.10068002892058146 0.9500197898816606 -0.15452972775118548 0.231058356236544 -1.5956793295088327 -0.1223703694098215 -0.550241273326162 0.11526564004424021 0.04759420483919545 0.4140982756122804 -0.44396986636073216 -0.6830228107669785 0.16049982929169132 -1.6415187564404503 0.6353365604346091 -0.2239366575900982 -1.2407022855387406 -0.17468511965313788 -0.5203298304787103 0.16767372133231123 0.49837492347417395 0.08681047002734081 0.048080657557310745 -0.6690254680466221 0.21640872464416921 0.6259402068213736 -0.9672369250908955 0.038820058190991207 0.5428753198793941 -0.8362214784115662 -0.06598581997250572 -0.07896294895846401 -0.3745565087639162 0.5669573005292623 -1.4012813048077997 -1.2181146300462118 0.02750360473690747 -0.45786307940305665 0.6890337928477488 0.06638074141807923 -0.20743248928748792 -0.24692437673452317 -0.011556851599663968 -1.3214657780410533 -1.1504894746980703 -0.8528531734309763 0.19584195623641112 -0.33535515597410626 0.44906604993671695 0.9364225108132003 -0.03573010641175782 1.5989559433775753 0.3737368410760983 -0.1320112349336952 0.6675586536931084 -0.7667096475636732 -0.8488476518160092 -0.2365260642193346 0.18403596474041856 0.0847103929652025 -0.9601514789990238 1.7540934799160888 -0.4071904927488536 0.18066524849597274 -0.13854955027284524 -0.5604668077089122 0.4974380134822014 0.7886928367029837 0.14393395451321017 -0.6419363251393138 -0.11522913037934993 0.9249751882082069 -0.29101571062678266 -0.29747997819488764 -0.40768800121056237 -0.626692768716682 0.17825072551720914 0.7188130809927104 0.400801044282742 1.4700711698880036 -0.2825565241158359 1.5144324696121982 -0.6579558404960217 0.3475426991792337 -0.6345174069674233 0.4111795593035887 -0.3149511383964576 0.22671422033523536 -1.283871364727047 -0.010110348961124524 0.5790656537570221 -1.1108890866976286 0.5033870319767847 -1.8629943540845655 2.4713914098158534 1.4021539372207399 0.33772417042691516 0.08800140501164844 -0.04553295143479255 1.0925234397062475 -0.36471355453156545 0.7416244224602712 -1.3223633501546581 1.1293604060289388 -0.08551540536500112 2.0020984913093005 0.875402519486402 0.06418579064928945 -0.2392180092292009 -0.05603667917959382 -0.20845373146315066 -0.18963017099874438 -0.027422100766694713 0.35086687845646025 -0.022673273227799662 0.3871649415565461 0.179630122363239 -0.8326160204484951 -0.6610319083181841 0.49688908295726686 0.26027148746539047 -0.4022575742236104 0.9020877420870722 -0.28308437159484795 -0.8898189520220481 1.1912795121312387 -0.6998180279474464 -2.5625069349764513 -1.2678351371997905
0.9873681486231318 -0.5386579393639368 -0.6434990416407433 0.170506562795416 -0.1325043725200299 0.32164706235939444 0.026659254458741184 0.299896043835548 -0.24519222453476483 0.08023281680982312 -0.01253335658032035 0.9480166434087027 -0.22238114017752025 0.30219409584110535 -0.762252640233584 0.7501828535532434 1.4892384868450739 -0.45322480930009684 -0.13938927256532124 -0.6472453960570531 -0.8356414375383802 0.17313525866751472 0.92132627860171 -0.5775720999306311 1.3632513466182714 0.44836465299431816 0.027526744665359044 -0.37362242698542103 -0.2462731163037694 0.6097957358510272 -0.3710011873124901 -0.5745312562217784 -0.013408817206738198 -0.8024420679682761 -0.130095248857905 -1.3962563407893827 -0.4278871018662566 -0.25990433393395884 0.5089452427908525 -1.160036752066873 -0.3348939000669716 0.8263422716246414 -0.416334878252283 -0.43112154964315424 0.17418298320573875 -1.0854439071516468 -1.171021533213151 0.6023994433869562 0.17514714689122096 0.06377621391569661 0.40477442710819317 0.678264984367019 -0.4253820760562158 -0.6258242500687996 -0.9273948533932931 0.6537320322226613 0.05238237025645817 0.28690168845840913 0.5607362593202149 0.057895072544571255 -1.9565729960736755 0.5331403519798172 -0.8215767319151979 0.16311438409640294 0.11007149743781043 0.04069696349872991 0.7791216480747807 -0.41777315336070625 0.5939312580149448 0.5488508207365386 0.37255413362190676 0.2463893301666595 0.400029199113724 -0.22167202992563756 -0.457580000944999 -0.7828361208118905 0.42120377630881006 0.4692178422942435 0.2946239968033313 1.292340835650639 -0.10330769635141562 0.1837451729728771 0.40347190624668583 0.3093150231566028 1.271122806812127 0.33340008913026453 1.370492344451401 0.23281107726159259 -0.1624505252601589 -0.17541531295094306 -0.7904399013010774 -0.5612862182864139 -0.6360739528212658 0.13783915446938197 1.0222443916750266 1.4657563445627335 -0.6132839515099437 -0.9661763450368649 -0.1784301885178669 0.447856603009648 -0.022809798805663944 0.3678734403167858 -0.4203290870133406 0.08677138925928927 0.1559518049096927 0.6904525275721463 -0.27243357674922114 -0.11383687801751362 0.4267905263679682 0.3886165864014081 -0.41335676946056554 1.9113478056872892 0.37283875474186107 -1.2732889612255103 0.015938268496811264 -0.13111109171692906 0.2479577030950439 -0.8413719122642542 0.027469923285494628 0.7886558128174611 -1.105912973639276 0.865261060177026 -0.20528150438275614 0.989683941240502 0.0007433059239277521 -0.06434237083181177 -0.5898169787362552 -1.548351490957146 -1.0211385602053575 0.2476643402243412 0.5815943337161467 -0.061051615895681956 0.3998566780916017 -0.7050548508663534 -0.567838417582635 0.823212467746408 0.7217927324463247 -0.05347431776905629 0.14566070739632977 -0.6155814892948689 -0.5281814653126452 -0.3294431613650455 0.5099811402545346 0.8312793039149424 -0.2945607476655636 -0.20740934935903632 -0.6749420906413731 -0.23924629136397507 -1.0590337925892341 -1.4741265709043 -0.15844423231424323 -0.8490533400689119 1.3579121937935452 0.007328158230297056 -0.26062038616437694 -0.24097792934310114 -1.2385991231528088 1.780476855005624 0.9179586476810577 -0.27568036582129296 0.11824040640184796 -0.30344725152191615 -0.42127551008700986 0.22333116279561538 -0.8424085810588846 -0.41957035447044516 -0.30995059985807266 1.200312311757468 0.4498870031761155 0.5504832141336391 -0.07043408555184645 -0.6442552030804776 -0.1661104906102494 0.1786353625501375 -0.07988443233146887 0.49123008489927655 0.4464196134528054 0.8305424257489179 -0.002629981423679341 -0.19199121503175323 0.24605894341043424 -0.4518819221189572 -0.037802929780386504 -0.02320369180997294 -0.9616656016507051 -0.01783240019573058 0.5181328228273915 -1.1814257592656106 0.8872887294010268 0.2973390817416492 0.03212336289710596 -0.32894256757954315
-0.012337438519430364 -0.516892008441755 1.4211181370280688 -0.0015359770285521936 -0.31483106787882553 0.008187420906798804 0.10049105283822693 -0.022929097992347606 -0.4509915490942039 0.2209356659802453 0.29265633155399917 0.03295614321104647 0.013859788701227742 -0.6894505686701933 -0.34665309748542883 0.24251262082007266 -0.324797435062918 -0.29261339413120574 0.12954580411233818 0.8124963668804844 0.03787852021332831 -0.33477562932155247 0.14006470136579102 -0.6939764815650048 0.12308462186802673 -0.5328711574788306 0.6240206212011576 -0.07920823220005067 -0.28796072585054283 0.48410967180441145 0.16582381260776602 -0.5333802359047652 -0.7196376337765348 0.1168844065945858 -0.012103468131753347 -0.8430199893906385 0.16033245047589162 -0.051538534198924145 0.06241095813705381 0.6486618167886055 -0.34569124779279176 -0.16611331882372685 0.15011128696851567 0.013920980956466348 -0.06269300815384687 -0.6697479480349434 -0.2479268498571085 -0.2518670654517791 0.1446500067436283 1.4024514138565007 -1.5143355390230178 -0.2093559315624459 0.2758662565798539 -0.7560719653441689 -0.3177484986359366 0.8389118807595359 -0.2721924072726925 -0.1600149192354728 0.6815907063061423 -0.05550857459026569 0.2972421511524687 -0.5253887330588565 0.36434742944139836 -0.6670331202069416 0.05168123042437551 0.0551067111661567 0.9089911540751249 -0.46762247278266567 0.051382725347350215 -1.034403909855696 -0.9074145536166244 0.1454483342752076 -0.22281694216335823 0.32080142652964755 0.4631207282575701 -0.651946143966832 -0.2059026829065228 0.08986571191389685 -0.6083911421940167 -0.8040639198424152 0.7683716086471283 0.2159451547441894 1.0787019604421229 -0.38187643946409716 0.24354337607743218 0.5557166946184365 0.32502163525858213 -0.25392034843638206 -0.5245181575284451 -0.9474026639737879 0.21641206707827892 -0.29812172554394467 0.4562132025044594 0.8966452309152623 0.3331589196537359 -0.3101858557973303 -0.38486817510256943 -0.14808320079489334 0.7518360728859503 -0.1275061479744901 0.776179020506689 0.3700622204379885 0.3531675015651789 0.6929704088979937 0.7601584767087165 0.6033224694218577 -0.6227535815632759 0.3150105308794833 -0.5669529296538882 -0.7627429496064412 -0.2715000091913582 -0.10946728819490825 0.4364930983677128 0.2497127381129377 -0.5725643623033946 0.26694529994114025 0.4965561250978803 -2.130556204563782 -0.22753208825084037 0.17721765626700448 0.27414824544748273 0.08569795368945242 0.09333053053404572 -0.634130970162282 0.19717455900490558 0.2222289308703721 0.49252540667193245 0.7318902258916429 0.04349149552473155 1.0924216240210607 0.11128865767436318 0.22314295804420925 -1.0233255405543473 -0.033099096546813964 -0.15579111096211232 0.004733400919927332 -0.19394191100022085 -0.37473160088919977 -0.041030949799380954 -0.10260372830585555 0.29941550465470373 0.08829888164740922 -0.8358065023613348 -0.5514651184309342 0.1674045268313246 -0.09672721492042051 -0.8167772536440255 0.08633558727345131 0.9127097405772926 -0.15608318828123444 0.21192523495151888 0.38954475464263233 -0.5704012932138047 0.15642154545725964 0.3100195054227951 0.8482622116261842 -0.06546748557519048 0.5303805298464931 0.007289591682877769 0.2126518287048983 -0.26541369378796226 -0.47057075677771215 -0.6000926496306503 -0.08202281883071035 0.824826092090431 -0.20426077642772564 -0.29040893028071924 0.03610857279709911 0.18415629236836673 -0.5228950201027253 0.15335139117236815 0.4801820546152311 -0.7576663064144823 1.0111413397833295 0.4198976559028768 0.4403528384334352 -0.17220529065407764 1.71932907985171 0.6963629795193105 -0.17920589034162684 -0.32815169624713164 -0.16566517554271468 -0.15937214344515133 -0.05218568086461981 -0.591168093447511 -0.1430788056017665 0.4563245312713431 0.13779416016405946 0.18825154548366288 0.06487921717188827 -0.2018871339892265 -0.3746323563071742
-0.14427976788840313 0.6164366382063126 -0.810233796098553 1.1441843584156488 -0.09596642549499602 0.23296817166474715 0.22723152629128604 -0.1962654169270749 0.6121961177624038 1.5979483280486675 -0.7208195698997779 -0.3213889236020014 0.2567261933162933 0.34436378723061983 0.005772897928035219 -0.29640140041872826 -0.39824099686504966 0.06288147001556912 -0.18956666475066064 0.911466869309127 -0.5734652768511093 -0.4635431605069694 -0.08289570835396691 0.37780252650503965 0.28765450746403365 0.022397136748277556 -0.2048834976133891 -0.5055763263186196 0.42226821301758244 0.7323993043175774 -0.4721815529082578 -0.6254833217896131 0.7397596013373905 -0.03488755590580443 -0.1298823615161505 0.6858075726009673 0.6340486948611209 -0.10235638818173985 1.7265947602751877 0.4480602343800219 -0.24814127986075976 1.3398995592662086 0.044000831060982286 -0.33038675622523744 -0.4102624468059579 -0.23561435103834263 -0.3831671332510627 0.5668205178410819 0.12196336377938995 -0.47869338588484656 0.2961581740596706 -0.5747613699547134 -0.2835248015663762 -0.4778729468660802 0.7849472536176223 0.23929719920656856 -0.6575249236061902 -0.03789471816324441 0.46597336721501686 -0.6615551278115058 0.7548015832721774 0.6370211472258834 -0.6799516280408225 -0.2812578599090705 2.298154849683784 1.6331027644626133 0.7519564005138984 0.918785000237095 0.8127673611536841 -0.16746906152067287 -0.6302735440894048 0.20367122247284275 0.2819281465032177 -0.1094130379182051 0.2959200899069355 -0.6520561871821351 -0.8124189766753298 -0.644866097191599 -3.0943396238884384 -0.0680694419744118 0.09376504696830303 -0.3511851810278274 0.19825056567790372 -0.04257746835089441 0.8709349706333516 0.820038955114433 -0.3026011014715369 -0.6549023983816785 -0.05154907572188542 -1.5810592656028126 0.14528275523162076 -0.8757298209188338 -1.3445339727144265 0.37867181648387044 1.293340737670063 0.42366920713016715 -0.4380416738017553 -0.5324955193069668 -0.366152343860621 -0.3888132757932465 -1.1897350504622544 -0.6427511077311253 0.31502441483655425 0.6035500120516315 -1.3405868151412201 0.8482388145874165 0.6388543437798805 0.44549375920442635 1.014493029864382 2.9267726033373207 -0.3530870260362306 0.5037762969954034 0.9619833900014402 1.0467634598623135 -0.025652667571097756 0.09152330212197786 1.0035226468958074 0.6209021301768338 -0.21185684360742868 0.5134493013087932 -0.19298520351390636 0.07882719471154812 0.8439455865287014 -0.5079476547642735 0.18988445310139554 -0.701362746726747 -0.5947928346842918 0.30829326676030777 -0.4356364067943723 0.05791435581828091 0.043310489862177025 -0.34572544346483686 1.7501627774031152 -0.7301837847234973 -1.868488801540234 -0.4676744090665236 0.9104883074459416 0.35981688856089644 -0.8398413345523408 -0.18602625569756995 -0.23898763838594975 -0.6489775482568113 -0.5345619149176923 -1.9966528948136963 0.36988661409207263 -0.08399614050699727 -0.717722419031693 0.1779409075862742 0.29942296085387143 -0.14801815188491282 -0.7720642270073671 0.422999177646336 -0.45511431301332583 0.6726815767419705 -0.5489971165064158 0.2267270758510418 0.14267642795702523 0.20709310367019818 0.22964244972562384 -0.8755950951131823 -1.2129510835674016 0.910641030973722 -0.12042635830957324 -0.9881613339483885 -0.13653869049040357 -0.1908355041607552 0.8007914197387305 0.03278619329208547 -0.6284370051012983 -0.6014080260079642 -0.15523266735548105 0.7974482142981105 -0.544229005693811 0.532036063172045 0.4458022915837806 -0.21061962876621793 0.3383111532786367 -1.2465271197506338 -2.118560208544171 0.19077122658172305 -0.5735218411206574 -0.38855976502154377 1.0816479304443243 -0.02002683674388809 -0.08956437862339414 0.14143972733644675 -0.06422615696892164 0.5594013425588752 -0.18843460802874645 0.3050148531193521 -1.4358071064988112 0.0643182024620957
-0.4121887172943933 0.36414276962976 -0.47386048327257746 -0.26014010409384875 -0.5078949471494673 0.3106013460681941 -0.5435826303590638 0.9436717361764457 -0.4834938925972834 0.5356242947439356 -0.15843446212223036 0.13616819452486226 0.3025090559783629 -0.8377057762665766 -0.3259557170370773 1.009433355953287 -1.6485535518000447 -1.3701475595174726 -0.8461490219379234 -0.1514857987185391 -0.6535433132506228 -0.6796374392345134 -0.8566563492271505 0.21956706776749282 -0.1296059679263123 0.14406148123000995 -0.20213498833397447 -0.5517299420565466 -0.1176973894141844 -0.5030880126791272 -1.1174852518579075 0.7778841761232539 -0.6438836786736718 -0.6090737700833381 0.22633215440546828 -0.0019260133781192636 0.5926364504629212 1.3764999840980616 2.2898620135473724 -0.30292120381511706 0.25260882871381013 0.252618598905823 0.2097004593860582 -0.8623688262308954 0.6921355717015242 0.7767140670745526 -0.6295670049406835 0.319896655327191 -0.7505137545301009 -0.2944216509845381 -0.8707768477889327 1.2388762880735953 2.0733381034815777 0.2002935642498615 0.5569883622420084 -0.6042290403965271 -0.6151377168892309 0.6191566082406369 0.04901319667390914 0.2524039117918556 0.11482906672745387 -0.45697990546715495 0.017549064627356874 -0.399021583784816 -0.35485234546676947 -0.3892305658363232 -0.10485807155767102 -0.19317855047163504 0.49391663059250424 0.8250266381370114 0.5881236501942323 0.15783359531343785 -0.7569355988960447 0.5804759038409874 0.5976009935570482 0.4880694277831078 0.7580550572124686 -0.5111360797945842 -1.7181787682973506 0.34321476122784117 -2.8072523017817845 -0.4455127853678198 0.6140547682376973 0.9311520064428802 0.8016172580741355 1.1901551687188083 1.610252085116685 0.3851587097597947 -1.3505269570730678 0.8756786559659242 -0.8960456496580503 1.1244069186784056 1.792785240059332 0.756723997105871 -0.21392683876257995 0.978760866570095 0.328218544929325 -0.8831592806136854 -0.19239282134554606 0.21644677697095624 0.07186619001268268 -0.7085235261412443 -0.19392288483682732 -0.007989960184012046 -0.8663468370420371 -0.19953328904506928 0.04473616656511005 0.43758067500493664 0.41248285149604447 0.052770349723496215 0.9719322736840358 -0.47431608275275733 0.3602107815652055 -0.059437220220710546 0.8552550980042497 -0.9218245583943673 -0.06702608831156198 1.882615727859919 -1.0829766765580768 0.8872848727462848 -0.45460214926359765 0.5205956825455873 -0.7785549769380334 0.2184828335643786 -0.0070170547477814635 0.19478651838870326 -0.447846575707319 2.035205301165598 -0.5279562366757166 0.7059840475488421 -0.829440708044307 -1.655834144621858 -0.23243029688340616 -0.47663341803202425 -0.26696921120054024 0.7198728897157924 0.9539916300452149 0.03995185780258926 -0.7275710296909985 -0.07604526109103676 0.2596842475033528 -0.3813840732087109 -0.7136017119951 0.766777267576815 -0.6571174037551263 0.22215025511363676 0.20876740604882757 0.8464331288372455 -0.22985893661180412 0.5317776673043358 1.0470509091957452 0.07781160896284017 -0.5438775358916633 -1.3525979806694832 0.22462545612700666 0.4113945035278721 0.5020469730091225 -0.5355427907737228 0.07244314556207523 -0.5012812984876914 -0.686462689686463 -0.2755394693680545 0.6373775021240378 -0.01820418171285252 -0.6622518967682143 0.05001824089965579 -0.7005921871093096 -1.7049499283119023 -0.39503894498798414 -0.3292189611693814 -0.17386133820026184 -0.09284716313972396 -0.20803849830260301 0.058320590117764075 -0.04500047597009024 0.3547407595895697 0.1611091807409161 0.23908688296797537 -0.16515172624140592 0.05931252171738817 -0.07152963260887035 -0.3082521291097272 0.7922170478061583 -1.0990242169392426 2.209975010112742 0.23037110036153227 0.38659029999999867 -0.6466211322094929 0.9959327503636912 -0.41140350238893664 -0.46960685020254606 -0.8736315436289083