An instance of this daemon is already running
An instance of this daemon is already running

     Program PWSCF v.7.1 starts on  9May2023 at 15:24:48 

     This program is part of the open-source Quantum ESPRESSO suite
     for quantum simulation of materials; please cite
         "P. Giannozzi et al., J. Phys.:Condens. Matter 21 395502 (2009);
         "P. Giannozzi et al., J. Phys.:Condens. Matter 29 465901 (2017);
         "P. Giannozzi et al., J. Chem. Phys. 152 154105 (2020);
          URL http://www.quantum-espresso.org", 
     in publications or presentations arising from this work. More details at
     http://www.quantum-espresso.org/quote

     Parallel version (MPI & OpenMP), running on       4 processor cores
     Number of MPI processes:                 4
     Threads/MPI process:                     1

     MPI processes distributed on     1 nodes
     44746 MiB available memory on the printing compute node when the environment starts
 
     Reading input from pw-si-96.in
Warning: card &CELL ignored
Warning: card / ignored

     Current dimensions of program PWSCF are:
     Max number of different atomic species (ntypx) = 10
     Max number of k-points (npk) =  40000
     Max angular momentum in pseudopotentials (lmaxx) =  4

     IMPORTANT: XC functional enforced from input :
     Exchange-correlation= PBE
                           (   1   4   3   4   0   0   0)
     Any further DFT definition will be discarded
     Please, verify this is what you really want


     gamma-point specific algorithms are used
 
     K-points division:     npool     =       2
     R & G space division:  proc/nbgrp/npool/nimage =       2
     Subspace diagonalization in iterative solution of the eigenvalue problem:
     a serial algorithm will be used

     Message from routine divide_et_impera:
     suboptimal parallelization: some nodes have no k-points
 
     Parallelization info
     --------------------
     sticks:   dense  smooth     PW     G-vecs:    dense   smooth      PW
     Min        1935    1935    516                90689    90689   12416
     Max        1942    1942    517                90690    90690   12421
     Sum        3877    3877   1033               181379   181379   24837
 
     Using Slab Decomposition
 


     bravais-lattice index     =            0
     lattice parameter (alat)  =      20.1469  a.u.
     unit-cell volume          =    8177.5965 (a.u.)^3
     number of atoms/cell      =           64
     number of atomic types    =            1
     number of electrons       =       256.00
     number of Kohn-Sham states=          128
     kinetic-energy cutoff     =      30.0000  Ry
     charge density cutoff     =     120.0000  Ry
     scf convergence threshold =      1.0E-06
     mixing beta               =       0.5000
     number of iterations used =            8  plain     mixing
     Exchange-correlation= PBE
                           (   1   4   3   4   0   0   0)

     GPU acceleration is ACTIVE.
     GPU-aware MPI enabled

     Message from routine print_cuda_info:
     High GPU oversubscription detected. Are you sure this is what you want?

     celldm(1)=  20.146915  celldm(2)=   0.000000  celldm(3)=   0.000000
     celldm(4)=   0.000000  celldm(5)=   0.000000  celldm(6)=   0.000000

     crystal axes: (cart. coord. in units of alat)
               a(1) = (   1.000000   0.000000   0.000000 )  
               a(2) = (   0.000000   1.000000   0.000000 )  
               a(3) = (   0.000000   0.000000   1.000000 )  

     reciprocal axes: (cart. coord. in units 2 pi/alat)
               b(1) = (  1.000000  0.000000  0.000000 )  
               b(2) = (  0.000000  1.000000  0.000000 )  
               b(3) = (  0.000000  0.000000  1.000000 )  


     PseudoPot. # 1 for Si read from file:
     /home/ppiaggi/pseudos/Si_ONCV_PBE_sr.upf
     MD5 check sum: 8553c464762ac42b85b1eed164b4d029
     Pseudo is Norm-conserving, Zval =  4.0
     Generated using ONCVPSP code by D. R. Hamann
     Using radial grid of 1510 points,  4 beta functions with: 
                l(1) =   0
                l(2) =   0
                l(3) =   1
                l(4) =   1

     atomic species   valence    mass     pseudopotential
        Si             4.00    28.08500     Si( 1.00)

     No symmetry found



   Cartesian axes

     site n.     atom                  positions (alat units)
         1           Si  tau(   1) = (   0.6008420   0.3682010   0.9987400  )
         2           Si  tau(   2) = (   0.8143010   0.7523140   0.3237760  )
         3           Si  tau(   3) = (   0.5996350   0.1913280   0.1821520  )
         4           Si  tau(   4) = (   0.4473470   0.2190020   0.7034350  )
         5           Si  tau(   5) = (   0.5237060   0.9433520   0.6723680  )
         6           Si  tau(   6) = (   0.8797950   0.6057570   0.1683020  )
         7           Si  tau(   7) = (   0.1637200   0.7781510   0.2240280  )
         8           Si  tau(   8) = (   0.0589107   0.9535030   0.2813420  )
         9           Si  tau(   9) = (   0.5947500   0.6482550   0.3476410  )
        10           Si  tau(  10) = (   0.6706800   0.3734780   0.5273370  )
        11           Si  tau(  11) = (   0.6439290   0.0699810   0.9454590  )
        12           Si  tau(  12) = (   0.1612160   0.1185750   0.8254630  )
        13           Si  tau(  13) = (   0.2409870   0.2063000   0.3875310  )
        14           Si  tau(  14) = (   0.4470000   0.6384080   0.8437830  )
        15           Si  tau(  15) = (   0.6169870   0.7171490   0.6097710  )
        16           Si  tau(  16) = (   0.1910030   0.1100100   0.1767450  )
        17           Si  tau(  17) = (   0.3523650   0.4250510   0.3017990  )
        18           Si  tau(  18) = (   0.9124230   0.0074760   0.1090910  )
        19           Si  tau(  19) = (   0.1340080   0.7683140   0.9791010  )
        20           Si  tau(  20) = (   0.8473070   0.6944300   0.6415880  )
        21           Si  tau(  21) = (   0.3565840   0.7971420   0.0995390  )
        22           Si  tau(  22) = (   0.5438070   0.8581260   0.2666750  )
        23           Si  tau(  23) = (   0.4173760   0.9452420   0.4449220  )
        24           Si  tau(  24) = (   0.5939840   0.5458750   0.1391310  )
        25           Si  tau(  25) = (   0.2342030   0.7034920   0.7731440  )
        26           Si  tau(  26) = (   0.0124264   0.4614760   0.4112100  )
        27           Si  tau(  27) = (   0.9845670   0.2492400   0.2679020  )
        28           Si  tau(  28) = (   0.8759400   0.2721850   0.8171980  )
        29           Si  tau(  29) = (   0.3981590   0.0255058   0.1238660  )
        30           Si  tau(  30) = (   0.1522720   0.0083622   0.5156130  )
        31           Si  tau(  31) = (   0.7783050   0.0265321   0.7645040  )
        32           Si  tau(  32) = (   0.1296650   0.5545570   0.2319200  )
        33           Si  tau(  33) = (   0.6666240   0.5555190   0.7992580  )
        34           Si  tau(  34) = (   0.3999100   0.6080990   0.4487300  )
        35           Si  tau(  35) = (   0.1471200   0.4827320   0.7935130  )
        36           Si  tau(  36) = (   0.6426480   0.2991580   0.7739210  )
        37           Si  tau(  37) = (   0.3791580   0.3072120   0.0644511  )
        38           Si  tau(  38) = (   0.9453060   0.6173920   0.9741530  )
        39           Si  tau(  39) = (   0.6629860   0.7356200   0.9899970  )
        40           Si  tau(  40) = (   0.4579060   0.1723530   0.4608660  )
        41           Si  tau(  41) = (   0.0972830   0.6481150   0.5621960  )
        42           Si  tau(  42) = (   0.1346370   0.4375510   0.0108738  )
        43           Si  tau(  43) = (   0.8396270   0.2056440   0.0461807  )
        44           Si  tau(  44) = (   0.8026530   0.3902820   0.2144500  )
        45           Si  tau(  45) = (   0.2508630   0.7660750   0.4419100  )
        46           Si  tau(  46) = (   0.0230921   0.9395880   0.9035140  )
        47           Si  tau(  47) = (   0.4035140   0.5759580   0.0343235  )
        48           Si  tau(  48) = (   0.6493790   0.0570534   0.3621240  )
        49           Si  tau(  49) = (   0.8386720   0.2320410   0.4683670  )
        50           Si  tau(  50) = (   0.9796350   0.1444280   0.6124520  )
        51           Si  tau(  51) = (   0.7285850   0.9097110   0.1681010  )
        52           Si  tau(  52) = (   0.5864620   0.3583890   0.3204550  )
        53           Si  tau(  53) = (   0.8463210   0.8030560   0.8554580  )
        54           Si  tau(  54) = (   0.2825930   0.9403570   0.6915070  )
        55           Si  tau(  55) = (   0.3937520   0.0951888   0.8944930  )
        56           Si  tau(  56) = (   0.5140760   0.8678580   0.9033320  )
        57           Si  tau(  57) = (   0.1259590   0.3141960   0.5238900  )
        58           Si  tau(  58) = (   0.0582353   0.2521680   0.9999710  )
        59           Si  tau(  59) = (   0.2992670   0.3497080   0.6787520  )
        60           Si  tau(  60) = (   0.9439420   0.8491670   0.4912640  )
        61           Si  tau(  61) = (   0.9125940   0.4994950   0.7781130  )
        62           Si  tau(  62) = (   0.8118920   0.5407410   0.4596400  )
        63           Si  tau(  63) = (   0.4746490   0.4952510   0.6344840  )
        64           Si  tau(  64) = (   0.7546880   0.9720400   0.5520820  )

     number of k points=     1
                       cart. coord. in units 2pi/alat
        k(    1) = (   0.0000000   0.0000000   0.0000000), wk =   2.0000000

     Dense  grid:    90690 G-vectors     FFT dimensions: (  72,  72,  72)

     Estimated max dynamical RAM per process >     133.64 MB

     Estimated total dynamical RAM >     512.42 MB

     Initial potential from superposition of free atoms

     starting charge     255.9608, renormalised to     256.0000
     Starting wfcs are  256 randomized atomic wfcs

     total cpu time spent up to now is        4.0 secs

     Self-consistent Calculation

     iteration #  1     ecut=    30.00 Ry     beta= 0.50
     Davidson diagonalization with overlap
     ethr =  1.00E-02,  avg # of iterations =  2.0

     Threshold (ethr) on eigenvalues was too large:
     Diagonalizing with lowered threshold

     Davidson diagonalization with overlap
     ethr =  4.02E-04,  avg # of iterations =  4.0

     total cpu time spent up to now is        4.2 secs

     total energy              =    -501.24177852 Ry
     estimated scf accuracy    <       1.25166868 Ry

     iteration #  2     ecut=    30.00 Ry     beta= 0.50
     Davidson diagonalization with overlap
     ethr =  4.89E-04,  avg # of iterations = 14.0

     total cpu time spent up to now is        4.3 secs

     total energy              =    -500.86538765 Ry
     estimated scf accuracy    <       4.64870562 Ry

     iteration #  3     ecut=    30.00 Ry     beta= 0.50
     Davidson diagonalization with overlap
     ethr =  4.89E-04,  avg # of iterations = 11.0

     total cpu time spent up to now is        4.5 secs

     total energy              =    -501.34377307 Ry
     estimated scf accuracy    <       1.34793408 Ry

     iteration #  4     ecut=    30.00 Ry     beta= 0.50
     Davidson diagonalization with overlap
     ethr =  4.89E-04,  avg # of iterations =  6.0

     total cpu time spent up to now is        4.5 secs

     total energy              =    -501.46054052 Ry
     estimated scf accuracy    <       0.35946797 Ry

     iteration #  5     ecut=    30.00 Ry     beta= 0.50
     Davidson diagonalization with overlap
     ethr =  1.40E-04,  avg # of iterations = 10.0

     total cpu time spent up to now is        4.7 secs

     total energy              =    -501.48163826 Ry
     estimated scf accuracy    <       0.26986177 Ry

     iteration #  6     ecut=    30.00 Ry     beta= 0.50
     Davidson diagonalization with overlap
     ethr =  1.05E-04,  avg # of iterations =  8.0

     total cpu time spent up to now is        4.8 secs

     total energy              =    -501.51528828 Ry
     estimated scf accuracy    <       0.02635411 Ry

     iteration #  7     ecut=    30.00 Ry     beta= 0.50
     Davidson diagonalization with overlap
     ethr =  1.03E-05,  avg # of iterations = 20.0

     total cpu time spent up to now is        4.9 secs

     total energy              =    -501.51934298 Ry
     estimated scf accuracy    <       0.02485171 Ry

     iteration #  8     ecut=    30.00 Ry     beta= 0.50
     Davidson diagonalization with overlap
     c_bands:  1 eigenvalues not converged
     ethr =  9.71E-06,  avg # of iterations = 20.0

     total cpu time spent up to now is        5.1 secs

     total energy              =    -501.52020531 Ry
     estimated scf accuracy    <       0.01483001 Ry

     iteration #  9     ecut=    30.00 Ry     beta= 0.50
     Davidson diagonalization with overlap
     ethr =  5.79E-06,  avg # of iterations = 12.0

     total cpu time spent up to now is        5.2 secs

     total energy              =    -501.52116807 Ry
     estimated scf accuracy    <       0.00218113 Ry

     iteration # 10     ecut=    30.00 Ry     beta= 0.50
     Davidson diagonalization with overlap
     c_bands:  1 eigenvalues not converged
     ethr =  8.52E-07,  avg # of iterations = 20.0

     total cpu time spent up to now is        5.4 secs

     total energy              =    -501.52234484 Ry
     estimated scf accuracy    <       0.03167414 Ry

     iteration # 11     ecut=    30.00 Ry     beta= 0.50
     Davidson diagonalization with overlap
     c_bands:  1 eigenvalues not converged
     ethr =  8.52E-07,  avg # of iterations = 20.0

     total cpu time spent up to now is        5.6 secs

     total energy              =    -501.52223841 Ry
     estimated scf accuracy    <       0.02314008 Ry

     iteration # 12     ecut=    30.00 Ry     beta= 0.50
     Davidson diagonalization with overlap
     ethr =  8.52E-07,  avg # of iterations =  8.0

     total cpu time spent up to now is        5.7 secs

     total energy              =    -501.52180256 Ry
     estimated scf accuracy    <       0.02077117 Ry

     iteration # 13     ecut=    30.00 Ry     beta= 0.50
     Davidson diagonalization with overlap
     ethr =  8.52E-07,  avg # of iterations =  2.0

     total cpu time spent up to now is        5.7 secs

     total energy              =    -501.52129947 Ry
     estimated scf accuracy    <       0.01807498 Ry

     iteration # 14     ecut=    30.00 Ry     beta= 0.50
     Davidson diagonalization with overlap
     ethr =  8.52E-07,  avg # of iterations =  2.0

     total cpu time spent up to now is        5.8 secs

     total energy              =    -501.51922415 Ry
     estimated scf accuracy    <       0.01568502 Ry

     iteration # 15     ecut=    30.00 Ry     beta= 0.50
     Davidson diagonalization with overlap
     c_bands:  1 eigenvalues not converged
     ethr =  8.52E-07,  avg # of iterations = 20.0

     total cpu time spent up to now is        6.0 secs

     total energy              =    -501.52234023 Ry
     estimated scf accuracy    <       0.00623585 Ry

     iteration # 16     ecut=    30.00 Ry     beta= 0.50
     Davidson diagonalization with overlap
     c_bands:  1 eigenvalues not converged
     ethr =  8.52E-07,  avg # of iterations = 20.0

     total cpu time spent up to now is        6.1 secs

     total energy              =    -501.52289240 Ry
     estimated scf accuracy    <       0.00908065 Ry

     iteration # 17     ecut=    30.00 Ry     beta= 0.50
     Davidson diagonalization with overlap
     ethr =  8.52E-07,  avg # of iterations = 19.0

     total cpu time spent up to now is        6.3 secs

     total energy              =    -501.52283150 Ry
     estimated scf accuracy    <       0.00917482 Ry

     iteration # 18     ecut=    30.00 Ry     beta= 0.50
     Davidson diagonalization with overlap
     ethr =  8.52E-07,  avg # of iterations =  1.0

     total cpu time spent up to now is        6.3 secs

     total energy              =    -501.52247682 Ry
     estimated scf accuracy    <       0.00834684 Ry

     iteration # 19     ecut=    30.00 Ry     beta= 0.50
     Davidson diagonalization with overlap
     ethr =  8.52E-07,  avg # of iterations =  2.0

     total cpu time spent up to now is        6.4 secs

     total energy              =    -501.52182361 Ry
     estimated scf accuracy    <       0.00691553 Ry

     iteration # 20     ecut=    30.00 Ry     beta= 0.50
     Davidson diagonalization with overlap
     c_bands:  1 eigenvalues not converged
     ethr =  8.52E-07,  avg # of iterations = 20.0

     total cpu time spent up to now is        6.6 secs

     total energy              =    -501.52195563 Ry
     estimated scf accuracy    <       0.00229312 Ry

     iteration # 21     ecut=    30.00 Ry     beta= 0.50
     Davidson diagonalization with overlap
     c_bands:  1 eigenvalues not converged
     ethr =  8.52E-07,  avg # of iterations = 20.0

     total cpu time spent up to now is        6.7 secs

     total energy              =    -501.52213409 Ry
     estimated scf accuracy    <       0.00144597 Ry

     iteration # 22     ecut=    30.00 Ry     beta= 0.50
     Davidson diagonalization with overlap
     ethr =  5.65E-07,  avg # of iterations = 13.0

     total cpu time spent up to now is        6.8 secs

     total energy              =    -501.52219597 Ry
     estimated scf accuracy    <       0.00143188 Ry

     iteration # 23     ecut=    30.00 Ry     beta= 0.50
     Davidson diagonalization with overlap
     ethr =  5.59E-07,  avg # of iterations =  1.0

     total cpu time spent up to now is        6.9 secs

     total energy              =    -501.52172823 Ry
     estimated scf accuracy    <       0.00145477 Ry

     iteration # 24     ecut=    30.00 Ry     beta= 0.50
     Davidson diagonalization with overlap
     c_bands:  1 eigenvalues not converged
     ethr =  5.59E-07,  avg # of iterations = 20.0

     total cpu time spent up to now is        7.1 secs

     total energy              =    -501.52083955 Ry
     estimated scf accuracy    <       0.01155162 Ry

     iteration # 25     ecut=    30.00 Ry     beta= 0.50
     Davidson diagonalization with overlap
     c_bands:  1 eigenvalues not converged
     ethr =  5.59E-07,  avg # of iterations = 20.0

     total cpu time spent up to now is        7.3 secs

     total energy              =    -501.52126108 Ry
     estimated scf accuracy    <       0.04457976 Ry

     iteration # 26     ecut=    30.00 Ry     beta= 0.50
     Davidson diagonalization with overlap
     c_bands:  1 eigenvalues not converged
     ethr =  5.59E-07,  avg # of iterations = 20.0

     total cpu time spent up to now is        7.4 secs

     total energy              =    -501.52131441 Ry
     estimated scf accuracy    <       0.02817606 Ry

     iteration # 27     ecut=    30.00 Ry     beta= 0.50
     Davidson diagonalization with overlap
     ethr =  5.59E-07,  avg # of iterations =  3.0

     total cpu time spent up to now is        7.5 secs

     total energy              =    -501.52117629 Ry
     estimated scf accuracy    <       0.02606606 Ry

     iteration # 28     ecut=    30.00 Ry     beta= 0.50
     Davidson diagonalization with overlap
     ethr =  5.59E-07,  avg # of iterations =  1.0

     total cpu time spent up to now is        7.6 secs

     total energy              =    -501.52138730 Ry
     estimated scf accuracy    <       0.02522078 Ry

     iteration # 29     ecut=    30.00 Ry     beta= 0.50
     Davidson diagonalization with overlap
     ethr =  5.59E-07,  avg # of iterations =  1.0

     total cpu time spent up to now is        7.6 secs

     total energy              =    -501.52163765 Ry
     estimated scf accuracy    <       0.02542033 Ry

     iteration # 30     ecut=    30.00 Ry     beta= 0.50
     Davidson diagonalization with overlap
     ethr =  5.59E-07,  avg # of iterations =  1.0

     total cpu time spent up to now is        7.7 secs

     total energy              =    -501.52150447 Ry
     estimated scf accuracy    <       0.02621032 Ry

     iteration # 31     ecut=    30.00 Ry     beta= 0.50
     Davidson diagonalization with overlap
     ethr =  5.59E-07,  avg # of iterations =  2.0

     total cpu time spent up to now is        7.8 secs

     total energy              =    -501.52230544 Ry
     estimated scf accuracy    <       0.02591956 Ry

     iteration # 32     ecut=    30.00 Ry     beta= 0.50
     Davidson diagonalization with overlap
     ethr =  5.59E-07,  avg # of iterations =  1.0

     total cpu time spent up to now is        7.9 secs

     total energy              =    -501.50823695 Ry
     estimated scf accuracy    <       0.02905965 Ry

     iteration # 33     ecut=    30.00 Ry     beta= 0.50
     Davidson diagonalization with overlap
     c_bands:  3 eigenvalues not converged
     ethr =  5.59E-07,  avg # of iterations = 20.0

     total cpu time spent up to now is        8.1 secs

     total energy              =    -501.52429111 Ry
     estimated scf accuracy    <       0.20689013 Ry

     iteration # 34     ecut=    30.00 Ry     beta= 0.50
     Davidson diagonalization with overlap
     ethr =  5.59E-07,  avg # of iterations = 20.0

     total cpu time spent up to now is        8.2 secs

     total energy              =    -501.52576145 Ry
     estimated scf accuracy    <       0.05317793 Ry

     iteration # 35     ecut=    30.00 Ry     beta= 0.50
     Davidson diagonalization with overlap
     ethr =  5.59E-07,  avg # of iterations = 11.0

     total cpu time spent up to now is        8.4 secs

     total energy              =    -501.52501254 Ry
     estimated scf accuracy    <       0.03423750 Ry

     iteration # 36     ecut=    30.00 Ry     beta= 0.50
     Davidson diagonalization with overlap
     ethr =  5.59E-07,  avg # of iterations =  7.0

     total cpu time spent up to now is        8.5 secs

     total energy              =    -501.52391705 Ry
     estimated scf accuracy    <       0.02593397 Ry

     iteration # 37     ecut=    30.00 Ry     beta= 0.50
     Davidson diagonalization with overlap
     ethr =  5.59E-07,  avg # of iterations =  7.0

     total cpu time spent up to now is        8.6 secs

     total energy              =    -501.52170808 Ry
     estimated scf accuracy    <       0.01790861 Ry

     iteration # 38     ecut=    30.00 Ry     beta= 0.50
     Davidson diagonalization with overlap
     c_bands:  1 eigenvalues not converged
     ethr =  5.59E-07,  avg # of iterations = 20.0

     total cpu time spent up to now is        8.7 secs

     total energy              =    -501.52223317 Ry
     estimated scf accuracy    <       0.00318745 Ry

     iteration # 39     ecut=    30.00 Ry     beta= 0.50
     Davidson diagonalization with overlap
     ethr =  5.59E-07,  avg # of iterations =  2.0

     total cpu time spent up to now is        8.8 secs

     total energy              =    -501.52229986 Ry
     estimated scf accuracy    <       0.00205692 Ry

     iteration # 40     ecut=    30.00 Ry     beta= 0.50
     Davidson diagonalization with overlap
     ethr =  5.59E-07,  avg # of iterations =  1.0

     total cpu time spent up to now is        8.9 secs

     total energy              =    -501.52221574 Ry
     estimated scf accuracy    <       0.00203092 Ry

     iteration # 41     ecut=    30.00 Ry     beta= 0.50
     Davidson diagonalization with overlap
     ethr =  5.59E-07,  avg # of iterations =  1.0

     total cpu time spent up to now is        8.9 secs

     total energy              =    -501.52179041 Ry
     estimated scf accuracy    <       0.00160029 Ry

     iteration # 42     ecut=    30.00 Ry     beta= 0.50
     Davidson diagonalization with overlap
     c_bands:  1 eigenvalues not converged
     ethr =  5.59E-07,  avg # of iterations = 20.0

     total cpu time spent up to now is        9.1 secs

     total energy              =    -501.52172591 Ry
     estimated scf accuracy    <       0.01963995 Ry

     iteration # 43     ecut=    30.00 Ry     beta= 0.50
     Davidson diagonalization with overlap
     c_bands:  1 eigenvalues not converged
     ethr =  5.59E-07,  avg # of iterations = 20.0

     total cpu time spent up to now is        9.3 secs

     total energy              =    -501.52198077 Ry
     estimated scf accuracy    <       0.01613214 Ry

     iteration # 44     ecut=    30.00 Ry     beta= 0.50
     Davidson diagonalization with overlap
     ethr =  5.59E-07,  avg # of iterations = 10.0

     total cpu time spent up to now is        9.4 secs

     total energy              =    -501.52185879 Ry
     estimated scf accuracy    <       0.01438068 Ry

     iteration # 45     ecut=    30.00 Ry     beta= 0.50
     Davidson diagonalization with overlap
     ethr =  5.59E-07,  avg # of iterations =  2.0

     total cpu time spent up to now is        9.4 secs

     total energy              =    -501.52170634 Ry
     estimated scf accuracy    <       0.01372911 Ry

     iteration # 46     ecut=    30.00 Ry     beta= 0.50
     Davidson diagonalization with overlap
     ethr =  5.59E-07,  avg # of iterations =  1.0

     total cpu time spent up to now is        9.5 secs

     total energy              =    -501.52115794 Ry
     estimated scf accuracy    <       0.01309352 Ry

     iteration # 47     ecut=    30.00 Ry     beta= 0.50
     Davidson diagonalization with overlap
     ethr =  5.59E-07,  avg # of iterations =  2.0

     total cpu time spent up to now is        9.6 secs

     total energy              =    -501.52093543 Ry
     estimated scf accuracy    <       0.01131688 Ry

     iteration # 48     ecut=    30.00 Ry     beta= 0.50
     Davidson diagonalization with overlap
     ethr =  5.59E-07,  avg # of iterations =  2.0

     total cpu time spent up to now is        9.7 secs

     total energy              =    -501.52038511 Ry
     estimated scf accuracy    <       0.01003315 Ry

     iteration # 49     ecut=    30.00 Ry     beta= 0.50
     Davidson diagonalization with overlap
     c_bands:  1 eigenvalues not converged
     ethr =  5.59E-07,  avg # of iterations = 20.0

     total cpu time spent up to now is        9.8 secs

     total energy              =    -501.52180311 Ry
     estimated scf accuracy    <       0.00882938 Ry

     iteration # 50     ecut=    30.00 Ry     beta= 0.50
     Davidson diagonalization with overlap
     c_bands:  1 eigenvalues not converged
     ethr =  5.59E-07,  avg # of iterations = 20.0

     total cpu time spent up to now is       10.0 secs

     total energy              =    -501.52248562 Ry
     estimated scf accuracy    <       0.00604552 Ry

     iteration # 51     ecut=    30.00 Ry     beta= 0.50
     Davidson diagonalization with overlap
     c_bands:  1 eigenvalues not converged
     ethr =  5.59E-07,  avg # of iterations = 20.0

     total cpu time spent up to now is       10.2 secs

     total energy              =    -501.52250126 Ry
     estimated scf accuracy    <       0.00659509 Ry

     iteration # 52     ecut=    30.00 Ry     beta= 0.50
     Davidson diagonalization with overlap
     c_bands:  1 eigenvalues not converged
     ethr =  5.59E-07,  avg # of iterations = 20.0

     total cpu time spent up to now is       10.3 secs

     total energy              =    -501.52257843 Ry
     estimated scf accuracy    <       0.00577666 Ry

     iteration # 53     ecut=    30.00 Ry     beta= 0.50
     Davidson diagonalization with overlap
     ethr =  5.59E-07,  avg # of iterations = 18.0

     total cpu time spent up to now is       10.5 secs

     total energy              =    -501.52257607 Ry
     estimated scf accuracy    <       0.00495648 Ry

     iteration # 54     ecut=    30.00 Ry     beta= 0.50
     Davidson diagonalization with overlap
     ethr =  5.59E-07,  avg # of iterations =  1.0

     total cpu time spent up to now is       10.5 secs

     total energy              =    -501.52245835 Ry
     estimated scf accuracy    <       0.00458270 Ry

     iteration # 55     ecut=    30.00 Ry     beta= 0.50
     Davidson diagonalization with overlap
     ethr =  5.59E-07,  avg # of iterations =  1.0

     total cpu time spent up to now is       10.6 secs

     total energy              =    -501.52256728 Ry
     estimated scf accuracy    <       0.00404129 Ry

     iteration # 56     ecut=    30.00 Ry     beta= 0.50
     Davidson diagonalization with overlap
     ethr =  5.59E-07,  avg # of iterations =  1.0

     total cpu time spent up to now is       10.7 secs

     total energy              =    -501.52261552 Ry
     estimated scf accuracy    <       0.00428370 Ry

     iteration # 57     ecut=    30.00 Ry     beta= 0.50
     Davidson diagonalization with overlap
     ethr =  5.59E-07,  avg # of iterations =  1.0

     total cpu time spent up to now is       10.7 secs

     total energy              =    -501.52121728 Ry
     estimated scf accuracy    <       0.00455664 Ry

     iteration # 58     ecut=    30.00 Ry     beta= 0.50
     Davidson diagonalization with overlap
     c_bands:  1 eigenvalues not converged
     ethr =  5.59E-07,  avg # of iterations = 20.0

     total cpu time spent up to now is       10.9 secs

     total energy              =    -501.52198269 Ry
     estimated scf accuracy    <       0.02921023 Ry

     iteration # 59     ecut=    30.00 Ry     beta= 0.50
     Davidson diagonalization with overlap
     ethr =  5.59E-07,  avg # of iterations = 12.0

     total cpu time spent up to now is       11.0 secs

     total energy              =    -501.52136507 Ry
     estimated scf accuracy    <       0.02070773 Ry

     iteration # 60     ecut=    30.00 Ry     beta= 0.50
     Davidson diagonalization with overlap
     c_bands:  1 eigenvalues not converged
     ethr =  5.59E-07,  avg # of iterations = 20.0

     total cpu time spent up to now is       11.2 secs

     total energy              =    -501.52164945 Ry
     estimated scf accuracy    <       0.00572641 Ry

     iteration # 61     ecut=    30.00 Ry     beta= 0.50
     Davidson diagonalization with overlap
     c_bands:  1 eigenvalues not converged
     ethr =  5.59E-07,  avg # of iterations = 20.0

     total cpu time spent up to now is       11.4 secs

     total energy              =    -501.52190703 Ry
     estimated scf accuracy    <       0.00409114 Ry

     iteration # 62     ecut=    30.00 Ry     beta= 0.50
     Davidson diagonalization with overlap
     c_bands:  1 eigenvalues not converged
     ethr =  5.59E-07,  avg # of iterations = 20.0

     total cpu time spent up to now is       11.5 secs

     total energy              =    -501.52198262 Ry
     estimated scf accuracy    <       0.00290403 Ry

     iteration # 63     ecut=    30.00 Ry     beta= 0.50
     Davidson diagonalization with overlap
     c_bands:  1 eigenvalues not converged
     ethr =  5.59E-07,  avg # of iterations = 20.0

     total cpu time spent up to now is       11.7 secs

     total energy              =    -501.52201045 Ry
     estimated scf accuracy    <       0.00228828 Ry

     iteration # 64     ecut=    30.00 Ry     beta= 0.50
     Davidson diagonalization with overlap
     ethr =  5.59E-07,  avg # of iterations =  3.0

     total cpu time spent up to now is       11.8 secs

     total energy              =    -501.52200140 Ry
     estimated scf accuracy    <       0.00214421 Ry

     iteration # 65     ecut=    30.00 Ry     beta= 0.50
     Davidson diagonalization with overlap
     ethr =  5.59E-07,  avg # of iterations =  2.0

     total cpu time spent up to now is       11.8 secs

     total energy              =    -501.52200808 Ry
     estimated scf accuracy    <       0.00206662 Ry

     iteration # 66     ecut=    30.00 Ry     beta= 0.50
     Davidson diagonalization with overlap
     c_bands:  1 eigenvalues not converged
     ethr =  5.59E-07,  avg # of iterations = 20.0

     total cpu time spent up to now is       12.0 secs

     total energy              =    -501.52223405 Ry
     estimated scf accuracy    <       0.00242309 Ry

     iteration # 67     ecut=    30.00 Ry     beta= 0.50
     Davidson diagonalization with overlap
     ethr =  5.59E-07,  avg # of iterations = 17.0

     total cpu time spent up to now is       12.1 secs

     total energy              =    -501.52204783 Ry
     estimated scf accuracy    <       0.00274796 Ry

     iteration # 68     ecut=    30.00 Ry     beta= 0.50
     Davidson diagonalization with overlap
     ethr =  5.59E-07,  avg # of iterations =  2.0

     total cpu time spent up to now is       12.2 secs

     total energy              =    -501.52178112 Ry
     estimated scf accuracy    <       0.00186026 Ry

     iteration # 69     ecut=    30.00 Ry     beta= 0.50
     Davidson diagonalization with overlap
     c_bands:  1 eigenvalues not converged
     ethr =  5.59E-07,  avg # of iterations = 20.0

     total cpu time spent up to now is       12.4 secs

     total energy              =    -501.52185232 Ry
     estimated scf accuracy    <       0.00303275 Ry

     iteration # 70     ecut=    30.00 Ry     beta= 0.50
     Davidson diagonalization with overlap
     c_bands:  1 eigenvalues not converged
     ethr =  5.59E-07,  avg # of iterations = 20.0

     total cpu time spent up to now is       12.5 secs

     total energy              =    -501.52195540 Ry
     estimated scf accuracy    <       0.00163079 Ry

     iteration # 71     ecut=    30.00 Ry     beta= 0.50
     Davidson diagonalization with overlap
     ethr =  5.59E-07,  avg # of iterations =  3.0

     total cpu time spent up to now is       12.6 secs

     total energy              =    -501.52191639 Ry
     estimated scf accuracy    <       0.00117899 Ry

     iteration # 72     ecut=    30.00 Ry     beta= 0.50
     Davidson diagonalization with overlap
     c_bands:  2 eigenvalues not converged
     ethr =  4.61E-07,  avg # of iterations = 20.0

     total cpu time spent up to now is       12.8 secs

     total energy              =    -501.52107937 Ry
     estimated scf accuracy    <       0.02612663 Ry

     iteration # 73     ecut=    30.00 Ry     beta= 0.50
     Davidson diagonalization with overlap
     c_bands:  1 eigenvalues not converged
     ethr =  4.61E-07,  avg # of iterations = 20.0

     total cpu time spent up to now is       12.9 secs

     total energy              =    -501.52122548 Ry
     estimated scf accuracy    <       0.01842870 Ry

     iteration # 74     ecut=    30.00 Ry     beta= 0.50
     Davidson diagonalization with overlap
     c_bands:  1 eigenvalues not converged
     ethr =  4.61E-07,  avg # of iterations = 20.0

     total cpu time spent up to now is       13.1 secs

     total energy              =    -501.52124897 Ry
     estimated scf accuracy    <       0.01401098 Ry

     iteration # 75     ecut=    30.00 Ry     beta= 0.50
     Davidson diagonalization with overlap
     c_bands:  1 eigenvalues not converged
     ethr =  4.61E-07,  avg # of iterations = 20.0

     total cpu time spent up to now is       13.2 secs

     total energy              =    -501.52158011 Ry
     estimated scf accuracy    <       0.01097308 Ry

     iteration # 76     ecut=    30.00 Ry     beta= 0.50
     Davidson diagonalization with overlap
     c_bands:  1 eigenvalues not converged
     ethr =  4.61E-07,  avg # of iterations = 20.0

     total cpu time spent up to now is       13.4 secs

     total energy              =    -501.52206882 Ry
     estimated scf accuracy    <       0.01068797 Ry

     iteration # 77     ecut=    30.00 Ry     beta= 0.50
     Davidson diagonalization with overlap
     ethr =  4.61E-07,  avg # of iterations =  8.0

     total cpu time spent up to now is       13.5 secs

     total energy              =    -501.52273019 Ry
     estimated scf accuracy    <       0.01213426 Ry

     iteration # 78     ecut=    30.00 Ry     beta= 0.50
     Davidson diagonalization with overlap
     c_bands:  1 eigenvalues not converged
     ethr =  4.61E-07,  avg # of iterations = 20.0

     total cpu time spent up to now is       13.7 secs

     total energy              =    -501.52265689 Ry
     estimated scf accuracy    <       0.05170863 Ry

     iteration # 79     ecut=    30.00 Ry     beta= 0.50
     Davidson diagonalization with overlap
     c_bands:  1 eigenvalues not converged
     ethr =  4.61E-07,  avg # of iterations = 20.0

     total cpu time spent up to now is       13.9 secs

     total energy              =    -501.52397578 Ry
     estimated scf accuracy    <       0.03616239 Ry

     iteration # 80     ecut=    30.00 Ry     beta= 0.50
     Davidson diagonalization with overlap
     ethr =  4.61E-07,  avg # of iterations =  2.0

     total cpu time spent up to now is       13.9 secs

     total energy              =    -501.51956164 Ry
     estimated scf accuracy    <       0.03684904 Ry

     iteration # 81     ecut=    30.00 Ry     beta= 0.50
     Davidson diagonalization with overlap
     c_bands:  3 eigenvalues not converged
     ethr =  4.61E-07,  avg # of iterations = 20.0

     total cpu time spent up to now is       14.1 secs

     total energy              =    -501.51844440 Ry
     estimated scf accuracy    <       0.08611414 Ry

     iteration # 82     ecut=    30.00 Ry     beta= 0.50
     Davidson diagonalization with overlap
     c_bands:  3 eigenvalues not converged
     ethr =  4.61E-07,  avg # of iterations = 20.0

     total cpu time spent up to now is       14.3 secs

     total energy              =    -501.52231603 Ry
     estimated scf accuracy    <       0.01712651 Ry

     iteration # 83     ecut=    30.00 Ry     beta= 0.50
     Davidson diagonalization with overlap
     c_bands:  1 eigenvalues not converged
     ethr =  4.61E-07,  avg # of iterations = 20.0

     total cpu time spent up to now is       14.5 secs

     total energy              =    -501.52251472 Ry
     estimated scf accuracy    <       0.01322993 Ry

     iteration # 84     ecut=    30.00 Ry     beta= 0.50
     Davidson diagonalization with overlap
     ethr =  4.61E-07,  avg # of iterations = 11.0

     total cpu time spent up to now is       14.6 secs

     total energy              =    -501.52248479 Ry
     estimated scf accuracy    <       0.00817151 Ry

     iteration # 85     ecut=    30.00 Ry     beta= 0.50
     Davidson diagonalization with overlap
     ethr =  4.61E-07,  avg # of iterations =  3.0

     total cpu time spent up to now is       14.7 secs

     total energy              =    -501.52205798 Ry
     estimated scf accuracy    <       0.00673394 Ry

     iteration # 86     ecut=    30.00 Ry     beta= 0.50
     Davidson diagonalization with overlap
     ethr =  4.61E-07,  avg # of iterations = 14.0

     total cpu time spent up to now is       14.8 secs

     total energy              =    -501.52143260 Ry
     estimated scf accuracy    <       0.00449805 Ry

     iteration # 87     ecut=    30.00 Ry     beta= 0.50
     Davidson diagonalization with overlap
     c_bands:  1 eigenvalues not converged
     ethr =  4.61E-07,  avg # of iterations = 20.0

     total cpu time spent up to now is       15.0 secs

     total energy              =    -501.52178305 Ry
     estimated scf accuracy    <       0.01271343 Ry

     iteration # 88     ecut=    30.00 Ry     beta= 0.50
     Davidson diagonalization with overlap
     c_bands:  1 eigenvalues not converged
     ethr =  4.61E-07,  avg # of iterations = 20.0

     total cpu time spent up to now is       15.2 secs

     total energy              =    -501.52185316 Ry
     estimated scf accuracy    <       0.01354930 Ry

     iteration # 89     ecut=    30.00 Ry     beta= 0.50
     Davidson diagonalization with overlap
     c_bands:  1 eigenvalues not converged
     ethr =  4.61E-07,  avg # of iterations = 20.0

     total cpu time spent up to now is       15.4 secs

     total energy              =    -501.52217889 Ry
     estimated scf accuracy    <       0.00423946 Ry

     iteration # 90     ecut=    30.00 Ry     beta= 0.50
     Davidson diagonalization with overlap
     ethr =  4.61E-07,  avg # of iterations =  3.0

     total cpu time spent up to now is       15.4 secs

     total energy              =    -501.52211660 Ry
     estimated scf accuracy    <       0.00413250 Ry

     iteration # 91     ecut=    30.00 Ry     beta= 0.50
     Davidson diagonalization with overlap
     ethr =  4.61E-07,  avg # of iterations =  2.0

     total cpu time spent up to now is       15.5 secs

     total energy              =    -501.52207598 Ry
     estimated scf accuracy    <       0.00385290 Ry

     iteration # 92     ecut=    30.00 Ry     beta= 0.50
     Davidson diagonalization with overlap
     ethr =  4.61E-07,  avg # of iterations =  1.0

     total cpu time spent up to now is       15.6 secs

     total energy              =    -501.52204849 Ry
     estimated scf accuracy    <       0.00356730 Ry

     iteration # 93     ecut=    30.00 Ry     beta= 0.50
     Davidson diagonalization with overlap
     ethr =  4.61E-07,  avg # of iterations =  2.0

     total cpu time spent up to now is       15.6 secs

     total energy              =    -501.52202515 Ry
     estimated scf accuracy    <       0.00339265 Ry

     iteration # 94     ecut=    30.00 Ry     beta= 0.50
     Davidson diagonalization with overlap
     ethr =  4.61E-07,  avg # of iterations =  1.0

     total cpu time spent up to now is       15.7 secs

     total energy              =    -501.52190077 Ry
     estimated scf accuracy    <       0.00326786 Ry

     iteration # 95     ecut=    30.00 Ry     beta= 0.50
     Davidson diagonalization with overlap
     c_bands:  1 eigenvalues not converged
     ethr =  4.61E-07,  avg # of iterations = 20.0

     total cpu time spent up to now is       15.9 secs

     total energy              =    -501.52146306 Ry
     estimated scf accuracy    <       0.00254729 Ry

     iteration # 96     ecut=    30.00 Ry     beta= 0.50
     Davidson diagonalization with overlap
     c_bands:  1 eigenvalues not converged
     ethr =  4.61E-07,  avg # of iterations = 20.0

     total cpu time spent up to now is       16.1 secs

     total energy              =    -501.52253969 Ry
     estimated scf accuracy    <       0.05436665 Ry

     iteration # 97     ecut=    30.00 Ry     beta= 0.50
     Davidson diagonalization with overlap
     c_bands:  1 eigenvalues not converged
     ethr =  4.61E-07,  avg # of iterations = 20.0

     total cpu time spent up to now is       16.2 secs

     total energy              =    -501.52126035 Ry
     estimated scf accuracy    <       0.02541804 Ry

     iteration # 98     ecut=    30.00 Ry     beta= 0.50
     Davidson diagonalization with overlap
     c_bands:  1 eigenvalues not converged
     ethr =  4.61E-07,  avg # of iterations = 20.0

     total cpu time spent up to now is       16.4 secs

     total energy              =    -501.52175185 Ry
     estimated scf accuracy    <       0.01357033 Ry

     iteration # 99     ecut=    30.00 Ry     beta= 0.50
     Davidson diagonalization with overlap
     c_bands:  1 eigenvalues not converged
     ethr =  4.61E-07,  avg # of iterations = 20.0

     total cpu time spent up to now is       16.5 secs

     total energy              =    -501.52197532 Ry
     estimated scf accuracy    <       0.00883855 Ry

     iteration #100     ecut=    30.00 Ry     beta= 0.50
     Davidson diagonalization with overlap
     c_bands:  1 eigenvalues not converged
     ethr =  4.61E-07,  avg # of iterations = 20.0

     total cpu time spent up to now is       16.7 secs

     total energy              =    -501.52205261 Ry
     estimated scf accuracy    <       0.00667416 Ry

     End of self-consistent calculation

     convergence NOT achieved after 100 iterations: stopping

     Writing config to output data dir ./pwscf.save/
     Message from routine punch:
     wavefunctions written to file
 
     init_run     :      0.99s CPU      3.96s WALL (       1 calls)
     electrons    :     11.98s CPU     12.69s WALL (       1 calls)

     Called by init_run:
     wfcinit      :      0.48s CPU      3.30s WALL (       1 calls)
                                        3.30s GPU  (       1 calls)
     potinit      :      0.04s CPU      0.12s WALL (       1 calls)
     hinit0       :      0.46s CPU      0.48s WALL (       1 calls)

     Called by electrons:
     c_bands      :      8.87s CPU      9.29s WALL (     101 calls)
     sum_band     :      1.43s CPU      1.63s WALL (     101 calls)
     v_of_rho     :      0.58s CPU      0.68s WALL (     101 calls)
     mix_rho      :      0.90s CPU      0.93s WALL (     101 calls)

     Called by c_bands:
     init_us_2    :      0.25s CPU      0.27s WALL (     203 calls)
     init_us_2:gp :      0.24s CPU      0.27s WALL (     203 calls)
     regterg      :      8.15s CPU      8.54s WALL (     101 calls)

     Called by *egterg:
     rdiaghg      :      4.27s CPU      5.05s WALL (    1318 calls)
                                        4.86s GPU  (    1318 calls)
     h_psi        :      3.20s CPU      5.59s WALL (    1320 calls)
                                        5.57s GPU  (    1320 calls)
     g_psi        :      0.00s CPU      0.03s WALL (    1218 calls)
                                        0.02s GPU  (    1218 calls)

     Called by h_psi:
     h_psi:calbec :      0.77s CPU      2.99s WALL (    1320 calls)
                                        2.98s GPU  (    1320 calls)
     vloc_psi     :      1.74s CPU      1.90s WALL (    1320 calls)
                                        1.87s GPU  (    1320 calls)
     add_vuspsi   :      0.53s CPU      0.65s WALL (    1320 calls)
                                        0.64s GPU  (    1320 calls)

     General routines
     calbec       :      0.75s CPU      2.96s WALL (    1320 calls)
     fft          :      0.94s CPU      1.08s WALL (     809 calls)
                                        0.17s GPU  (     505 calls)
     ffts         :      0.17s CPU      0.19s WALL (     101 calls)
     fftw         :      2.02s CPU      2.51s WALL (   10572 calls)
                                        2.18s GPU  (   10572 calls)
     davcio       :      0.00s CPU      0.01s WALL (      19 calls)
 
     Parallel routines
 
     PWSCF        :     13.02s CPU     16.75s WALL

 
   This run was terminated on:  15:25: 5   9May2023            

=------------------------------------------------------------------------------=
   JOB DONE.
=------------------------------------------------------------------------------=
