An instance of this daemon is already running
An instance of this daemon is already running
An instance of this daemon is already running

     Program PWSCF v.7.1 starts on  9May2023 at 15:24:16 

     This program is part of the open-source Quantum ESPRESSO suite
     for quantum simulation of materials; please cite
         "P. Giannozzi et al., J. Phys.:Condens. Matter 21 395502 (2009);
         "P. Giannozzi et al., J. Phys.:Condens. Matter 29 465901 (2017);
         "P. Giannozzi et al., J. Chem. Phys. 152 154105 (2020);
          URL http://www.quantum-espresso.org", 
     in publications or presentations arising from this work. More details at
     http://www.quantum-espresso.org/quote

     Parallel version (MPI & OpenMP), running on       4 processor cores
     Number of MPI processes:                 4
     Threads/MPI process:                     1

     MPI processes distributed on     1 nodes
     45763 MiB available memory on the printing compute node when the environment starts
 
     Reading input from pw-si-93.in
Warning: card &CELL ignored
Warning: card / ignored

     Current dimensions of program PWSCF are:
     Max number of different atomic species (ntypx) = 10
     Max number of k-points (npk) =  40000
     Max angular momentum in pseudopotentials (lmaxx) =  4

     IMPORTANT: XC functional enforced from input :
     Exchange-correlation= PBE
                           (   1   4   3   4   0   0   0)
     Any further DFT definition will be discarded
     Please, verify this is what you really want


     gamma-point specific algorithms are used
 
     K-points division:     npool     =       2
     R & G space division:  proc/nbgrp/npool/nimage =       2
     Subspace diagonalization in iterative solution of the eigenvalue problem:
     a serial algorithm will be used

     Message from routine divide_et_impera:
     suboptimal parallelization: some nodes have no k-points
 
     Parallelization info
     --------------------
     sticks:   dense  smooth     PW     G-vecs:    dense   smooth      PW
     Min        1953    1953    519                91863    91863   12442
     Max        1956    1956    522                91868    91868   12443
     Sum        3909    3909   1041               183731   183731   24885
 
     Using Slab Decomposition
 


     bravais-lattice index     =            0
     lattice parameter (alat)  =      20.2227  a.u.
     unit-cell volume          =    8270.2514 (a.u.)^3
     number of atoms/cell      =           64
     number of atomic types    =            1
     number of electrons       =       256.00
     number of Kohn-Sham states=          128
     kinetic-energy cutoff     =      30.0000  Ry
     charge density cutoff     =     120.0000  Ry
     scf convergence threshold =      1.0E-06
     mixing beta               =       0.5000
     number of iterations used =            8  plain     mixing
     Exchange-correlation= PBE
                           (   1   4   3   4   0   0   0)

     GPU acceleration is ACTIVE.
     GPU-aware MPI enabled

     Message from routine print_cuda_info:
     High GPU oversubscription detected. Are you sure this is what you want?

     celldm(1)=  20.222720  celldm(2)=   0.000000  celldm(3)=   0.000000
     celldm(4)=   0.000000  celldm(5)=   0.000000  celldm(6)=   0.000000

     crystal axes: (cart. coord. in units of alat)
               a(1) = (   1.000000   0.000000   0.000000 )  
               a(2) = (   0.000000   1.000000   0.000000 )  
               a(3) = (   0.000000   0.000000   1.000000 )  

     reciprocal axes: (cart. coord. in units 2 pi/alat)
               b(1) = (  1.000000  0.000000  0.000000 )  
               b(2) = (  0.000000  1.000000  0.000000 )  
               b(3) = (  0.000000  0.000000  1.000000 )  


     PseudoPot. # 1 for Si read from file:
     /home/ppiaggi/pseudos/Si_ONCV_PBE_sr.upf
     MD5 check sum: 8553c464762ac42b85b1eed164b4d029
     Pseudo is Norm-conserving, Zval =  4.0
     Generated using ONCVPSP code by D. R. Hamann
     Using radial grid of 1510 points,  4 beta functions with: 
                l(1) =   0
                l(2) =   0
                l(3) =   1
                l(4) =   1

     atomic species   valence    mass     pseudopotential
        Si             4.00    28.08500     Si( 1.00)

     No symmetry found



   Cartesian axes

     site n.     atom                  positions (alat units)
         1           Si  tau(   1) = (   0.4931550   0.2916890   0.0660093  )
         2           Si  tau(   2) = (   0.1599900   0.3496660   0.5404370  )
         3           Si  tau(   3) = (   0.1011700   0.9342240   0.9378610  )
         4           Si  tau(   4) = (   0.6918090   0.2226830   0.0013811  )
         5           Si  tau(   5) = (   0.0331266   0.9154300   0.2055890  )
         6           Si  tau(   6) = (   0.2186990   0.7816560   0.7483760  )
         7           Si  tau(   7) = (   0.0852380   0.5550300   0.4957130  )
         8           Si  tau(   8) = (   0.6923590   0.2357540   0.7544910  )
         9           Si  tau(   9) = (   0.9279020   0.1180200   0.2045670  )
        10           Si  tau(  10) = (   0.7640240   0.1902570   0.5061980  )
        11           Si  tau(  11) = (   0.8620160   0.4822230   0.1861610  )
        12           Si  tau(  12) = (   0.2430730   0.9670470   0.2617970  )
        13           Si  tau(  13) = (   0.4445770   0.8013720   0.2956550  )
        14           Si  tau(  14) = (   0.4662120   0.2931130   0.6823690  )
        15           Si  tau(  15) = (   0.3069590   0.5694260   0.5813160  )
        16           Si  tau(  16) = (   0.4545590   0.0352692   0.7292090  )
        17           Si  tau(  17) = (   0.4971310   0.4561010   0.5051080  )
        18           Si  tau(  18) = (   0.3271710   0.0572368   0.9246550  )
        19           Si  tau(  19) = (   0.7243770   0.9817240   0.7129020  )
        20           Si  tau(  20) = (   0.3891970   0.1180860   0.1496570  )
        21           Si  tau(  21) = (   0.5254660   0.1853330   0.4912890  )
        22           Si  tau(  22) = (   0.1305150   0.6872700   0.9920130  )
        23           Si  tau(  23) = (   0.7139810   0.8283550   0.8862820  )
        24           Si  tau(  24) = (   0.2575210   0.2854220   0.9700580  )
        25           Si  tau(  25) = (   0.0099803   0.1419370   0.4411210  )
        26           Si  tau(  26) = (   0.2071840   0.6523980   0.2126350  )
        27           Si  tau(  27) = (   0.5420180   0.3495880   0.2737030  )
        28           Si  tau(  28) = (   0.9171410   0.6209630   0.9737460  )
        29           Si  tau(  29) = (   0.8549870   0.8781690   0.3776510  )
        30           Si  tau(  30) = (   0.2163230   0.1660340   0.3676690  )
        31           Si  tau(  31) = (   0.0080036   0.4098680   0.8967970  )
        32           Si  tau(  32) = (   0.7919380   0.6807080   0.3027860  )
        33           Si  tau(  33) = (   0.1081330   0.7744620   0.3938490  )
        34           Si  tau(  34) = (   0.2985080   0.0529792   0.5468390  )
        35           Si  tau(  35) = (   0.5985120   0.5741230   0.1114380  )
        36           Si  tau(  36) = (   0.0378880   0.2117340   0.0089759  )
        37           Si  tau(  37) = (   0.8559880   0.5812740   0.5083910  )
        38           Si  tau(  38) = (   0.3950630   0.4888720   0.9236780  )
        39           Si  tau(  39) = (   0.0636446   0.4826850   0.2858420  )
        40           Si  tau(  40) = (   0.8545470   0.6700360   0.7800260  )
        41           Si  tau(  41) = (   0.1114050   0.0170049   0.6870560  )
        42           Si  tau(  42) = (   0.3213510   0.8223950   0.4874830  )
        43           Si  tau(  43) = (   0.2117960   0.3457070   0.2042980  )
        44           Si  tau(  44) = (   0.8939930   0.9612590   0.5853250  )
        45           Si  tau(  45) = (   0.6655170   0.9947840   0.4175790  )
        46           Si  tau(  46) = (   0.8344900   0.4304360   0.6972510  )
        47           Si  tau(  47) = (   0.8752630   0.7828560   0.1013970  )
        48           Si  tau(  48) = (   0.5286890   0.7755360   0.0108350  )
        49           Si  tau(  49) = (   0.7623520   0.9989360   0.0680430  )
        50           Si  tau(  50) = (   0.7214980   0.4508110   0.9656480  )
        51           Si  tau(  51) = (   0.5919460   0.9587080   0.2133290  )
        52           Si  tau(  52) = (   0.5713150   0.8620730   0.5584930  )
        53           Si  tau(  53) = (   0.9231410   0.0710898   0.8581300  )
        54           Si  tau(  54) = (   0.7660350   0.2917110   0.2610760  )
        55           Si  tau(  55) = (   0.2045230   0.5464710   0.8277860  )
        56           Si  tau(  56) = (   0.4526050   0.6936990   0.7868530  )
        57           Si  tau(  57) = (   0.5910660   0.6213560   0.3561590  )
        58           Si  tau(  58) = (   0.6533650   0.6501620   0.6009550  )
        59           Si  tau(  59) = (   0.3656030   0.5284340   0.1863010  )
        60           Si  tau(  60) = (   0.3153030   0.8460440   0.0559145  )
        61           Si  tau(  61) = (   0.0148581   0.7623660   0.6607010  )
        62           Si  tau(  62) = (   0.9658190   0.2407100   0.6555550  )
        63           Si  tau(  63) = (   0.2376500   0.2446490   0.7369550  )
        64           Si  tau(  64) = (   0.5825590   0.4835000   0.8005310  )

     number of k points=     1
                       cart. coord. in units 2pi/alat
        k(    1) = (   0.0000000   0.0000000   0.0000000), wk =   2.0000000

     Dense  grid:    91866 G-vectors     FFT dimensions: (  72,  72,  72)

     Estimated max dynamical RAM per process >     135.01 MB

     Estimated total dynamical RAM >     517.61 MB

     Initial potential from superposition of free atoms

     starting charge     255.9608, renormalised to     256.0000
     Starting wfcs are  256 randomized atomic wfcs

     total cpu time spent up to now is        4.3 secs

     Self-consistent Calculation

     iteration #  1     ecut=    30.00 Ry     beta= 0.50
     Davidson diagonalization with overlap
     ethr =  1.00E-02,  avg # of iterations =  2.0

     Threshold (ethr) on eigenvalues was too large:
     Diagonalizing with lowered threshold

     Davidson diagonalization with overlap
     ethr =  3.70E-04,  avg # of iterations =  6.0

     total cpu time spent up to now is        4.5 secs

     total energy              =    -501.10495609 Ry
     estimated scf accuracy    <       1.20774015 Ry

     iteration #  2     ecut=    30.00 Ry     beta= 0.50
     Davidson diagonalization with overlap
     ethr =  4.72E-04,  avg # of iterations = 14.0

     total cpu time spent up to now is        4.6 secs

     total energy              =    -500.64454385 Ry
     estimated scf accuracy    <       6.07704170 Ry

     iteration #  3     ecut=    30.00 Ry     beta= 0.50
     Davidson diagonalization with overlap
     ethr =  4.72E-04,  avg # of iterations = 13.0

     total cpu time spent up to now is        4.8 secs

     total energy              =    -501.19386038 Ry
     estimated scf accuracy    <       1.84273514 Ry

     iteration #  4     ecut=    30.00 Ry     beta= 0.50
     Davidson diagonalization with overlap
     ethr =  4.72E-04,  avg # of iterations = 10.0

     total cpu time spent up to now is        4.9 secs

     total energy              =    -501.33211097 Ry
     estimated scf accuracy    <       0.35353765 Ry

     iteration #  5     ecut=    30.00 Ry     beta= 0.50
     Davidson diagonalization with overlap
     ethr =  1.38E-04,  avg # of iterations =  7.0

     total cpu time spent up to now is        5.0 secs

     total energy              =    -501.36336529 Ry
     estimated scf accuracy    <       0.19464385 Ry

     iteration #  6     ecut=    30.00 Ry     beta= 0.50
     Davidson diagonalization with overlap
     ethr =  7.60E-05,  avg # of iterations =  9.0

     total cpu time spent up to now is        5.1 secs

     total energy              =    -501.38786464 Ry
     estimated scf accuracy    <       0.07963280 Ry

     iteration #  7     ecut=    30.00 Ry     beta= 0.50
     Davidson diagonalization with overlap
     ethr =  3.11E-05,  avg # of iterations =  7.0

     total cpu time spent up to now is        5.2 secs

     total energy              =    -501.39201973 Ry
     estimated scf accuracy    <       0.02101276 Ry

     iteration #  8     ecut=    30.00 Ry     beta= 0.50
     Davidson diagonalization with overlap
     ethr =  8.21E-06,  avg # of iterations =  6.0

     total cpu time spent up to now is        5.3 secs

     total energy              =    -501.39420058 Ry
     estimated scf accuracy    <       0.00998474 Ry

     iteration #  9     ecut=    30.00 Ry     beta= 0.50
     Davidson diagonalization with overlap
     ethr =  3.90E-06,  avg # of iterations = 10.0

     total cpu time spent up to now is        5.4 secs

     total energy              =    -501.39540085 Ry
     estimated scf accuracy    <       0.00288179 Ry

     iteration # 10     ecut=    30.00 Ry     beta= 0.50
     Davidson diagonalization with overlap
     ethr =  1.13E-06,  avg # of iterations = 10.0

     total cpu time spent up to now is        5.5 secs

     total energy              =    -501.39554813 Ry
     estimated scf accuracy    <       0.00154870 Ry

     iteration # 11     ecut=    30.00 Ry     beta= 0.50
     Davidson diagonalization with overlap
     ethr =  6.05E-07,  avg # of iterations = 11.0

     total cpu time spent up to now is        5.6 secs

     total energy              =    -501.39568431 Ry
     estimated scf accuracy    <       0.00071206 Ry

     iteration # 12     ecut=    30.00 Ry     beta= 0.50
     Davidson diagonalization with overlap
     ethr =  2.78E-07,  avg # of iterations =  7.0

     total cpu time spent up to now is        5.7 secs

     total energy              =    -501.39571137 Ry
     estimated scf accuracy    <       0.00018964 Ry

     iteration # 13     ecut=    30.00 Ry     beta= 0.50
     Davidson diagonalization with overlap
     ethr =  7.41E-08,  avg # of iterations = 13.0

     total cpu time spent up to now is        5.9 secs

     total energy              =    -501.39574983 Ry
     estimated scf accuracy    <       0.00024534 Ry

     iteration # 14     ecut=    30.00 Ry     beta= 0.50
     Davidson diagonalization with overlap
     c_bands:  1 eigenvalues not converged
     ethr =  7.41E-08,  avg # of iterations = 20.0

     total cpu time spent up to now is        6.0 secs

     total energy              =    -501.39575325 Ry
     estimated scf accuracy    <       0.00039272 Ry

     iteration # 15     ecut=    30.00 Ry     beta= 0.50
     Davidson diagonalization with overlap
     ethr =  7.41E-08,  avg # of iterations = 15.0

     total cpu time spent up to now is        6.2 secs

     total energy              =    -501.39574829 Ry
     estimated scf accuracy    <       0.00019378 Ry

     iteration # 16     ecut=    30.00 Ry     beta= 0.50
     Davidson diagonalization with overlap
     ethr =  7.41E-08,  avg # of iterations =  2.0

     total cpu time spent up to now is        6.2 secs

     total energy              =    -501.39574570 Ry
     estimated scf accuracy    <       0.00010891 Ry

     iteration # 17     ecut=    30.00 Ry     beta= 0.50
     Davidson diagonalization with overlap
     c_bands:  1 eigenvalues not converged
     ethr =  4.25E-08,  avg # of iterations = 20.0

     total cpu time spent up to now is        6.4 secs

     total energy              =    -501.39575719 Ry
     estimated scf accuracy    <       0.00003385 Ry

     iteration # 18     ecut=    30.00 Ry     beta= 0.50
     Davidson diagonalization with overlap
     ethr =  1.32E-08,  avg # of iterations = 14.0

     total cpu time spent up to now is        6.5 secs

     total energy              =    -501.39576210 Ry
     estimated scf accuracy    <       0.00002843 Ry

     iteration # 19     ecut=    30.00 Ry     beta= 0.50
     Davidson diagonalization with overlap
     ethr =  1.11E-08,  avg # of iterations =  2.0

     total cpu time spent up to now is        6.6 secs

     total energy              =    -501.39576109 Ry
     estimated scf accuracy    <       0.00002733 Ry

     iteration # 20     ecut=    30.00 Ry     beta= 0.50
     Davidson diagonalization with overlap
     ethr =  1.07E-08,  avg # of iterations =  1.0

     total cpu time spent up to now is        6.6 secs

     total energy              =    -501.39576047 Ry
     estimated scf accuracy    <       0.00002018 Ry

     iteration # 21     ecut=    30.00 Ry     beta= 0.50
     Davidson diagonalization with overlap
     ethr =  7.88E-09,  avg # of iterations =  2.0

     total cpu time spent up to now is        6.7 secs

     total energy              =    -501.39575968 Ry
     estimated scf accuracy    <       0.00001363 Ry

     iteration # 22     ecut=    30.00 Ry     beta= 0.50
     Davidson diagonalization with overlap
     c_bands:  1 eigenvalues not converged
     ethr =  5.32E-09,  avg # of iterations = 20.0

     total cpu time spent up to now is        6.9 secs

     total energy              =    -501.39576168 Ry
     estimated scf accuracy    <       0.00000936 Ry

     iteration # 23     ecut=    30.00 Ry     beta= 0.50
     Davidson diagonalization with overlap
     ethr =  3.66E-09,  avg # of iterations = 13.0

     total cpu time spent up to now is        7.0 secs

     total energy              =    -501.39576142 Ry
     estimated scf accuracy    <       0.00000854 Ry

     iteration # 24     ecut=    30.00 Ry     beta= 0.50
     Davidson diagonalization with overlap
     ethr =  3.34E-09,  avg # of iterations =  2.0

     total cpu time spent up to now is        7.1 secs

     total energy              =    -501.39576132 Ry
     estimated scf accuracy    <       0.00000633 Ry

     iteration # 25     ecut=    30.00 Ry     beta= 0.50
     Davidson diagonalization with overlap
     ethr =  2.47E-09,  avg # of iterations =  2.0

     total cpu time spent up to now is        7.1 secs

     total energy              =    -501.39576124 Ry
     estimated scf accuracy    <       0.00000526 Ry

     iteration # 26     ecut=    30.00 Ry     beta= 0.50
     Davidson diagonalization with overlap
     ethr =  2.05E-09,  avg # of iterations =  2.0

     total cpu time spent up to now is        7.2 secs

     total energy              =    -501.39576126 Ry
     estimated scf accuracy    <       0.00000478 Ry

     iteration # 27     ecut=    30.00 Ry     beta= 0.50
     Davidson diagonalization with overlap
     ethr =  1.87E-09,  avg # of iterations =  1.0

     total cpu time spent up to now is        7.3 secs

     total energy              =    -501.39576113 Ry
     estimated scf accuracy    <       0.00000448 Ry

     iteration # 28     ecut=    30.00 Ry     beta= 0.50
     Davidson diagonalization with overlap
     ethr =  1.75E-09,  avg # of iterations =  2.0

     total cpu time spent up to now is        7.3 secs

     total energy              =    -501.39576093 Ry
     estimated scf accuracy    <       0.00000370 Ry

     iteration # 29     ecut=    30.00 Ry     beta= 0.50
     Davidson diagonalization with overlap
     c_bands:  1 eigenvalues not converged
     ethr =  1.45E-09,  avg # of iterations = 20.0

     total cpu time spent up to now is        7.5 secs

     total energy              =    -501.39576185 Ry
     estimated scf accuracy    <       0.00000736 Ry

     iteration # 30     ecut=    30.00 Ry     beta= 0.50
     Davidson diagonalization with overlap
     c_bands:  1 eigenvalues not converged
     ethr =  1.45E-09,  avg # of iterations = 20.0

     total cpu time spent up to now is        7.6 secs

     total energy              =    -501.39576130 Ry
     estimated scf accuracy    <       0.00000680 Ry

     iteration # 31     ecut=    30.00 Ry     beta= 0.50
     Davidson diagonalization with overlap
     c_bands:  1 eigenvalues not converged
     ethr =  1.45E-09,  avg # of iterations = 20.0

     total cpu time spent up to now is        7.8 secs

     total energy              =    -501.39576122 Ry
     estimated scf accuracy    <       0.00000911 Ry

     iteration # 32     ecut=    30.00 Ry     beta= 0.50
     Davidson diagonalization with overlap
     ethr =  1.45E-09,  avg # of iterations = 17.0

     total cpu time spent up to now is        7.9 secs

     total energy              =    -501.39576173 Ry
     estimated scf accuracy    <       0.00000165 Ry

     iteration # 33     ecut=    30.00 Ry     beta= 0.50
     Davidson diagonalization with overlap
     ethr =  6.44E-10,  avg # of iterations =  5.0

     total cpu time spent up to now is        8.0 secs

     total energy              =    -501.39576187 Ry
     estimated scf accuracy    <       0.00000172 Ry

     iteration # 34     ecut=    30.00 Ry     beta= 0.50
     Davidson diagonalization with overlap
     ethr =  6.44E-10,  avg # of iterations =  2.0

     total cpu time spent up to now is        8.1 secs

     total energy              =    -501.39576182 Ry
     estimated scf accuracy    <       0.00000185 Ry

     iteration # 35     ecut=    30.00 Ry     beta= 0.50
     Davidson diagonalization with overlap
     ethr =  6.44E-10,  avg # of iterations =  1.0

     total cpu time spent up to now is        8.2 secs

     total energy              =    -501.39576177 Ry
     estimated scf accuracy    <       0.00000157 Ry

     iteration # 36     ecut=    30.00 Ry     beta= 0.50
     Davidson diagonalization with overlap
     ethr =  6.15E-10,  avg # of iterations =  1.0

     total cpu time spent up to now is        8.2 secs

     total energy              =    -501.39576175 Ry
     estimated scf accuracy    <       0.00000129 Ry

     iteration # 37     ecut=    30.00 Ry     beta= 0.50
     Davidson diagonalization with overlap
     ethr =  5.03E-10,  avg # of iterations =  1.0

     total cpu time spent up to now is        8.3 secs

     total energy              =    -501.39576154 Ry
     estimated scf accuracy    <       0.00000114 Ry

     iteration # 38     ecut=    30.00 Ry     beta= 0.50
     Davidson diagonalization with overlap
     c_bands:  1 eigenvalues not converged
     ethr =  4.44E-10,  avg # of iterations = 20.0

     total cpu time spent up to now is        8.4 secs

     total energy              =    -501.39576166 Ry
     estimated scf accuracy    <       0.00000281 Ry

     iteration # 39     ecut=    30.00 Ry     beta= 0.50
     Davidson diagonalization with overlap
     ethr =  4.44E-10,  avg # of iterations = 15.0

     total cpu time spent up to now is        8.6 secs

     total energy              =    -501.39576166 Ry
     estimated scf accuracy    <       0.00000216 Ry

     iteration # 40     ecut=    30.00 Ry     beta= 0.50
     Davidson diagonalization with overlap
     ethr =  4.44E-10,  avg # of iterations =  2.0

     total cpu time spent up to now is        8.6 secs

     total energy              =    -501.39576160 Ry
     estimated scf accuracy    <       0.00000169 Ry

     iteration # 41     ecut=    30.00 Ry     beta= 0.50
     Davidson diagonalization with overlap
     ethr =  4.44E-10,  avg # of iterations =  1.0

     total cpu time spent up to now is        8.7 secs

     total energy              =    -501.39576161 Ry
     estimated scf accuracy    <       0.00000138 Ry

     iteration # 42     ecut=    30.00 Ry     beta= 0.50
     Davidson diagonalization with overlap
     ethr =  4.44E-10,  avg # of iterations =  3.0

     total cpu time spent up to now is        8.8 secs

     total energy              =    -501.39576158 Ry
     estimated scf accuracy    <       0.00000125 Ry

     iteration # 43     ecut=    30.00 Ry     beta= 0.50
     Davidson diagonalization with overlap
     ethr =  4.44E-10,  avg # of iterations =  2.0

     total cpu time spent up to now is        8.8 secs

     End of self-consistent calculation

          k = 0.0000 0.0000 0.0000 ( 11492 PWs)   bands (ev):

    -5.4145  -4.5425  -4.4031  -4.3706  -4.2287  -4.0652  -3.9029  -3.4978
    -3.4014  -3.3239  -3.2414  -3.1851  -3.0749  -3.0642  -2.9626  -2.8670
    -2.7864  -2.7194  -2.5024  -2.2044  -2.1214  -1.9937  -1.9739  -1.7495
    -1.6913  -1.5523  -1.3243  -1.0951  -0.9390  -0.8259  -0.7136  -0.6202
    -0.5721  -0.2754  -0.1901  -0.1015  -0.0684   0.0294   0.1135   0.1854
     0.2704   0.2793   0.3588   0.4331   0.5778   0.6457   0.7076   0.8433
     0.8864   0.9563   0.9758   1.1630   1.2578   1.2795   1.3950   1.4690
     1.5658   1.6920   1.8008   1.9589   2.0498   2.0602   2.2696   2.3727
     2.4350   2.4823   2.5229   2.6141   2.7171   2.8001   2.8743   2.9224
     2.9974   3.0882   3.1215   3.1975   3.2962   3.3342   3.5153   3.6452
     3.8000   3.9518   4.1587   4.2014   4.2580   4.2897   4.3581   4.5109
     4.5964   4.6056   4.6854   4.8074   4.8600   4.9399   4.9803   5.0567
     5.1388   5.1831   5.2247   5.2473   5.3619   5.4485   5.5331   5.5391
     5.6289   5.6350   5.7632   5.7704   5.8239   5.9012   5.9444   5.9496
     6.0079   6.1072   6.1545   6.1915   6.2653   6.3332   6.3969   6.4621
     6.4800   6.5172   6.6151   6.6427   6.7556   6.8179   6.9023   6.9523

     highest occupied level (ev):     6.9523

!    total energy              =    -501.39576089 Ry
     estimated scf accuracy    <       0.00000100 Ry

     The total energy is the sum of the following terms:
     one-electron contribution =     184.91929825 Ry
     hartree contribution      =      24.10126755 Ry
     xc contribution           =    -150.34427907 Ry
     ewald contribution        =    -560.07204762 Ry

     convergence has been achieved in  43 iterations

     Forces acting on atoms (cartesian axes, Ry/au):

     atom    1 type  1   force =    -0.01165762    0.02898168   -0.02842797
     atom    2 type  1   force =    -0.02418890   -0.01557136   -0.00437307
     atom    3 type  1   force =     0.03780365   -0.00685491   -0.01276247
     atom    4 type  1   force =     0.00870109    0.01450208   -0.01179201
     atom    5 type  1   force =    -0.02396204   -0.00213215    0.01479856
     atom    6 type  1   force =    -0.00918766   -0.00131257    0.01467858
     atom    7 type  1   force =     0.00147415    0.02160175   -0.00530458
     atom    8 type  1   force =    -0.00774782   -0.00676072    0.00037351
     atom    9 type  1   force =    -0.00088950   -0.00186448   -0.00896462
     atom   10 type  1   force =    -0.00839117   -0.00724180   -0.01391360
     atom   11 type  1   force =     0.00069703    0.01408570    0.01246467
     atom   12 type  1   force =     0.02600548   -0.02251323   -0.00044940
     atom   13 type  1   force =     0.00512397   -0.01373927   -0.00378816
     atom   14 type  1   force =     0.00841727   -0.00896942   -0.00625354
     atom   15 type  1   force =    -0.00870889    0.01843029    0.02277360
     atom   16 type  1   force =     0.00512434    0.01474327   -0.01666016
     atom   17 type  1   force =    -0.00853713    0.00176640   -0.01668053
     atom   18 type  1   force =    -0.03146511   -0.02450548    0.00478398
     atom   19 type  1   force =    -0.02139910    0.01532943    0.03172846
     atom   20 type  1   force =     0.02298317   -0.04409820   -0.00097428
     atom   21 type  1   force =    -0.00261251    0.00008789   -0.01763634
     atom   22 type  1   force =     0.03321114    0.03076793    0.00844007
     atom   23 type  1   force =     0.00734510    0.02888195    0.01056952
     atom   24 type  1   force =    -0.00735230   -0.01040435    0.01918371
     atom   25 type  1   force =    -0.04101998   -0.01139716    0.01120230
     atom   26 type  1   force =    -0.08690437    0.04789639   -0.00358063
     atom   27 type  1   force =     0.01299996    0.01118051    0.04236845
     atom   28 type  1   force =     0.01788071   -0.07719790    0.02129549
     atom   29 type  1   force =     0.04237157    0.03194848    0.01476661
     atom   30 type  1   force =     0.01247868    0.03442079    0.00479383
     atom   31 type  1   force =     0.01515154    0.01999643   -0.02606832
     atom   32 type  1   force =     0.01860082   -0.02949969   -0.02327354
     atom   33 type  1   force =     0.01319913   -0.01758281   -0.01113535
     atom   34 type  1   force =     0.01243689   -0.01137151    0.00465442
     atom   35 type  1   force =    -0.03249576    0.01294671    0.02150041
     atom   36 type  1   force =    -0.00114644   -0.00422274    0.00641106
     atom   37 type  1   force =    -0.02412835   -0.00892294    0.01231619
     atom   38 type  1   force =    -0.00778272   -0.01610049    0.04224251
     atom   39 type  1   force =    -0.01068526    0.01795553   -0.00624621
     atom   40 type  1   force =    -0.03654092    0.00768226   -0.02918562
     atom   41 type  1   force =    -0.02051532    0.00056957    0.01055150
     atom   42 type  1   force =     0.00649548    0.02474220   -0.01558108
     atom   43 type  1   force =     0.03783142   -0.02137616   -0.00165111
     atom   44 type  1   force =     0.06782012   -0.02179374   -0.04267526
     atom   45 type  1   force =     0.00080436    0.04147572   -0.01012244
     atom   46 type  1   force =     0.00184412   -0.00628048    0.02066232
     atom   47 type  1   force =    -0.02957274    0.04416200    0.04738046
     atom   48 type  1   force =     0.00203921   -0.03788607   -0.01475440
     atom   49 type  1   force =     0.02434905   -0.00752660   -0.02574290
     atom   50 type  1   force =     0.01119790   -0.01460440    0.02165946
     atom   51 type  1   force =    -0.04644187    0.03181860   -0.00806504
     atom   52 type  1   force =    -0.01249902   -0.02695941    0.04638354
     atom   53 type  1   force =     0.00555987   -0.00183214   -0.01070171
     atom   54 type  1   force =    -0.00922650   -0.00738620    0.00996574
     atom   55 type  1   force =    -0.00517351   -0.00848640   -0.00982248
     atom   56 type  1   force =     0.00340178   -0.00609969    0.00337925
     atom   57 type  1   force =    -0.03241471    0.01335215   -0.01290767
     atom   58 type  1   force =     0.00997607    0.00613983    0.01769139
     atom   59 type  1   force =     0.07379911   -0.07467910   -0.03793939
     atom   60 type  1   force =    -0.01639295    0.01582246    0.02229035
     atom   61 type  1   force =    -0.00241369    0.02924354   -0.02849872
     atom   62 type  1   force =     0.01528889    0.00675066   -0.00131285
     atom   63 type  1   force =     0.02037424   -0.00862737   -0.00350079
     atom   64 type  1   force =    -0.00133345   -0.00148123   -0.05056369

     Total force =     0.324519     Total SCF correction =     0.001229


     Computing stress (Cartesian axis) and pressure

          total   stress  (Ry/bohr**3)                   (kbar)     P=      -43.41
  -0.00016127  -0.00008840   0.00004433          -23.72      -13.00        6.52
  -0.00008840  -0.00032919   0.00005372          -13.00      -48.43        7.90
   0.00004433   0.00005372  -0.00039475            6.52        7.90      -58.07

 
     init_run     :      0.98s CPU      4.25s WALL (       1 calls)
     electrons    :      4.21s CPU      4.53s WALL (       1 calls)
     forces       :      0.03s CPU      0.03s WALL (       1 calls)
     stress       :      0.12s CPU      0.13s WALL (       1 calls)

     Called by init_run:
     wfcinit      :      0.46s CPU      3.59s WALL (       1 calls)
                                        3.59s GPU  (       1 calls)
     potinit      :      0.05s CPU      0.14s WALL (       1 calls)
     hinit0       :      0.45s CPU      0.47s WALL (       1 calls)

     Called by electrons:
     c_bands      :      2.90s CPU      3.07s WALL (      44 calls)
     sum_band     :      0.61s CPU      0.71s WALL (      44 calls)
     v_of_rho     :      0.27s CPU      0.37s WALL (      44 calls)
     mix_rho      :      0.36s CPU      0.39s WALL (      44 calls)

     Called by c_bands:
     init_us_2    :      0.11s CPU      0.12s WALL (      89 calls)
     init_us_2:gp :      0.11s CPU      0.12s WALL (      89 calls)
     regterg      :      2.59s CPU      2.74s WALL (      44 calls)

     Called by *egterg:
     rdiaghg      :      1.28s CPU      1.96s WALL (     416 calls)
                                        1.90s GPU  (     416 calls)
     h_psi        :      1.38s CPU      3.95s WALL (     418 calls)
                                        3.94s GPU  (     418 calls)
     g_psi        :      0.00s CPU      0.01s WALL (     373 calls)
                                        0.01s GPU  (     373 calls)

     Called by h_psi:
     h_psi:calbec :      0.52s CPU      2.97s WALL (     418 calls)
                                        2.97s GPU  (     418 calls)
     vloc_psi     :      0.65s CPU      0.75s WALL (     418 calls)
                                        0.74s GPU  (     418 calls)
     add_vuspsi   :      0.16s CPU      0.20s WALL (     418 calls)
                                        0.20s GPU  (     418 calls)

     General routines
     calbec       :      0.52s CPU      2.97s WALL (     423 calls)
     fft          :      0.67s CPU      0.80s WALL (     359 calls)
                                        0.14s GPU  (     226 calls)
     ffts         :      0.07s CPU      0.08s WALL (      44 calls)
     fftw         :      0.78s CPU      1.03s WALL (    4248 calls)
                                        0.90s GPU  (    4248 calls)
 
     Parallel routines
 
     PWSCF        :      5.38s CPU      9.02s WALL

 
   This run was terminated on:  15:24:25   9May2023            

=------------------------------------------------------------------------------=
   JOB DONE.
=------------------------------------------------------------------------------=
