
     Program PWSCF v.7.1 starts on  9May2023 at 15:10:22 

     This program is part of the open-source Quantum ESPRESSO suite
     for quantum simulation of materials; please cite
         "P. Giannozzi et al., J. Phys.:Condens. Matter 21 395502 (2009);
         "P. Giannozzi et al., J. Phys.:Condens. Matter 29 465901 (2017);
         "P. Giannozzi et al., J. Chem. Phys. 152 154105 (2020);
          URL http://www.quantum-espresso.org", 
     in publications or presentations arising from this work. More details at
     http://www.quantum-espresso.org/quote

     Parallel version (MPI & OpenMP), running on       4 processor cores
     Number of MPI processes:                 4
     Threads/MPI process:                     1

     MPI processes distributed on     1 nodes
     71616 MiB available memory on the printing compute node when the environment starts
 
     Reading input from pw-si-28.in
Warning: card &CELL ignored
Warning: card / ignored

     Current dimensions of program PWSCF are:
     Max number of different atomic species (ntypx) = 10
     Max number of k-points (npk) =  40000
     Max angular momentum in pseudopotentials (lmaxx) =  4

     IMPORTANT: XC functional enforced from input :
     Exchange-correlation= PBE
                           (   1   4   3   4   0   0   0)
     Any further DFT definition will be discarded
     Please, verify this is what you really want


     gamma-point specific algorithms are used
 
     K-points division:     npool     =       2
     R & G space division:  proc/nbgrp/npool/nimage =       2
     Subspace diagonalization in iterative solution of the eigenvalue problem:
     a serial algorithm will be used

     Message from routine divide_et_impera:
     suboptimal parallelization: some nodes have no k-points
 
     Parallelization info
     --------------------
     sticks:   dense  smooth     PW     G-vecs:    dense   smooth      PW
     Min        1942    1942    516                90833    90833   12416
     Max        1943    1943    517                90834    90834   12421
     Sum        3885    3885   1033               181667   181667   24837
 
     Using Slab Decomposition
 


     bravais-lattice index     =            0
     lattice parameter (alat)  =      20.1566  a.u.
     unit-cell volume          =    8189.4283 (a.u.)^3
     number of atoms/cell      =           64
     number of atomic types    =            1
     number of electrons       =       256.00
     number of Kohn-Sham states=          128
     kinetic-energy cutoff     =      30.0000  Ry
     charge density cutoff     =     120.0000  Ry
     scf convergence threshold =      1.0E-06
     mixing beta               =       0.5000
     number of iterations used =            8  plain     mixing
     Exchange-correlation= PBE
                           (   1   4   3   4   0   0   0)

     GPU acceleration is ACTIVE.
     GPU-aware MPI enabled

     Message from routine print_cuda_info:
     High GPU oversubscription detected. Are you sure this is what you want?

     celldm(1)=  20.156627  celldm(2)=   0.000000  celldm(3)=   0.000000
     celldm(4)=   0.000000  celldm(5)=   0.000000  celldm(6)=   0.000000

     crystal axes: (cart. coord. in units of alat)
               a(1) = (   1.000000   0.000000   0.000000 )  
               a(2) = (   0.000000   1.000000   0.000000 )  
               a(3) = (   0.000000   0.000000   1.000000 )  

     reciprocal axes: (cart. coord. in units 2 pi/alat)
               b(1) = (  1.000000  0.000000  0.000000 )  
               b(2) = (  0.000000  1.000000  0.000000 )  
               b(3) = (  0.000000  0.000000  1.000000 )  


     PseudoPot. # 1 for Si read from file:
     /home/ppiaggi/pseudos/Si_ONCV_PBE_sr.upf
     MD5 check sum: 8553c464762ac42b85b1eed164b4d029
     Pseudo is Norm-conserving, Zval =  4.0
     Generated using ONCVPSP code by D. R. Hamann
     Using radial grid of 1510 points,  4 beta functions with: 
                l(1) =   0
                l(2) =   0
                l(3) =   1
                l(4) =   1

     atomic species   valence    mass     pseudopotential
        Si             4.00    28.08500     Si( 1.00)

     No symmetry found



   Cartesian axes

     site n.     atom                  positions (alat units)
         1           Si  tau(   1) = (   0.7301370   0.0397907   0.4073910  )
         2           Si  tau(   2) = (   0.8714080   0.5063850   0.6019870  )
         3           Si  tau(   3) = (   0.1260800   0.0239734   0.9940940  )
         4           Si  tau(   4) = (   0.0628938   0.8142640   0.6254750  )
         5           Si  tau(   5) = (   0.3266810   0.1684340   0.4939150  )
         6           Si  tau(   6) = (   0.4599830   0.8742180   0.9675340  )
         7           Si  tau(   7) = (   0.6507000   0.8669430   0.6023780  )
         8           Si  tau(   8) = (   0.5836800   0.2075000   0.7278390  )
         9           Si  tau(   9) = (   0.5319240   0.2728440   0.1777920  )
        10           Si  tau(  10) = (   0.9326640   0.2520300   0.8401720  )
        11           Si  tau(  11) = (   0.3672450   0.3957150   0.3930410  )
        12           Si  tau(  12) = (   0.1240000   0.4812010   0.7258970  )
        13           Si  tau(  13) = (   0.6939350   0.5253910   0.3794610  )
        14           Si  tau(  14) = (   0.8860020   0.4014500   0.2962990  )
        15           Si  tau(  15) = (   0.3508650   0.3282680   0.9063310  )
        16           Si  tau(  16) = (   0.1472390   0.2540940   0.7544760  )
        17           Si  tau(  17) = (   0.9295660   0.1464650   0.0642009  )
        18           Si  tau(  18) = (   0.9155390   0.4789950   0.8477910  )
        19           Si  tau(  19) = (   0.6400720   0.6322130   0.1046370  )
        20           Si  tau(  20) = (   0.4921710   0.5042870   0.2093340  )
        21           Si  tau(  21) = (   0.1010780   0.9307010   0.3135420  )
        22           Si  tau(  22) = (   0.0367068   0.6003700   0.9788290  )
        23           Si  tau(  23) = (   0.5192400   0.0468994   0.5798830  )
        24           Si  tau(  24) = (   0.0834306   0.1647160   0.5503730  )
        25           Si  tau(  25) = (   0.8335390   0.8694420   0.7380940  )
        26           Si  tau(  26) = (   0.5713510   0.7505660   0.7915930  )
        27           Si  tau(  27) = (   0.3196300   0.8331470   0.1465450  )
        28           Si  tau(  28) = (   0.9067900   0.0176806   0.5357080  )
        29           Si  tau(  29) = (   0.3149720   0.0463189   0.3055930  )
        30           Si  tau(  30) = (   0.6005260   0.3287810   0.9830560  )
        31           Si  tau(  31) = (   0.8008810   0.4032910   0.0620951  )
        32           Si  tau(  32) = (   0.0453839   0.3637780   0.4776590  )
        33           Si  tau(  33) = (   0.1189420   0.6434190   0.2904080  )
        34           Si  tau(  34) = (   0.4088870   0.3639610   0.6658740  )
        35           Si  tau(  35) = (   0.0946752   0.4576700   0.1871600  )
        36           Si  tau(  36) = (   0.2365220   0.2830900   0.2302650  )
        37           Si  tau(  37) = (   0.6154800   0.5218060   0.6164960  )
        38           Si  tau(  38) = (   0.6328070   0.3060580   0.4894430  )
        39           Si  tau(  39) = (   0.5212700   0.9392350   0.3015540  )
        40           Si  tau(  40) = (   0.3094940   0.4948210   0.0569850  )
        41           Si  tau(  41) = (   0.7099720   0.0954391   0.0391285  )
        42           Si  tau(  42) = (   0.8646220   0.6214570   0.1642600  )
        43           Si  tau(  43) = (   0.2262690   0.9079530   0.5422340  )
        44           Si  tau(  44) = (   0.3773880   0.7391250   0.5367690  )
        45           Si  tau(  45) = (   0.8386330   0.7714170   0.9392680  )
        46           Si  tau(  46) = (   0.3296150   0.1663910   0.0547717  )
        47           Si  tau(  47) = (   0.7406250   0.2301580   0.2637400  )
        48           Si  tau(  48) = (   0.7741530   0.0634706   0.7945550  )
        49           Si  tau(  49) = (   0.2070880   0.5355340   0.5024630  )
        50           Si  tau(  50) = (   0.3681140   0.6783790   0.2968510  )
        51           Si  tau(  51) = (   0.0093882   0.1597450   0.3137050  )
        52           Si  tau(  52) = (   0.0921964   0.8200530   0.1072130  )
        53           Si  tau(  53) = (   0.9720430   0.6786640   0.4636700  )
        54           Si  tau(  54) = (   0.3979060   0.6240850   0.7376030  )
        55           Si  tau(  55) = (   0.8433410   0.2659330   0.6108030  )
        56           Si  tau(  56) = (   0.8719500   0.9101400   0.1171700  )
        57           Si  tau(  57) = (   0.2818190   0.0445684   0.7410300  )
        58           Si  tau(  58) = (   0.6918930   0.5879070   0.8785280  )
        59           Si  tau(  59) = (   0.4706640   0.0698955   0.8870740  )
        60           Si  tau(  60) = (   0.2350340   0.6440420   0.8887480  )
        61           Si  tau(  61) = (   0.6167970   0.7452960   0.4329000  )
        62           Si  tau(  62) = (   0.1561030   0.8698030   0.8293220  )
        63           Si  tau(  63) = (   0.6177870   0.8676100   0.1233530  )
        64           Si  tau(  64) = (   0.8444350   0.8216390   0.3315350  )

     number of k points=     1
                       cart. coord. in units 2pi/alat
        k(    1) = (   0.0000000   0.0000000   0.0000000), wk =   2.0000000

     Dense  grid:    90834 G-vectors     FFT dimensions: (  72,  72,  72)

     Estimated max dynamical RAM per process >     133.81 MB

     Estimated total dynamical RAM >     513.07 MB

     Initial potential from superposition of free atoms

     starting charge     255.9608, renormalised to     256.0000
     Starting wfcs are  256 randomized atomic wfcs

     total cpu time spent up to now is        4.1 secs

     Self-consistent Calculation

     iteration #  1     ecut=    30.00 Ry     beta= 0.50
     Davidson diagonalization with overlap
     ethr =  1.00E-02,  avg # of iterations =  2.0

     Threshold (ethr) on eigenvalues was too large:
     Diagonalizing with lowered threshold

     Davidson diagonalization with overlap
     ethr =  3.65E-04,  avg # of iterations =  5.0

     total cpu time spent up to now is        4.2 secs

     total energy              =    -501.20866372 Ry
     estimated scf accuracy    <       1.16546104 Ry

     iteration #  2     ecut=    30.00 Ry     beta= 0.50
     Davidson diagonalization with overlap
     ethr =  4.55E-04,  avg # of iterations = 14.0

     total cpu time spent up to now is        4.4 secs

     total energy              =    -500.87508788 Ry
     estimated scf accuracy    <       3.84079942 Ry

     iteration #  3     ecut=    30.00 Ry     beta= 0.50
     Davidson diagonalization with overlap
     ethr =  4.55E-04,  avg # of iterations = 15.0

     total cpu time spent up to now is        4.5 secs

     total energy              =    -501.24052807 Ry
     estimated scf accuracy    <       2.08265586 Ry

     iteration #  4     ecut=    30.00 Ry     beta= 0.50
     Davidson diagonalization with overlap
     ethr =  4.55E-04,  avg # of iterations =  7.0

     total cpu time spent up to now is        4.6 secs

     total energy              =    -501.36921176 Ry
     estimated scf accuracy    <       0.44302831 Ry

     iteration #  5     ecut=    30.00 Ry     beta= 0.50
     Davidson diagonalization with overlap
     ethr =  1.73E-04,  avg # of iterations = 15.0

     total cpu time spent up to now is        4.8 secs

     total energy              =    -501.41291376 Ry
     estimated scf accuracy    <       0.39416840 Ry

     iteration #  6     ecut=    30.00 Ry     beta= 0.50
     Davidson diagonalization with overlap
     ethr =  1.54E-04,  avg # of iterations =  3.0

     total cpu time spent up to now is        4.9 secs

     total energy              =    -501.44706850 Ry
     estimated scf accuracy    <       0.04525445 Ry

     iteration #  7     ecut=    30.00 Ry     beta= 0.50
     Davidson diagonalization with overlap
     c_bands:  1 eigenvalues not converged
     ethr =  1.77E-05,  avg # of iterations = 20.0

     total cpu time spent up to now is        5.0 secs

     total energy              =    -501.45879169 Ry
     estimated scf accuracy    <       0.07749460 Ry

     iteration #  8     ecut=    30.00 Ry     beta= 0.50
     Davidson diagonalization with overlap
     ethr =  1.77E-05,  avg # of iterations =  6.0

     total cpu time spent up to now is        5.1 secs

     total energy              =    -501.45691743 Ry
     estimated scf accuracy    <       0.03880454 Ry

     iteration #  9     ecut=    30.00 Ry     beta= 0.50
     Davidson diagonalization with overlap
     ethr =  1.52E-05,  avg # of iterations =  3.0

     total cpu time spent up to now is        5.2 secs

     total energy              =    -501.45659770 Ry
     estimated scf accuracy    <       0.01469092 Ry

     iteration # 10     ecut=    30.00 Ry     beta= 0.50
     Davidson diagonalization with overlap
     ethr =  5.74E-06,  avg # of iterations = 19.0

     total cpu time spent up to now is        5.3 secs

     total energy              =    -501.46102131 Ry
     estimated scf accuracy    <       0.03559012 Ry

     iteration # 11     ecut=    30.00 Ry     beta= 0.50
     Davidson diagonalization with overlap
     ethr =  5.74E-06,  avg # of iterations =  3.0

     total cpu time spent up to now is        5.4 secs

     total energy              =    -501.45974401 Ry
     estimated scf accuracy    <       0.02766182 Ry

     iteration # 12     ecut=    30.00 Ry     beta= 0.50
     Davidson diagonalization with overlap
     ethr =  5.74E-06,  avg # of iterations =  3.0

     total cpu time spent up to now is        5.5 secs

     total energy              =    -501.45845607 Ry
     estimated scf accuracy    <       0.01783346 Ry

     iteration # 13     ecut=    30.00 Ry     beta= 0.50
     Davidson diagonalization with overlap
     c_bands:  1 eigenvalues not converged
     ethr =  5.74E-06,  avg # of iterations = 20.0

     total cpu time spent up to now is        5.6 secs

     total energy              =    -501.46048018 Ry
     estimated scf accuracy    <       0.00297625 Ry

     iteration # 14     ecut=    30.00 Ry     beta= 0.50
     Davidson diagonalization with overlap
     ethr =  1.16E-06,  avg # of iterations = 14.0

     total cpu time spent up to now is        5.8 secs

     total energy              =    -501.46067407 Ry
     estimated scf accuracy    <       0.00313951 Ry

     iteration # 15     ecut=    30.00 Ry     beta= 0.50
     Davidson diagonalization with overlap
     ethr =  1.16E-06,  avg # of iterations =  2.0

     total cpu time spent up to now is        5.8 secs

     total energy              =    -501.46051546 Ry
     estimated scf accuracy    <       0.00206763 Ry

     iteration # 16     ecut=    30.00 Ry     beta= 0.50
     Davidson diagonalization with overlap
     ethr =  8.08E-07,  avg # of iterations =  8.0

     total cpu time spent up to now is        5.9 secs

     total energy              =    -501.46051129 Ry
     estimated scf accuracy    <       0.00096475 Ry

     iteration # 17     ecut=    30.00 Ry     beta= 0.50
     Davidson diagonalization with overlap
     c_bands:  1 eigenvalues not converged
     ethr =  3.77E-07,  avg # of iterations = 20.0

     total cpu time spent up to now is        6.1 secs

     total energy              =    -501.46083831 Ry
     estimated scf accuracy    <       0.00378305 Ry

     iteration # 18     ecut=    30.00 Ry     beta= 0.50
     Davidson diagonalization with overlap
     ethr =  3.77E-07,  avg # of iterations =  1.0

     total cpu time spent up to now is        6.2 secs

     total energy              =    -501.46054897 Ry
     estimated scf accuracy    <       0.00373943 Ry

     iteration # 19     ecut=    30.00 Ry     beta= 0.50
     Davidson diagonalization with overlap
     c_bands:  1 eigenvalues not converged
     ethr =  3.77E-07,  avg # of iterations = 20.0

     total cpu time spent up to now is        6.3 secs

     total energy              =    -501.46066879 Ry
     estimated scf accuracy    <       0.00084575 Ry

     iteration # 20     ecut=    30.00 Ry     beta= 0.50
     Davidson diagonalization with overlap
     ethr =  3.30E-07,  avg # of iterations = 12.0

     total cpu time spent up to now is        6.4 secs

     total energy              =    -501.46067993 Ry
     estimated scf accuracy    <       0.00069111 Ry

     iteration # 21     ecut=    30.00 Ry     beta= 0.50
     Davidson diagonalization with overlap
     ethr =  2.70E-07,  avg # of iterations =  1.0

     total cpu time spent up to now is        6.5 secs

     total energy              =    -501.46065982 Ry
     estimated scf accuracy    <       0.00056625 Ry

     iteration # 22     ecut=    30.00 Ry     beta= 0.50
     Davidson diagonalization with overlap
     ethr =  2.21E-07,  avg # of iterations =  2.0

     total cpu time spent up to now is        6.6 secs

     total energy              =    -501.46063101 Ry
     estimated scf accuracy    <       0.00039112 Ry

     iteration # 23     ecut=    30.00 Ry     beta= 0.50
     Davidson diagonalization with overlap
     c_bands:  1 eigenvalues not converged
     ethr =  1.53E-07,  avg # of iterations = 20.0

     total cpu time spent up to now is        6.7 secs

     total energy              =    -501.46070308 Ry
     estimated scf accuracy    <       0.00022408 Ry

     iteration # 24     ecut=    30.00 Ry     beta= 0.50
     Davidson diagonalization with overlap
     ethr =  8.75E-08,  avg # of iterations = 14.0

     total cpu time spent up to now is        6.8 secs

     total energy              =    -501.46070923 Ry
     estimated scf accuracy    <       0.00023196 Ry

     iteration # 25     ecut=    30.00 Ry     beta= 0.50
     Davidson diagonalization with overlap
     ethr =  8.75E-08,  avg # of iterations =  1.0

     total cpu time spent up to now is        6.9 secs

     total energy              =    -501.46069747 Ry
     estimated scf accuracy    <       0.00023152 Ry

     iteration # 26     ecut=    30.00 Ry     beta= 0.50
     Davidson diagonalization with overlap
     ethr =  8.75E-08,  avg # of iterations =  1.0

     total cpu time spent up to now is        7.0 secs

     total energy              =    -501.46068752 Ry
     estimated scf accuracy    <       0.00019214 Ry

     iteration # 27     ecut=    30.00 Ry     beta= 0.50
     Davidson diagonalization with overlap
     ethr =  7.51E-08,  avg # of iterations =  2.0

     total cpu time spent up to now is        7.0 secs

     total energy              =    -501.46068396 Ry
     estimated scf accuracy    <       0.00014176 Ry

     iteration # 28     ecut=    30.00 Ry     beta= 0.50
     Davidson diagonalization with overlap
     ethr =  5.54E-08,  avg # of iterations =  2.0

     total cpu time spent up to now is        7.1 secs

     total energy              =    -501.46068562 Ry
     estimated scf accuracy    <       0.00011252 Ry

     iteration # 29     ecut=    30.00 Ry     beta= 0.50
     Davidson diagonalization with overlap
     ethr =  4.40E-08,  avg # of iterations =  2.0

     total cpu time spent up to now is        7.2 secs

     total energy              =    -501.46068663 Ry
     estimated scf accuracy    <       0.00010559 Ry

     iteration # 30     ecut=    30.00 Ry     beta= 0.50
     Davidson diagonalization with overlap
     ethr =  4.12E-08,  avg # of iterations =  2.0

     total cpu time spent up to now is        7.3 secs

     total energy              =    -501.46068773 Ry
     estimated scf accuracy    <       0.00010004 Ry

     iteration # 31     ecut=    30.00 Ry     beta= 0.50
     Davidson diagonalization with overlap
     ethr =  3.91E-08,  avg # of iterations =  2.0

     total cpu time spent up to now is        7.3 secs

     total energy              =    -501.46066127 Ry
     estimated scf accuracy    <       0.00009744 Ry

     iteration # 32     ecut=    30.00 Ry     beta= 0.50
     Davidson diagonalization with overlap
     c_bands:  1 eigenvalues not converged
     ethr =  3.81E-08,  avg # of iterations = 20.0

     total cpu time spent up to now is        7.5 secs

     total energy              =    -501.46066945 Ry
     estimated scf accuracy    <       0.00211141 Ry

     iteration # 33     ecut=    30.00 Ry     beta= 0.50
     Davidson diagonalization with overlap
     c_bands:  1 eigenvalues not converged
     ethr =  3.81E-08,  avg # of iterations = 20.0

     total cpu time spent up to now is        7.7 secs

     total energy              =    -501.46068517 Ry
     estimated scf accuracy    <       0.00102384 Ry

     iteration # 34     ecut=    30.00 Ry     beta= 0.50
     Davidson diagonalization with overlap
     c_bands:  1 eigenvalues not converged
     ethr =  3.81E-08,  avg # of iterations = 20.0

     total cpu time spent up to now is        7.8 secs

     total energy              =    -501.46068959 Ry
     estimated scf accuracy    <       0.00055748 Ry

     iteration # 35     ecut=    30.00 Ry     beta= 0.50
     Davidson diagonalization with overlap
     c_bands:  1 eigenvalues not converged
     ethr =  3.81E-08,  avg # of iterations = 20.0

     total cpu time spent up to now is        8.0 secs

     total energy              =    -501.46069074 Ry
     estimated scf accuracy    <       0.00034932 Ry

     iteration # 36     ecut=    30.00 Ry     beta= 0.50
     Davidson diagonalization with overlap
     c_bands:  1 eigenvalues not converged
     ethr =  3.81E-08,  avg # of iterations = 20.0

     total cpu time spent up to now is        8.1 secs

     total energy              =    -501.46069164 Ry
     estimated scf accuracy    <       0.00019705 Ry

     iteration # 37     ecut=    30.00 Ry     beta= 0.50
     Davidson diagonalization with overlap
     ethr =  3.81E-08,  avg # of iterations =  2.0

     total cpu time spent up to now is        8.2 secs

     total energy              =    -501.46068961 Ry
     estimated scf accuracy    <       0.00017333 Ry

     iteration # 38     ecut=    30.00 Ry     beta= 0.50
     Davidson diagonalization with overlap
     ethr =  3.81E-08,  avg # of iterations =  1.0

     total cpu time spent up to now is        8.2 secs

     total energy              =    -501.46068904 Ry
     estimated scf accuracy    <       0.00015340 Ry

     iteration # 39     ecut=    30.00 Ry     beta= 0.50
     Davidson diagonalization with overlap
     ethr =  3.81E-08,  avg # of iterations =  2.0

     total cpu time spent up to now is        8.3 secs

     total energy              =    -501.46068441 Ry
     estimated scf accuracy    <       0.00013835 Ry

     iteration # 40     ecut=    30.00 Ry     beta= 0.50
     Davidson diagonalization with overlap
     c_bands:  1 eigenvalues not converged
     ethr =  3.81E-08,  avg # of iterations = 20.0

     total cpu time spent up to now is        8.5 secs

     total energy              =    -501.46069298 Ry
     estimated scf accuracy    <       0.00001466 Ry

     iteration # 41     ecut=    30.00 Ry     beta= 0.50
     Davidson diagonalization with overlap
     c_bands:  2 eigenvalues not converged
     ethr =  5.73E-09,  avg # of iterations = 20.0

     total cpu time spent up to now is        8.6 secs

     total energy              =    -501.46070910 Ry
     estimated scf accuracy    <       0.00018704 Ry

     iteration # 42     ecut=    30.00 Ry     beta= 0.50
     Davidson diagonalization with overlap
     ethr =  5.73E-09,  avg # of iterations = 19.0

     total cpu time spent up to now is        8.8 secs

     total energy              =    -501.46070806 Ry
     estimated scf accuracy    <       0.00021711 Ry

     iteration # 43     ecut=    30.00 Ry     beta= 0.50
     Davidson diagonalization with overlap
     ethr =  5.73E-09,  avg # of iterations =  2.0

     total cpu time spent up to now is        8.8 secs

     total energy              =    -501.46070215 Ry
     estimated scf accuracy    <       0.00020758 Ry

     iteration # 44     ecut=    30.00 Ry     beta= 0.50
     Davidson diagonalization with overlap
     ethr =  5.73E-09,  avg # of iterations =  2.0

     total cpu time spent up to now is        8.9 secs

     total energy              =    -501.46070085 Ry
     estimated scf accuracy    <       0.00018228 Ry

     iteration # 45     ecut=    30.00 Ry     beta= 0.50
     Davidson diagonalization with overlap
     ethr =  5.73E-09,  avg # of iterations =  1.0

     total cpu time spent up to now is        9.0 secs

     total energy              =    -501.46069456 Ry
     estimated scf accuracy    <       0.00017363 Ry

     iteration # 46     ecut=    30.00 Ry     beta= 0.50
     Davidson diagonalization with overlap
     c_bands:  1 eigenvalues not converged
     ethr =  5.73E-09,  avg # of iterations = 20.0

     total cpu time spent up to now is        9.1 secs

     total energy              =    -501.46069684 Ry
     estimated scf accuracy    <       0.00003555 Ry

     iteration # 47     ecut=    30.00 Ry     beta= 0.50
     Davidson diagonalization with overlap
     ethr =  5.73E-09,  avg # of iterations = 17.0

     total cpu time spent up to now is        9.3 secs

     total energy              =    -501.46069741 Ry
     estimated scf accuracy    <       0.00002790 Ry

     iteration # 48     ecut=    30.00 Ry     beta= 0.50
     Davidson diagonalization with overlap
     ethr =  5.73E-09,  avg # of iterations =  2.0

     total cpu time spent up to now is        9.3 secs

     total energy              =    -501.46069655 Ry
     estimated scf accuracy    <       0.00002518 Ry

     iteration # 49     ecut=    30.00 Ry     beta= 0.50
     Davidson diagonalization with overlap
     c_bands:  1 eigenvalues not converged
     ethr =  5.73E-09,  avg # of iterations = 20.0

     total cpu time spent up to now is        9.5 secs

     total energy              =    -501.46069721 Ry
     estimated scf accuracy    <       0.00002089 Ry

     iteration # 50     ecut=    30.00 Ry     beta= 0.50
     Davidson diagonalization with overlap
     ethr =  5.73E-09,  avg # of iterations =  8.0

     total cpu time spent up to now is        9.6 secs

     total energy              =    -501.46069630 Ry
     estimated scf accuracy    <       0.00002047 Ry

     iteration # 51     ecut=    30.00 Ry     beta= 0.50
     Davidson diagonalization with overlap
     ethr =  5.73E-09,  avg # of iterations =  3.0

     total cpu time spent up to now is        9.7 secs

     total energy              =    -501.46069660 Ry
     estimated scf accuracy    <       0.00001336 Ry

     iteration # 52     ecut=    30.00 Ry     beta= 0.50
     Davidson diagonalization with overlap
     ethr =  5.22E-09,  avg # of iterations =  1.0

     total cpu time spent up to now is        9.7 secs

     total energy              =    -501.46069643 Ry
     estimated scf accuracy    <       0.00001122 Ry

     iteration # 53     ecut=    30.00 Ry     beta= 0.50
     Davidson diagonalization with overlap
     ethr =  4.38E-09,  avg # of iterations =  2.0

     total cpu time spent up to now is        9.8 secs

     total energy              =    -501.46069633 Ry
     estimated scf accuracy    <       0.00000950 Ry

     iteration # 54     ecut=    30.00 Ry     beta= 0.50
     Davidson diagonalization with overlap
     ethr =  3.71E-09,  avg # of iterations =  2.0

     total cpu time spent up to now is        9.9 secs

     total energy              =    -501.46069380 Ry
     estimated scf accuracy    <       0.00000839 Ry

     iteration # 55     ecut=    30.00 Ry     beta= 0.50
     Davidson diagonalization with overlap
     c_bands:  1 eigenvalues not converged
     ethr =  3.28E-09,  avg # of iterations = 20.0

     total cpu time spent up to now is       10.0 secs

     total energy              =    -501.46069598 Ry
     estimated scf accuracy    <       0.00015255 Ry

     iteration # 56     ecut=    30.00 Ry     beta= 0.50
     Davidson diagonalization with overlap
     c_bands:  2 eigenvalues not converged
     ethr =  3.28E-09,  avg # of iterations = 20.0

     total cpu time spent up to now is       10.2 secs

     total energy              =    -501.46069631 Ry
     estimated scf accuracy    <       0.00005945 Ry

     iteration # 57     ecut=    30.00 Ry     beta= 0.50
     Davidson diagonalization with overlap
     c_bands:  1 eigenvalues not converged
     ethr =  3.28E-09,  avg # of iterations = 20.0

     total cpu time spent up to now is       10.3 secs

     total energy              =    -501.46069772 Ry
     estimated scf accuracy    <       0.00002731 Ry

     iteration # 58     ecut=    30.00 Ry     beta= 0.50
     Davidson diagonalization with overlap
     ethr =  3.28E-09,  avg # of iterations =  2.0

     total cpu time spent up to now is       10.4 secs

     total energy              =    -501.46069804 Ry
     estimated scf accuracy    <       0.00002734 Ry

     iteration # 59     ecut=    30.00 Ry     beta= 0.50
     Davidson diagonalization with overlap
     ethr =  3.28E-09,  avg # of iterations =  3.0

     total cpu time spent up to now is       10.5 secs

     total energy              =    -501.46069804 Ry
     estimated scf accuracy    <       0.00002876 Ry

     iteration # 60     ecut=    30.00 Ry     beta= 0.50
     Davidson diagonalization with overlap
     ethr =  3.28E-09,  avg # of iterations =  2.0

     total cpu time spent up to now is       10.6 secs

     total energy              =    -501.46069793 Ry
     estimated scf accuracy    <       0.00002842 Ry

     iteration # 61     ecut=    30.00 Ry     beta= 0.50
     Davidson diagonalization with overlap
     ethr =  3.28E-09,  avg # of iterations =  1.0

     total cpu time spent up to now is       10.6 secs

     total energy              =    -501.46069764 Ry
     estimated scf accuracy    <       0.00002767 Ry

     iteration # 62     ecut=    30.00 Ry     beta= 0.50
     Davidson diagonalization with overlap
     ethr =  3.28E-09,  avg # of iterations =  2.0

     total cpu time spent up to now is       10.7 secs

     total energy              =    -501.46069667 Ry
     estimated scf accuracy    <       0.00002661 Ry

     iteration # 63     ecut=    30.00 Ry     beta= 0.50
     Davidson diagonalization with overlap
     c_bands:  1 eigenvalues not converged
     ethr =  3.28E-09,  avg # of iterations = 20.0

     total cpu time spent up to now is       10.8 secs

     total energy              =    -501.46069653 Ry
     estimated scf accuracy    <       0.00001013 Ry

     iteration # 64     ecut=    30.00 Ry     beta= 0.50
     Davidson diagonalization with overlap
     c_bands:  1 eigenvalues not converged
     ethr =  3.28E-09,  avg # of iterations = 20.0

     total cpu time spent up to now is       11.0 secs

     total energy              =    -501.46069482 Ry
     estimated scf accuracy    <       0.00003523 Ry

     iteration # 65     ecut=    30.00 Ry     beta= 0.50
     Davidson diagonalization with overlap
     c_bands:  1 eigenvalues not converged
     ethr =  3.28E-09,  avg # of iterations = 20.0

     total cpu time spent up to now is       11.2 secs

     total energy              =    -501.46069659 Ry
     estimated scf accuracy    <       0.00003113 Ry

     iteration # 66     ecut=    30.00 Ry     beta= 0.50
     Davidson diagonalization with overlap
     ethr =  3.28E-09,  avg # of iterations = 16.0

     total cpu time spent up to now is       11.3 secs

     total energy              =    -501.46069721 Ry
     estimated scf accuracy    <       0.00000922 Ry

     iteration # 67     ecut=    30.00 Ry     beta= 0.50
     Davidson diagonalization with overlap
     ethr =  3.28E-09,  avg # of iterations =  3.0

     total cpu time spent up to now is       11.4 secs

     total energy              =    -501.46069725 Ry
     estimated scf accuracy    <       0.00000613 Ry

     iteration # 68     ecut=    30.00 Ry     beta= 0.50
     Davidson diagonalization with overlap
     ethr =  2.40E-09,  avg # of iterations =  2.0

     total cpu time spent up to now is       11.4 secs

     total energy              =    -501.46069728 Ry
     estimated scf accuracy    <       0.00000495 Ry

     iteration # 69     ecut=    30.00 Ry     beta= 0.50
     Davidson diagonalization with overlap
     ethr =  1.93E-09,  avg # of iterations =  2.0

     total cpu time spent up to now is       11.5 secs

     total energy              =    -501.46069731 Ry
     estimated scf accuracy    <       0.00000417 Ry

     iteration # 70     ecut=    30.00 Ry     beta= 0.50
     Davidson diagonalization with overlap
     ethr =  1.63E-09,  avg # of iterations =  2.0

     total cpu time spent up to now is       11.6 secs

     total energy              =    -501.46069738 Ry
     estimated scf accuracy    <       0.00000388 Ry

     iteration # 71     ecut=    30.00 Ry     beta= 0.50
     Davidson diagonalization with overlap
     c_bands:  2 eigenvalues not converged
     ethr =  1.51E-09,  avg # of iterations = 20.0

     total cpu time spent up to now is       11.7 secs

     total energy              =    -501.46069733 Ry
     estimated scf accuracy    <       0.00000139 Ry

     iteration # 72     ecut=    30.00 Ry     beta= 0.50
     Davidson diagonalization with overlap
     c_bands:  2 eigenvalues not converged
     ethr =  5.44E-10,  avg # of iterations = 20.0

     total cpu time spent up to now is       11.9 secs

     total energy              =    -501.46069784 Ry
     estimated scf accuracy    <       0.00000780 Ry

     iteration # 73     ecut=    30.00 Ry     beta= 0.50
     Davidson diagonalization with overlap
     ethr =  5.44E-10,  avg # of iterations = 20.0

     total cpu time spent up to now is       12.1 secs

     total energy              =    -501.46069771 Ry
     estimated scf accuracy    <       0.00000487 Ry

     iteration # 74     ecut=    30.00 Ry     beta= 0.50
     Davidson diagonalization with overlap
     c_bands:  2 eigenvalues not converged
     ethr =  5.44E-10,  avg # of iterations = 20.0

     total cpu time spent up to now is       12.2 secs

     total energy              =    -501.46069781 Ry
     estimated scf accuracy    <       0.00000235 Ry

     iteration # 75     ecut=    30.00 Ry     beta= 0.50
     Davidson diagonalization with overlap
     ethr =  5.44E-10,  avg # of iterations =  3.0

     total cpu time spent up to now is       12.3 secs

     total energy              =    -501.46069783 Ry
     estimated scf accuracy    <       0.00000180 Ry

     iteration # 76     ecut=    30.00 Ry     beta= 0.50
     Davidson diagonalization with overlap
     ethr =  5.44E-10,  avg # of iterations =  1.0

     total cpu time spent up to now is       12.4 secs

     total energy              =    -501.46069781 Ry
     estimated scf accuracy    <       0.00000168 Ry

     iteration # 77     ecut=    30.00 Ry     beta= 0.50
     Davidson diagonalization with overlap
     ethr =  5.44E-10,  avg # of iterations =  3.0

     total cpu time spent up to now is       12.4 secs

     total energy              =    -501.46069784 Ry
     estimated scf accuracy    <       0.00000160 Ry

     iteration # 78     ecut=    30.00 Ry     beta= 0.50
     Davidson diagonalization with overlap
     ethr =  5.44E-10,  avg # of iterations =  1.0

     total cpu time spent up to now is       12.5 secs

     total energy              =    -501.46069783 Ry
     estimated scf accuracy    <       0.00000149 Ry

     iteration # 79     ecut=    30.00 Ry     beta= 0.50
     Davidson diagonalization with overlap
     ethr =  5.44E-10,  avg # of iterations =  2.0

     total cpu time spent up to now is       12.6 secs

     total energy              =    -501.46069772 Ry
     estimated scf accuracy    <       0.00000133 Ry

     iteration # 80     ecut=    30.00 Ry     beta= 0.50
     Davidson diagonalization with overlap
     ethr =  5.19E-10,  avg # of iterations = 18.0

     total cpu time spent up to now is       12.7 secs

     total energy              =    -501.46069783 Ry
     estimated scf accuracy    <       0.00000233 Ry

     iteration # 81     ecut=    30.00 Ry     beta= 0.50
     Davidson diagonalization with overlap
     c_bands:  1 eigenvalues not converged
     ethr =  5.19E-10,  avg # of iterations = 20.0

     total cpu time spent up to now is       12.9 secs

     total energy              =    -501.46069761 Ry
     estimated scf accuracy    <       0.00000262 Ry

     iteration # 82     ecut=    30.00 Ry     beta= 0.50
     Davidson diagonalization with overlap
     c_bands:  1 eigenvalues not converged
     ethr =  5.19E-10,  avg # of iterations = 20.0

     total cpu time spent up to now is       13.1 secs

     total energy              =    -501.46069755 Ry
     estimated scf accuracy    <       0.00000157 Ry

     iteration # 83     ecut=    30.00 Ry     beta= 0.50
     Davidson diagonalization with overlap
     c_bands:  1 eigenvalues not converged
     ethr =  5.19E-10,  avg # of iterations = 20.0

     total cpu time spent up to now is       13.3 secs

     total energy              =    -501.46069767 Ry
     estimated scf accuracy    <       0.00000395 Ry

     iteration # 84     ecut=    30.00 Ry     beta= 0.50
     Davidson diagonalization with overlap
     ethr =  5.19E-10,  avg # of iterations = 11.0

     total cpu time spent up to now is       13.4 secs

     total energy              =    -501.46069768 Ry
     estimated scf accuracy    <       0.00000116 Ry

     iteration # 85     ecut=    30.00 Ry     beta= 0.50
     Davidson diagonalization with overlap
     ethr =  4.52E-10,  avg # of iterations =  6.0

     total cpu time spent up to now is       13.5 secs

     End of self-consistent calculation

          k = 0.0000 0.0000 0.0000 ( 11372 PWs)   bands (ev):

    -5.3529  -4.4069  -4.3035  -4.2135  -4.1458  -4.0082  -3.9639  -3.4188
    -3.2993  -3.2292  -3.1430  -3.0440  -2.9764  -2.9479  -2.8933  -2.8638
    -2.6841  -2.5858  -2.4847  -2.1643  -1.9214  -1.8316  -1.7420  -1.6673
    -1.5842  -1.5507  -1.4514  -1.0390  -0.8316  -0.7325  -0.6728  -0.4689
    -0.3633  -0.1314  -0.0469   0.0160   0.0960   0.1422   0.2402   0.2723
     0.4183   0.4668   0.5411   0.5977   0.6780   0.7396   0.8700   0.9520
     0.9829   1.0436   1.2287   1.2734   1.3471   1.4842   1.4902   1.5837
     1.7231   1.7401   1.7912   2.0019   2.1230   2.1776   2.3025   2.4207
     2.4784   2.5342   2.6799   2.7308   2.7499   2.7908   2.8995   2.9051
     3.0532   3.1157   3.1847   3.3101   3.4165   3.4822   3.6047   3.7550
     4.0009   4.0343   4.2179   4.2752   4.3650   4.4841   4.4963   4.5861
     4.6497   4.7675   4.7980   4.9489   5.0089   5.0685   5.1327   5.2276
     5.2810   5.3043   5.3594   5.4653   5.4953   5.5176   5.5620   5.6214
     5.6859   5.7097   5.7795   5.8651   5.8847   5.9756   6.0157   6.0546
     6.1039   6.1494   6.2125   6.2855   6.3204   6.4237   6.4938   6.5542
     6.5818   6.6314   6.7068   6.7697   6.8404   6.9194   6.9949   7.0129

     highest occupied level (ev):     7.0129

!    total energy              =    -501.46069757 Ry
     estimated scf accuracy    <       0.00000024 Ry

     The total energy is the sum of the following terms:
     one-electron contribution =     188.98454990 Ry
     hartree contribution      =      23.11039568 Ry
     xc contribution           =    -150.52048315 Ry
     ewald contribution        =    -563.03516001 Ry

     convergence has been achieved in  85 iterations

     Forces acting on atoms (cartesian axes, Ry/au):

     atom    1 type  1   force =    -0.01126219   -0.00157660   -0.01807692
     atom    2 type  1   force =     0.00604275    0.00197751   -0.00965477
     atom    3 type  1   force =    -0.00629886    0.01964610    0.01065664
     atom    4 type  1   force =    -0.08121556   -0.02191613    0.03971401
     atom    5 type  1   force =     0.00132473   -0.00169415    0.01135049
     atom    6 type  1   force =     0.01117308   -0.04006206   -0.00610463
     atom    7 type  1   force =    -0.00453231    0.01079657    0.06372533
     atom    8 type  1   force =     0.00885380   -0.03415541    0.02906260
     atom    9 type  1   force =    -0.01571449    0.00080024    0.01381009
     atom   10 type  1   force =    -0.00295706   -0.01066872   -0.02030748
     atom   11 type  1   force =    -0.00817241   -0.01447719    0.00618541
     atom   12 type  1   force =     0.00433285   -0.00811090   -0.01099971
     atom   13 type  1   force =    -0.00088297   -0.01247504   -0.00422864
     atom   14 type  1   force =     0.00302055    0.01498079   -0.00202142
     atom   15 type  1   force =     0.00378821    0.03262728   -0.01234313
     atom   16 type  1   force =     0.00506510    0.00228504    0.01831341
     atom   17 type  1   force =     0.01274510   -0.02589429    0.00200678
     atom   18 type  1   force =    -0.02889778   -0.00843587   -0.01363731
     atom   19 type  1   force =     0.04046154    0.02326503   -0.01992388
     atom   20 type  1   force =    -0.00883840   -0.01306368    0.01836730
     atom   21 type  1   force =     0.03001054    0.02869273    0.02100916
     atom   22 type  1   force =    -0.02664839    0.03123355    0.05966283
     atom   23 type  1   force =    -0.00169688    0.02703345   -0.00682263
     atom   24 type  1   force =     0.00845526   -0.02315280    0.00122577
     atom   25 type  1   force =     0.03311266   -0.01019693   -0.04528185
     atom   26 type  1   force =    -0.00931758    0.01858828    0.00043536
     atom   27 type  1   force =    -0.01818150    0.02815463   -0.03148969
     atom   28 type  1   force =     0.00925126    0.01354469    0.01457184
     atom   29 type  1   force =    -0.01433774   -0.03704547   -0.01273415
     atom   30 type  1   force =    -0.00201164    0.00812969   -0.04857884
     atom   31 type  1   force =     0.00159595   -0.00298840   -0.01624195
     atom   32 type  1   force =    -0.02114646    0.02616811   -0.01702780
     atom   33 type  1   force =     0.02560460    0.03190246    0.02277564
     atom   34 type  1   force =     0.00955349    0.02088107    0.01805563
     atom   35 type  1   force =     0.00178355   -0.01474095   -0.05772278
     atom   36 type  1   force =    -0.01306040    0.00207663    0.00899993
     atom   37 type  1   force =     0.00729561   -0.01190669   -0.00307563
     atom   38 type  1   force =     0.00848675    0.01688482   -0.00200105
     atom   39 type  1   force =     0.00360071   -0.01304078    0.05301084
     atom   40 type  1   force =    -0.02036208   -0.00213178   -0.00276970
     atom   41 type  1   force =    -0.00919284   -0.01152130   -0.01558826
     atom   42 type  1   force =    -0.01584635   -0.00112586    0.00245077
     atom   43 type  1   force =     0.04214751    0.05898464   -0.05910661
     atom   44 type  1   force =     0.01534592   -0.02603237   -0.01677777
     atom   45 type  1   force =    -0.00254229   -0.06049264    0.01384069
     atom   46 type  1   force =    -0.01169079   -0.02230926    0.00395533
     atom   47 type  1   force =    -0.00526709   -0.01761086    0.01302167
     atom   48 type  1   force =    -0.01969508    0.08108715    0.02129275
     atom   49 type  1   force =     0.01032860   -0.02008837   -0.00805663
     atom   50 type  1   force =    -0.01569543   -0.00803964    0.03906712
     atom   51 type  1   force =     0.01994957   -0.00869415    0.00521907
     atom   52 type  1   force =     0.01389406   -0.02241847    0.02733543
     atom   53 type  1   force =     0.00545411   -0.00975468    0.02954648
     atom   54 type  1   force =     0.00499228   -0.02115643   -0.04317628
     atom   55 type  1   force =     0.00100750    0.00521313    0.01114046
     atom   56 type  1   force =     0.00849295    0.00627070    0.00519860
     atom   57 type  1   force =     0.00050013   -0.00859138   -0.00509847
     atom   58 type  1   force =     0.03076235    0.01215322    0.02008672
     atom   59 type  1   force =    -0.00849128    0.03836139   -0.01856478
     atom   60 type  1   force =     0.00628570    0.02399652    0.00410026
     atom   61 type  1   force =    -0.02474992    0.00022352   -0.05213449
     atom   62 type  1   force =     0.01354734   -0.03494338   -0.00069233
     atom   63 type  1   force =     0.02726743    0.00273136   -0.03078416
     atom   64 type  1   force =    -0.02682776   -0.00817771    0.00182935

     Total force =     0.317439     Total SCF correction =     0.000754


     Computing stress (Cartesian axis) and pressure

          total   stress  (Ry/bohr**3)                   (kbar)     P=      -40.55
  -0.00028368   0.00004313   0.00000638          -41.73        6.35        0.94
   0.00004313  -0.00024355  -0.00000118            6.35      -35.83       -0.17
   0.00000638  -0.00000118  -0.00029974            0.94       -0.17      -44.09

 
     init_run     :      0.94s CPU      4.01s WALL (       1 calls)
     electrons    :      8.83s CPU      9.39s WALL (       1 calls)
     forces       :      0.03s CPU      0.03s WALL (       1 calls)
     stress       :      0.12s CPU      0.12s WALL (       1 calls)

     Called by init_run:
     wfcinit      :      0.43s CPU      3.36s WALL (       1 calls)
                                        3.36s GPU  (       1 calls)
     potinit      :      0.04s CPU      0.12s WALL (       1 calls)
     hinit0       :      0.45s CPU      0.47s WALL (       1 calls)

     Called by electrons:
     c_bands      :      6.31s CPU      6.62s WALL (      86 calls)
     sum_band     :      1.16s CPU      1.34s WALL (      86 calls)
     v_of_rho     :      0.48s CPU      0.58s WALL (      86 calls)
     mix_rho      :      0.73s CPU      0.75s WALL (      86 calls)

     Called by c_bands:
     init_us_2    :      0.21s CPU      0.23s WALL (     173 calls)
     init_us_2:gp :      0.21s CPU      0.23s WALL (     173 calls)
     regterg      :      5.70s CPU      5.99s WALL (      86 calls)

     Called by *egterg:
     rdiaghg      :      2.91s CPU      3.64s WALL (     930 calls)
                                        3.50s GPU  (     930 calls)
     h_psi        :      2.40s CPU      4.86s WALL (     932 calls)
                                        4.85s GPU  (     932 calls)
     g_psi        :      0.00s CPU      0.02s WALL (     845 calls)
                                        0.01s GPU  (     845 calls)

     Called by h_psi:
     h_psi:calbec :      0.61s CPU      2.94s WALL (     932 calls)
                                        2.93s GPU  (     932 calls)
     vloc_psi     :      1.30s CPU      1.43s WALL (     932 calls)
                                        1.42s GPU  (     932 calls)
     add_vuspsi   :      0.36s CPU      0.45s WALL (     932 calls)
                                        0.44s GPU  (     932 calls)

     General routines
     calbec       :      0.61s CPU      2.93s WALL (     937 calls)
     fft          :      0.85s CPU      0.98s WALL (     695 calls)
                                        0.16s GPU  (     436 calls)
     ffts         :      0.13s CPU      0.14s WALL (      86 calls)
     fftw         :      1.56s CPU      1.97s WALL (    8492 calls)
                                        1.71s GPU  (    8492 calls)
 
     Parallel routines
 
     PWSCF        :      9.95s CPU     13.62s WALL

 
   This run was terminated on:  15:10:36   9May2023            

=------------------------------------------------------------------------------=
   JOB DONE.
=------------------------------------------------------------------------------=
