An instance of this daemon is already running
An instance of this daemon is already running
An instance of this daemon is already running

     Program PWSCF v.7.1 starts on  9May2023 at 15:23:12 

     This program is part of the open-source Quantum ESPRESSO suite
     for quantum simulation of materials; please cite
         "P. Giannozzi et al., J. Phys.:Condens. Matter 21 395502 (2009);
         "P. Giannozzi et al., J. Phys.:Condens. Matter 29 465901 (2017);
         "P. Giannozzi et al., J. Chem. Phys. 152 154105 (2020);
          URL http://www.quantum-espresso.org", 
     in publications or presentations arising from this work. More details at
     http://www.quantum-espresso.org/quote

     Parallel version (MPI & OpenMP), running on       4 processor cores
     Number of MPI processes:                 4
     Threads/MPI process:                     1

     MPI processes distributed on     1 nodes
     47625 MiB available memory on the printing compute node when the environment starts
 
     Reading input from pw-si-88.in
Warning: card &CELL ignored
Warning: card / ignored

     Current dimensions of program PWSCF are:
     Max number of different atomic species (ntypx) = 10
     Max number of k-points (npk) =  40000
     Max angular momentum in pseudopotentials (lmaxx) =  4

     IMPORTANT: XC functional enforced from input :
     Exchange-correlation= PBE
                           (   1   4   3   4   0   0   0)
     Any further DFT definition will be discarded
     Please, verify this is what you really want


     gamma-point specific algorithms are used
 
     K-points division:     npool     =       2
     R & G space division:  proc/nbgrp/npool/nimage =       2
     Subspace diagonalization in iterative solution of the eigenvalue problem:
     a serial algorithm will be used

     Message from routine divide_et_impera:
     suboptimal parallelization: some nodes have no k-points
 
     Parallelization info
     --------------------
     sticks:   dense  smooth     PW     G-vecs:    dense   smooth      PW
     Min        1953    1953    520                91863    91863   12584
     Max        1956    1956    521                91868    91868   12589
     Sum        3909    3909   1041               183731   183731   25173
 
     Using Slab Decomposition
 


     bravais-lattice index     =            0
     lattice parameter (alat)  =      20.2349  a.u.
     unit-cell volume          =    8285.1585 (a.u.)^3
     number of atoms/cell      =           64
     number of atomic types    =            1
     number of electrons       =       256.00
     number of Kohn-Sham states=          128
     kinetic-energy cutoff     =      30.0000  Ry
     charge density cutoff     =     120.0000  Ry
     scf convergence threshold =      1.0E-06
     mixing beta               =       0.5000
     number of iterations used =            8  plain     mixing
     Exchange-correlation= PBE
                           (   1   4   3   4   0   0   0)

     GPU acceleration is ACTIVE.
     GPU-aware MPI enabled

     Message from routine print_cuda_info:
     High GPU oversubscription detected. Are you sure this is what you want?

     celldm(1)=  20.234863  celldm(2)=   0.000000  celldm(3)=   0.000000
     celldm(4)=   0.000000  celldm(5)=   0.000000  celldm(6)=   0.000000

     crystal axes: (cart. coord. in units of alat)
               a(1) = (   1.000000   0.000000   0.000000 )  
               a(2) = (   0.000000   1.000000   0.000000 )  
               a(3) = (   0.000000   0.000000   1.000000 )  

     reciprocal axes: (cart. coord. in units 2 pi/alat)
               b(1) = (  1.000000  0.000000  0.000000 )  
               b(2) = (  0.000000  1.000000  0.000000 )  
               b(3) = (  0.000000  0.000000  1.000000 )  


     PseudoPot. # 1 for Si read from file:
     /home/ppiaggi/pseudos/Si_ONCV_PBE_sr.upf
     MD5 check sum: 8553c464762ac42b85b1eed164b4d029
     Pseudo is Norm-conserving, Zval =  4.0
     Generated using ONCVPSP code by D. R. Hamann
     Using radial grid of 1510 points,  4 beta functions with: 
                l(1) =   0
                l(2) =   0
                l(3) =   1
                l(4) =   1

     atomic species   valence    mass     pseudopotential
        Si             4.00    28.08500     Si( 1.00)

     No symmetry found



   Cartesian axes

     site n.     atom                  positions (alat units)
         1           Si  tau(   1) = (   0.2598390   0.6499490   0.5774440  )
         2           Si  tau(   2) = (   0.9694700   0.3892320   0.7889870  )
         3           Si  tau(   3) = (   0.4531740   0.5147460   0.4017900  )
         4           Si  tau(   4) = (   0.5727860   0.5801950   0.1675350  )
         5           Si  tau(   5) = (   0.0405548   0.9996210   0.1719090  )
         6           Si  tau(   6) = (   0.2724850   0.2423940   0.7853530  )
         7           Si  tau(   7) = (   0.3164250   0.9575790   0.4167650  )
         8           Si  tau(   8) = (   0.5551930   0.9909740   0.2577060  )
         9           Si  tau(   9) = (   0.4566590   0.3050300   0.4557890  )
        10           Si  tau(  10) = (   0.8095430   0.4987530   0.5853700  )
        11           Si  tau(  11) = (   0.8764950   0.5518620   0.1238740  )
        12           Si  tau(  12) = (   0.9048290   0.0714519   0.4044210  )
        13           Si  tau(  13) = (   0.8721630   0.8244170   0.9565980  )
        14           Si  tau(  14) = (   0.5713080   0.1532440   0.7353030  )
        15           Si  tau(  15) = (   0.0615619   0.0869859   0.8148650  )
        16           Si  tau(  16) = (   0.5268280   0.9826720   0.0312194  )
        17           Si  tau(  17) = (   0.5348210   0.7388730   0.9828850  )
        18           Si  tau(  18) = (   0.7252270   0.7087850   0.5810180  )
        19           Si  tau(  19) = (   0.0843194   0.3628080   0.4387890  )
        20           Si  tau(  20) = (   0.2410140   0.2472100   0.5578720  )
        21           Si  tau(  21) = (   0.9542290   0.7083870   0.4373910  )
        22           Si  tau(  22) = (   0.3932560   0.6007990   0.8546720  )
        23           Si  tau(  23) = (   0.0759204   0.8258910   0.7808220  )
        24           Si  tau(  24) = (   0.7655930   0.6315510   0.9700350  )
        25           Si  tau(  25) = (   0.0503452   0.5217070   0.5752390  )
        26           Si  tau(  26) = (   0.6111110   0.7348060   0.3888290  )
        27           Si  tau(  27) = (   0.2008080   0.5682830   0.1054120  )
        28           Si  tau(  28) = (   0.7036650   0.3426780   0.4543720  )
        29           Si  tau(  29) = (   0.7124530   0.3826950   0.2031010  )
        30           Si  tau(  30) = (   0.1633160   0.8894210   0.9858440  )
        31           Si  tau(  31) = (   0.7652500   0.4791020   0.8110500  )
        32           Si  tau(  32) = (   0.4899860   0.5770080   0.6116530  )
        33           Si  tau(  33) = (   0.0467852   0.7655980   0.1526630  )
        34           Si  tau(  34) = (   0.2378640   0.8656860   0.6193930  )
        35           Si  tau(  35) = (   0.1683950   0.1003590   0.3154050  )
        36           Si  tau(  36) = (   0.1443900   0.6078530   0.7817050  )
        37           Si  tau(  37) = (   0.2830600   0.1986300   0.1520850  )
        38           Si  tau(  38) = (   0.3346680   0.0768965   0.9489030  )
        39           Si  tau(  39) = (   0.0951475   0.0549042   0.5804440  )
        40           Si  tau(  40) = (   0.5111340   0.2296030   0.2194240  )
        41           Si  tau(  41) = (   0.7893010   0.9503560   0.2319140  )
        42           Si  tau(  42) = (   0.5644510   0.7782320   0.7543840  )
        43           Si  tau(  43) = (   0.0445976   0.4852780   0.9856360  )
        44           Si  tau(  44) = (   0.2278560   0.5333120   0.3349550  )
        45           Si  tau(  45) = (   0.7644280   0.9124320   0.7538290  )
        46           Si  tau(  46) = (   0.1767510   0.7439250   0.3543120  )
        47           Si  tau(  47) = (   0.3810370   0.4331860   0.1234220  )
        48           Si  tau(  48) = (   0.9149450   0.8868820   0.5931240  )
        49           Si  tau(  49) = (   0.3336470   0.7462260   0.0794135  )
        50           Si  tau(  50) = (   0.8322360   0.1619720   0.8177800  )
        51           Si  tau(  51) = (   0.4082480   0.9593780   0.7297190  )
        52           Si  tau(  52) = (   0.4835040   0.0699178   0.5274120  )
        53           Si  tau(  53) = (   0.5676270   0.3948210   0.7221980  )
        54           Si  tau(  54) = (   0.9484430   0.1955780   0.0853846  )
        55           Si  tau(  55) = (   0.7545830   0.0196277   0.9927630  )
        56           Si  tau(  56) = (   0.7577910   0.1810990   0.5948780  )
        57           Si  tau(  57) = (   0.5479750   0.2352610   0.9744910  )
        58           Si  tau(  58) = (   0.6807620   0.9785210   0.4817090  )
        59           Si  tau(  59) = (   0.3991990   0.3912210   0.9016190  )
        60           Si  tau(  60) = (   0.7706180   0.3214330   0.9698990  )
        61           Si  tau(  61) = (   0.4206090   0.8069750   0.2753160  )
        62           Si  tau(  62) = (   0.7880680   0.7215040   0.2489170  )
        63           Si  tau(  63) = (   0.9236550   0.2633170   0.2968860  )
        64           Si  tau(  64) = (   0.1398250   0.2698240   0.0040038  )

     number of k points=     1
                       cart. coord. in units 2pi/alat
        k(    1) = (   0.0000000   0.0000000   0.0000000), wk =   2.0000000

     Dense  grid:    91866 G-vectors     FFT dimensions: (  72,  72,  72)

     Estimated max dynamical RAM per process >     135.19 MB

     Estimated total dynamical RAM >     518.32 MB

     Initial potential from superposition of free atoms

     starting charge     255.9608, renormalised to     256.0000
     Starting wfcs are  256 randomized atomic wfcs

     total cpu time spent up to now is        4.1 secs

     Self-consistent Calculation

     iteration #  1     ecut=    30.00 Ry     beta= 0.50
     Davidson diagonalization with overlap
     ethr =  1.00E-02,  avg # of iterations =  2.0

     Threshold (ethr) on eigenvalues was too large:
     Diagonalizing with lowered threshold

     Davidson diagonalization with overlap
     ethr =  3.87E-04,  avg # of iterations =  4.0

     total cpu time spent up to now is        4.2 secs

     total energy              =    -501.43983489 Ry
     estimated scf accuracy    <       1.18091245 Ry

     iteration #  2     ecut=    30.00 Ry     beta= 0.50
     Davidson diagonalization with overlap
     ethr =  4.61E-04,  avg # of iterations = 13.0

     total cpu time spent up to now is        4.4 secs

     total energy              =    -501.06408485 Ry
     estimated scf accuracy    <       4.43597235 Ry

     iteration #  3     ecut=    30.00 Ry     beta= 0.50
     Davidson diagonalization with overlap
     ethr =  4.61E-04,  avg # of iterations = 10.0

     total cpu time spent up to now is        4.5 secs

     total energy              =    -501.54228683 Ry
     estimated scf accuracy    <       1.14934503 Ry

     iteration #  4     ecut=    30.00 Ry     beta= 0.50
     Davidson diagonalization with overlap
     ethr =  4.49E-04,  avg # of iterations =  6.0

     total cpu time spent up to now is        4.6 secs

     total energy              =    -501.62156889 Ry
     estimated scf accuracy    <       0.32341573 Ry

     iteration #  5     ecut=    30.00 Ry     beta= 0.50
     Davidson diagonalization with overlap
     ethr =  1.26E-04,  avg # of iterations =  7.0

     total cpu time spent up to now is        4.7 secs

     total energy              =    -501.64345540 Ry
     estimated scf accuracy    <       0.25770401 Ry

     iteration #  6     ecut=    30.00 Ry     beta= 0.50
     Davidson diagonalization with overlap
     ethr =  1.01E-04,  avg # of iterations =  6.0

     total cpu time spent up to now is        4.8 secs

     total energy              =    -501.67529407 Ry
     estimated scf accuracy    <       0.02078739 Ry

     iteration #  7     ecut=    30.00 Ry     beta= 0.50
     Davidson diagonalization with overlap
     ethr =  8.12E-06,  avg # of iterations =  9.0

     total cpu time spent up to now is        4.9 secs

     total energy              =    -501.67879091 Ry
     estimated scf accuracy    <       0.02051214 Ry

     iteration #  8     ecut=    30.00 Ry     beta= 0.50
     Davidson diagonalization with overlap
     ethr =  8.01E-06,  avg # of iterations =  6.0

     total cpu time spent up to now is        5.0 secs

     total energy              =    -501.67976309 Ry
     estimated scf accuracy    <       0.01115806 Ry

     iteration #  9     ecut=    30.00 Ry     beta= 0.50
     Davidson diagonalization with overlap
     ethr =  4.36E-06,  avg # of iterations =  6.0

     total cpu time spent up to now is        5.1 secs

     total energy              =    -501.68060141 Ry
     estimated scf accuracy    <       0.00104007 Ry

     iteration # 10     ecut=    30.00 Ry     beta= 0.50
     Davidson diagonalization with overlap
     c_bands:  1 eigenvalues not converged
     ethr =  4.06E-07,  avg # of iterations = 20.0

     total cpu time spent up to now is        5.3 secs

     total energy              =    -501.68691420 Ry
     estimated scf accuracy    <       0.04773108 Ry

     iteration # 11     ecut=    30.00 Ry     beta= 0.50
     Davidson diagonalization with overlap
     ethr =  4.06E-07,  avg # of iterations =  8.0

     total cpu time spent up to now is        5.4 secs

     total energy              =    -501.68678842 Ry
     estimated scf accuracy    <       0.04757106 Ry

     iteration # 12     ecut=    30.00 Ry     beta= 0.50
     Davidson diagonalization with overlap
     ethr =  4.06E-07,  avg # of iterations =  1.0

     total cpu time spent up to now is        5.4 secs

     total energy              =    -501.68669449 Ry
     estimated scf accuracy    <       0.04693889 Ry

     iteration # 13     ecut=    30.00 Ry     beta= 0.50
     Davidson diagonalization with overlap
     ethr =  4.06E-07,  avg # of iterations =  1.0

     total cpu time spent up to now is        5.5 secs

     total energy              =    -501.68731288 Ry
     estimated scf accuracy    <       0.04620118 Ry

     iteration # 14     ecut=    30.00 Ry     beta= 0.50
     Davidson diagonalization with overlap
     ethr =  4.06E-07,  avg # of iterations =  1.0

     total cpu time spent up to now is        5.6 secs

     total energy              =    -501.68686508 Ry
     estimated scf accuracy    <       0.04799115 Ry

     iteration # 15     ecut=    30.00 Ry     beta= 0.50
     Davidson diagonalization with overlap
     ethr =  4.06E-07,  avg # of iterations = 15.0

     total cpu time spent up to now is        5.7 secs

     total energy              =    -501.68621817 Ry
     estimated scf accuracy    <       0.04474301 Ry

     iteration # 16     ecut=    30.00 Ry     beta= 0.50
     Davidson diagonalization with overlap
     c_bands:  1 eigenvalues not converged
     ethr =  4.06E-07,  avg # of iterations = 20.0

     total cpu time spent up to now is        5.9 secs

     total energy              =    -501.68660626 Ry
     estimated scf accuracy    <       0.04685698 Ry

     iteration # 17     ecut=    30.00 Ry     beta= 0.50
     Davidson diagonalization with overlap
     ethr =  4.06E-07,  avg # of iterations =  3.0

     total cpu time spent up to now is        5.9 secs

     total energy              =    -501.68647460 Ry
     estimated scf accuracy    <       0.04749695 Ry

     iteration # 18     ecut=    30.00 Ry     beta= 0.50
     Davidson diagonalization with overlap
     ethr =  4.06E-07,  avg # of iterations =  2.0

     total cpu time spent up to now is        6.0 secs

     total energy              =    -501.67749317 Ry
     estimated scf accuracy    <       0.04698981 Ry

     iteration # 19     ecut=    30.00 Ry     beta= 0.50
     Davidson diagonalization with overlap
     c_bands:  5 eigenvalues not converged
     ethr =  4.06E-07,  avg # of iterations = 20.0

     total cpu time spent up to now is        6.2 secs

     total energy              =    -501.65540700 Ry
     estimated scf accuracy    <       0.24484489 Ry

     iteration # 20     ecut=    30.00 Ry     beta= 0.50
     Davidson diagonalization with overlap
     c_bands:  5 eigenvalues not converged
     ethr =  4.06E-07,  avg # of iterations = 20.0

     total cpu time spent up to now is        6.4 secs

     total energy              =    -501.66778693 Ry
     estimated scf accuracy    <       0.19869379 Ry

     iteration # 21     ecut=    30.00 Ry     beta= 0.50
     Davidson diagonalization with overlap
     c_bands:  3 eigenvalues not converged
     ethr =  4.06E-07,  avg # of iterations = 20.0

     total cpu time spent up to now is        6.6 secs

     total energy              =    -501.68020493 Ry
     estimated scf accuracy    <       0.04647045 Ry

     iteration # 22     ecut=    30.00 Ry     beta= 0.50
     Davidson diagonalization with overlap
     c_bands:  1 eigenvalues not converged
     ethr =  4.06E-07,  avg # of iterations = 20.0

     total cpu time spent up to now is        6.8 secs

     total energy              =    -501.68110156 Ry
     estimated scf accuracy    <       0.02434386 Ry

     iteration # 23     ecut=    30.00 Ry     beta= 0.50
     Davidson diagonalization with overlap
     c_bands:  1 eigenvalues not converged
     ethr =  4.06E-07,  avg # of iterations = 20.0

     total cpu time spent up to now is        7.0 secs

     total energy              =    -501.68155815 Ry
     estimated scf accuracy    <       0.01452145 Ry

     iteration # 24     ecut=    30.00 Ry     beta= 0.50
     Davidson diagonalization with overlap
     c_bands:  1 eigenvalues not converged
     ethr =  4.06E-07,  avg # of iterations = 20.0

     total cpu time spent up to now is        7.2 secs

     total energy              =    -501.68196757 Ry
     estimated scf accuracy    <       0.00815511 Ry

     iteration # 25     ecut=    30.00 Ry     beta= 0.50
     Davidson diagonalization with overlap
     c_bands:  1 eigenvalues not converged
     ethr =  4.06E-07,  avg # of iterations = 20.0

     total cpu time spent up to now is        7.3 secs

     total energy              =    -501.68213347 Ry
     estimated scf accuracy    <       0.00660350 Ry

     iteration # 26     ecut=    30.00 Ry     beta= 0.50
     Davidson diagonalization with overlap
     ethr =  4.06E-07,  avg # of iterations =  3.0

     total cpu time spent up to now is        7.4 secs

     total energy              =    -501.68210526 Ry
     estimated scf accuracy    <       0.00486974 Ry

     iteration # 27     ecut=    30.00 Ry     beta= 0.50
     Davidson diagonalization with overlap
     ethr =  4.06E-07,  avg # of iterations =  2.0

     total cpu time spent up to now is        7.5 secs

     total energy              =    -501.68134839 Ry
     estimated scf accuracy    <       0.00433084 Ry

     iteration # 28     ecut=    30.00 Ry     beta= 0.50
     Davidson diagonalization with overlap
     c_bands:  1 eigenvalues not converged
     ethr =  4.06E-07,  avg # of iterations = 20.0

     total cpu time spent up to now is        7.7 secs

     total energy              =    -501.68311956 Ry
     estimated scf accuracy    <       0.04242478 Ry

     iteration # 29     ecut=    30.00 Ry     beta= 0.50
     Davidson diagonalization with overlap
     ethr =  4.06E-07,  avg # of iterations =  8.0

     total cpu time spent up to now is        7.8 secs

     total energy              =    -501.68261269 Ry
     estimated scf accuracy    <       0.03086150 Ry

     iteration # 30     ecut=    30.00 Ry     beta= 0.50
     Davidson diagonalization with overlap
     ethr =  4.06E-07,  avg # of iterations = 10.0

     total cpu time spent up to now is        7.9 secs

     total energy              =    -501.68311866 Ry
     estimated scf accuracy    <       0.02570345 Ry

     iteration # 31     ecut=    30.00 Ry     beta= 0.50
     Davidson diagonalization with overlap
     ethr =  4.06E-07,  avg # of iterations =  2.0

     total cpu time spent up to now is        7.9 secs

     total energy              =    -501.68211668 Ry
     estimated scf accuracy    <       0.02696122 Ry

     iteration # 32     ecut=    30.00 Ry     beta= 0.50
     Davidson diagonalization with overlap
     c_bands:  1 eigenvalues not converged
     ethr =  4.06E-07,  avg # of iterations = 20.0

     total cpu time spent up to now is        8.1 secs

     total energy              =    -501.68167797 Ry
     estimated scf accuracy    <       0.02154539 Ry

     iteration # 33     ecut=    30.00 Ry     beta= 0.50
     Davidson diagonalization with overlap
     ethr =  4.06E-07,  avg # of iterations = 19.0

     total cpu time spent up to now is        8.3 secs

     total energy              =    -501.68214536 Ry
     estimated scf accuracy    <       0.01372776 Ry

     iteration # 34     ecut=    30.00 Ry     beta= 0.50
     Davidson diagonalization with overlap
     ethr =  4.06E-07,  avg # of iterations =  3.0

     total cpu time spent up to now is        8.4 secs

     total energy              =    -501.68208794 Ry
     estimated scf accuracy    <       0.00943717 Ry

     iteration # 35     ecut=    30.00 Ry     beta= 0.50
     Davidson diagonalization with overlap
     ethr =  4.06E-07,  avg # of iterations =  8.0

     total cpu time spent up to now is        8.5 secs

     total energy              =    -501.68192005 Ry
     estimated scf accuracy    <       0.00801432 Ry

     iteration # 36     ecut=    30.00 Ry     beta= 0.50
     Davidson diagonalization with overlap
     ethr =  4.06E-07,  avg # of iterations =  3.0

     total cpu time spent up to now is        8.5 secs

     total energy              =    -501.68075908 Ry
     estimated scf accuracy    <       0.00718675 Ry

     iteration # 37     ecut=    30.00 Ry     beta= 0.50
     Davidson diagonalization with overlap
     c_bands:  1 eigenvalues not converged
     ethr =  4.06E-07,  avg # of iterations = 20.0

     total cpu time spent up to now is        8.7 secs

     total energy              =    -501.68363884 Ry
     estimated scf accuracy    <       0.04785268 Ry

     iteration # 38     ecut=    30.00 Ry     beta= 0.50
     Davidson diagonalization with overlap
     c_bands:  1 eigenvalues not converged
     ethr =  4.06E-07,  avg # of iterations = 20.0

     total cpu time spent up to now is        8.9 secs

     total energy              =    -501.68362886 Ry
     estimated scf accuracy    <       0.03570201 Ry

     iteration # 39     ecut=    30.00 Ry     beta= 0.50
     Davidson diagonalization with overlap
     ethr =  4.06E-07,  avg # of iterations =  8.0

     total cpu time spent up to now is        9.0 secs

     total energy              =    -501.68320870 Ry
     estimated scf accuracy    <       0.03037491 Ry

     iteration # 40     ecut=    30.00 Ry     beta= 0.50
     Davidson diagonalization with overlap
     ethr =  4.06E-07,  avg # of iterations =  2.0

     total cpu time spent up to now is        9.1 secs

     total energy              =    -501.68393038 Ry
     estimated scf accuracy    <       0.02747887 Ry

     iteration # 41     ecut=    30.00 Ry     beta= 0.50
     Davidson diagonalization with overlap
     ethr =  4.06E-07,  avg # of iterations =  2.0

     total cpu time spent up to now is        9.2 secs

     total energy              =    -501.68225009 Ry
     estimated scf accuracy    <       0.02962186 Ry

     iteration # 42     ecut=    30.00 Ry     beta= 0.50
     Davidson diagonalization with overlap
     c_bands:  1 eigenvalues not converged
     ethr =  4.06E-07,  avg # of iterations = 20.0

     total cpu time spent up to now is        9.3 secs

     total energy              =    -501.68232218 Ry
     estimated scf accuracy    <       0.01136788 Ry

     iteration # 43     ecut=    30.00 Ry     beta= 0.50
     Davidson diagonalization with overlap
     ethr =  4.06E-07,  avg # of iterations = 15.0

     total cpu time spent up to now is        9.5 secs

     total energy              =    -501.68240051 Ry
     estimated scf accuracy    <       0.00886648 Ry

     iteration # 44     ecut=    30.00 Ry     beta= 0.50
     Davidson diagonalization with overlap
     ethr =  4.06E-07,  avg # of iterations =  1.0

     total cpu time spent up to now is        9.5 secs

     total energy              =    -501.68231981 Ry
     estimated scf accuracy    <       0.00851607 Ry

     iteration # 45     ecut=    30.00 Ry     beta= 0.50
     Davidson diagonalization with overlap
     ethr =  4.06E-07,  avg # of iterations =  2.0

     total cpu time spent up to now is        9.6 secs

     total energy              =    -501.68095623 Ry
     estimated scf accuracy    <       0.00806555 Ry

     iteration # 46     ecut=    30.00 Ry     beta= 0.50
     Davidson diagonalization with overlap
     c_bands:  3 eigenvalues not converged
     ethr =  4.06E-07,  avg # of iterations = 20.0

     total cpu time spent up to now is        9.8 secs

     total energy              =    -501.67894720 Ry
     estimated scf accuracy    <       0.07761778 Ry

     iteration # 47     ecut=    30.00 Ry     beta= 0.50
     Davidson diagonalization with overlap
     c_bands:  2 eigenvalues not converged
     ethr =  4.06E-07,  avg # of iterations = 20.0

     total cpu time spent up to now is       10.0 secs

     total energy              =    -501.68198764 Ry
     estimated scf accuracy    <       0.04747935 Ry

     iteration # 48     ecut=    30.00 Ry     beta= 0.50
     Davidson diagonalization with overlap
     c_bands:  1 eigenvalues not converged
     ethr =  4.06E-07,  avg # of iterations = 20.0

     total cpu time spent up to now is       10.2 secs

     total energy              =    -501.68289747 Ry
     estimated scf accuracy    <       0.01801208 Ry

     iteration # 49     ecut=    30.00 Ry     beta= 0.50
     Davidson diagonalization with overlap
     ethr =  4.06E-07,  avg # of iterations =  8.0

     total cpu time spent up to now is       10.3 secs

     total energy              =    -501.68266591 Ry
     estimated scf accuracy    <       0.01555619 Ry

     iteration # 50     ecut=    30.00 Ry     beta= 0.50
     Davidson diagonalization with overlap
     ethr =  4.06E-07,  avg # of iterations =  6.0

     total cpu time spent up to now is       10.4 secs

     total energy              =    -501.68235111 Ry
     estimated scf accuracy    <       0.01268467 Ry

     iteration # 51     ecut=    30.00 Ry     beta= 0.50
     Davidson diagonalization with overlap
     ethr =  4.06E-07,  avg # of iterations =  2.0

     total cpu time spent up to now is       10.4 secs

     total energy              =    -501.68217331 Ry
     estimated scf accuracy    <       0.01125409 Ry

     iteration # 52     ecut=    30.00 Ry     beta= 0.50
     Davidson diagonalization with overlap
     ethr =  4.06E-07,  avg # of iterations =  1.0

     total cpu time spent up to now is       10.5 secs

     total energy              =    -501.68213976 Ry
     estimated scf accuracy    <       0.01001564 Ry

     iteration # 53     ecut=    30.00 Ry     beta= 0.50
     Davidson diagonalization with overlap
     ethr =  4.06E-07,  avg # of iterations =  1.0

     total cpu time spent up to now is       10.6 secs

     total energy              =    -501.68163924 Ry
     estimated scf accuracy    <       0.00961240 Ry

     iteration # 54     ecut=    30.00 Ry     beta= 0.50
     Davidson diagonalization with overlap
     ethr =  4.06E-07,  avg # of iterations =  2.0

     total cpu time spent up to now is       10.6 secs

     total energy              =    -501.67948135 Ry
     estimated scf accuracy    <       0.00732888 Ry

     iteration # 55     ecut=    30.00 Ry     beta= 0.50
     Davidson diagonalization with overlap
     c_bands:  1 eigenvalues not converged
     ethr =  4.06E-07,  avg # of iterations = 20.0

     total cpu time spent up to now is       10.8 secs

     total energy              =    -501.68516038 Ry
     estimated scf accuracy    <       0.05403711 Ry

     iteration # 56     ecut=    30.00 Ry     beta= 0.50
     Davidson diagonalization with overlap
     c_bands:  1 eigenvalues not converged
     ethr =  4.06E-07,  avg # of iterations = 20.0

     total cpu time spent up to now is       11.0 secs

     total energy              =    -501.68365361 Ry
     estimated scf accuracy    <       0.03198630 Ry

     iteration # 57     ecut=    30.00 Ry     beta= 0.50
     Davidson diagonalization with overlap
     ethr =  4.06E-07,  avg # of iterations =  7.0

     total cpu time spent up to now is       11.1 secs

     total energy              =    -501.68326398 Ry
     estimated scf accuracy    <       0.01877711 Ry

     iteration # 58     ecut=    30.00 Ry     beta= 0.50
     Davidson diagonalization with overlap
     ethr =  4.06E-07,  avg # of iterations =  2.0

     total cpu time spent up to now is       11.2 secs

     total energy              =    -501.68302108 Ry
     estimated scf accuracy    <       0.01544607 Ry

     iteration # 59     ecut=    30.00 Ry     beta= 0.50
     Davidson diagonalization with overlap
     ethr =  4.06E-07,  avg # of iterations =  1.0

     total cpu time spent up to now is       11.2 secs

     total energy              =    -501.68203929 Ry
     estimated scf accuracy    <       0.01403620 Ry

     iteration # 60     ecut=    30.00 Ry     beta= 0.50
     Davidson diagonalization with overlap
     c_bands:  1 eigenvalues not converged
     ethr =  4.06E-07,  avg # of iterations = 20.0

     total cpu time spent up to now is       11.4 secs

     total energy              =    -501.68239515 Ry
     estimated scf accuracy    <       0.00531913 Ry

     iteration # 61     ecut=    30.00 Ry     beta= 0.50
     Davidson diagonalization with overlap
     ethr =  4.06E-07,  avg # of iterations = 14.0

     total cpu time spent up to now is       11.5 secs

     total energy              =    -501.68236194 Ry
     estimated scf accuracy    <       0.00576835 Ry

     iteration # 62     ecut=    30.00 Ry     beta= 0.50
     Davidson diagonalization with overlap
     ethr =  4.06E-07,  avg # of iterations =  2.0

     total cpu time spent up to now is       11.6 secs

     total energy              =    -501.68249075 Ry
     estimated scf accuracy    <       0.00532101 Ry

     iteration # 63     ecut=    30.00 Ry     beta= 0.50
     Davidson diagonalization with overlap
     ethr =  4.06E-07,  avg # of iterations =  1.0

     total cpu time spent up to now is       11.7 secs

     total energy              =    -501.68049256 Ry
     estimated scf accuracy    <       0.00573593 Ry

     iteration # 64     ecut=    30.00 Ry     beta= 0.50
     Davidson diagonalization with overlap
     c_bands:  1 eigenvalues not converged
     ethr =  4.06E-07,  avg # of iterations = 20.0

     total cpu time spent up to now is       11.9 secs

     total energy              =    -501.68209693 Ry
     estimated scf accuracy    <       0.04673563 Ry

     iteration # 65     ecut=    30.00 Ry     beta= 0.50
     Davidson diagonalization with overlap
     ethr =  4.06E-07,  avg # of iterations = 16.0

     total cpu time spent up to now is       12.0 secs

     total energy              =    -501.68244364 Ry
     estimated scf accuracy    <       0.01728031 Ry

     iteration # 66     ecut=    30.00 Ry     beta= 0.50
     Davidson diagonalization with overlap
     ethr =  4.06E-07,  avg # of iterations =  8.0

     total cpu time spent up to now is       12.1 secs

     total energy              =    -501.68230407 Ry
     estimated scf accuracy    <       0.01262257 Ry

     iteration # 67     ecut=    30.00 Ry     beta= 0.50
     Davidson diagonalization with overlap
     ethr =  4.06E-07,  avg # of iterations =  2.0

     total cpu time spent up to now is       12.2 secs

     total energy              =    -501.68210642 Ry
     estimated scf accuracy    <       0.01095927 Ry

     iteration # 68     ecut=    30.00 Ry     beta= 0.50
     Davidson diagonalization with overlap
     ethr =  4.06E-07,  avg # of iterations =  1.0

     total cpu time spent up to now is       12.3 secs

     total energy              =    -501.67964801 Ry
     estimated scf accuracy    <       0.00997740 Ry

     iteration # 69     ecut=    30.00 Ry     beta= 0.50
     Davidson diagonalization with overlap
     c_bands:  1 eigenvalues not converged
     ethr =  4.06E-07,  avg # of iterations = 20.0

     total cpu time spent up to now is       12.4 secs

     total energy              =    -501.68342354 Ry
     estimated scf accuracy    <       0.03266479 Ry

     iteration # 70     ecut=    30.00 Ry     beta= 0.50
     Davidson diagonalization with overlap
     ethr =  4.06E-07,  avg # of iterations = 12.0

     total cpu time spent up to now is       12.6 secs

     total energy              =    -501.68294818 Ry
     estimated scf accuracy    <       0.01928778 Ry

     iteration # 71     ecut=    30.00 Ry     beta= 0.50
     Davidson diagonalization with overlap
     ethr =  4.06E-07,  avg # of iterations =  2.0

     total cpu time spent up to now is       12.6 secs

     total energy              =    -501.68288940 Ry
     estimated scf accuracy    <       0.01580484 Ry

     iteration # 72     ecut=    30.00 Ry     beta= 0.50
     Davidson diagonalization with overlap
     ethr =  4.06E-07,  avg # of iterations =  1.0

     total cpu time spent up to now is       12.7 secs

     total energy              =    -501.69006785 Ry
     estimated scf accuracy    <       0.01506193 Ry

     iteration # 73     ecut=    30.00 Ry     beta= 0.50
     Davidson diagonalization with overlap
     ethr =  4.06E-07,  avg # of iterations = 16.0

     total cpu time spent up to now is       12.9 secs

     total energy              =    -501.68467506 Ry
     estimated scf accuracy    <       0.06778673 Ry

     iteration # 74     ecut=    30.00 Ry     beta= 0.50
     Davidson diagonalization with overlap
     ethr =  4.06E-07,  avg # of iterations = 16.0

     total cpu time spent up to now is       13.0 secs

     total energy              =    -501.68455530 Ry
     estimated scf accuracy    <       0.02890721 Ry

     iteration # 75     ecut=    30.00 Ry     beta= 0.50
     Davidson diagonalization with overlap
     ethr =  4.06E-07,  avg # of iterations =  3.0

     total cpu time spent up to now is       13.1 secs

     total energy              =    -501.68452723 Ry
     estimated scf accuracy    <       0.02331009 Ry

     iteration # 76     ecut=    30.00 Ry     beta= 0.50
     Davidson diagonalization with overlap
     ethr =  4.06E-07,  avg # of iterations =  1.0

     total cpu time spent up to now is       13.2 secs

     total energy              =    -501.68424726 Ry
     estimated scf accuracy    <       0.02231509 Ry

     iteration # 77     ecut=    30.00 Ry     beta= 0.50
     Davidson diagonalization with overlap
     ethr =  4.06E-07,  avg # of iterations =  1.0

     total cpu time spent up to now is       13.3 secs

     total energy              =    -501.67789382 Ry
     estimated scf accuracy    <       0.02100531 Ry

     iteration # 78     ecut=    30.00 Ry     beta= 0.50
     Davidson diagonalization with overlap
     c_bands:  1 eigenvalues not converged
     ethr =  4.06E-07,  avg # of iterations = 20.0

     total cpu time spent up to now is       13.4 secs

     total energy              =    -501.68402514 Ry
     estimated scf accuracy    <       0.04892504 Ry

     iteration # 79     ecut=    30.00 Ry     beta= 0.50
     Davidson diagonalization with overlap
     c_bands:  1 eigenvalues not converged
     ethr =  4.06E-07,  avg # of iterations = 20.0

     total cpu time spent up to now is       13.6 secs

     total energy              =    -501.68188515 Ry
     estimated scf accuracy    <       0.03030005 Ry

     iteration # 80     ecut=    30.00 Ry     beta= 0.50
     Davidson diagonalization with overlap
     c_bands:  1 eigenvalues not converged
     ethr =  4.06E-07,  avg # of iterations = 20.0

     total cpu time spent up to now is       13.8 secs

     total energy              =    -501.68296539 Ry
     estimated scf accuracy    <       0.01090694 Ry

     iteration # 81     ecut=    30.00 Ry     beta= 0.50
     Davidson diagonalization with overlap
     c_bands:  1 eigenvalues not converged
     ethr =  4.06E-07,  avg # of iterations = 20.0

     total cpu time spent up to now is       13.9 secs

     total energy              =    -501.68240409 Ry
     estimated scf accuracy    <       0.01367184 Ry

     iteration # 82     ecut=    30.00 Ry     beta= 0.50
     Davidson diagonalization with overlap
     ethr =  4.06E-07,  avg # of iterations = 13.0

     total cpu time spent up to now is       14.0 secs

     total energy              =    -501.68162855 Ry
     estimated scf accuracy    <       0.01109693 Ry

     iteration # 83     ecut=    30.00 Ry     beta= 0.50
     Davidson diagonalization with overlap
     c_bands:  1 eigenvalues not converged
     ethr =  4.06E-07,  avg # of iterations = 20.0

     total cpu time spent up to now is       14.2 secs

     total energy              =    -501.68263330 Ry
     estimated scf accuracy    <       0.00875427 Ry

     iteration # 84     ecut=    30.00 Ry     beta= 0.50
     Davidson diagonalization with overlap
     ethr =  4.06E-07,  avg # of iterations = 18.0

     total cpu time spent up to now is       14.3 secs

     total energy              =    -501.68274213 Ry
     estimated scf accuracy    <       0.00876261 Ry

     iteration # 85     ecut=    30.00 Ry     beta= 0.50
     Davidson diagonalization with overlap
     ethr =  4.06E-07,  avg # of iterations =  1.0

     total cpu time spent up to now is       14.4 secs

     total energy              =    -501.68256505 Ry
     estimated scf accuracy    <       0.00861051 Ry

     iteration # 86     ecut=    30.00 Ry     beta= 0.50
     Davidson diagonalization with overlap
     ethr =  4.06E-07,  avg # of iterations =  1.0

     total cpu time spent up to now is       14.5 secs

     total energy              =    -501.68191231 Ry
     estimated scf accuracy    <       0.00794438 Ry

     iteration # 87     ecut=    30.00 Ry     beta= 0.50
     Davidson diagonalization with overlap
     ethr =  4.06E-07,  avg # of iterations =  3.0

     total cpu time spent up to now is       14.6 secs

     total energy              =    -501.68172222 Ry
     estimated scf accuracy    <       0.00525778 Ry

     iteration # 88     ecut=    30.00 Ry     beta= 0.50
     Davidson diagonalization with overlap
     ethr =  4.06E-07,  avg # of iterations =  2.0

     total cpu time spent up to now is       14.6 secs

     total energy              =    -501.68171012 Ry
     estimated scf accuracy    <       0.00414333 Ry

     iteration # 89     ecut=    30.00 Ry     beta= 0.50
     Davidson diagonalization with overlap
     ethr =  4.06E-07,  avg # of iterations =  1.0

     total cpu time spent up to now is       14.7 secs

     total energy              =    -501.68098169 Ry
     estimated scf accuracy    <       0.00389241 Ry

     iteration # 90     ecut=    30.00 Ry     beta= 0.50
     Davidson diagonalization with overlap
     c_bands:  1 eigenvalues not converged
     ethr =  4.06E-07,  avg # of iterations = 20.0

     total cpu time spent up to now is       14.9 secs

     total energy              =    -501.68331874 Ry
     estimated scf accuracy    <       0.02431634 Ry

     iteration # 91     ecut=    30.00 Ry     beta= 0.50
     Davidson diagonalization with overlap
     c_bands:  1 eigenvalues not converged
     ethr =  4.06E-07,  avg # of iterations = 20.0

     total cpu time spent up to now is       15.0 secs

     total energy              =    -501.68461270 Ry
     estimated scf accuracy    <       0.01872789 Ry

     iteration # 92     ecut=    30.00 Ry     beta= 0.50
     Davidson diagonalization with overlap
     c_bands:  1 eigenvalues not converged
     ethr =  4.06E-07,  avg # of iterations = 20.0

     total cpu time spent up to now is       15.2 secs

     total energy              =    -501.68389027 Ry
     estimated scf accuracy    <       0.02337977 Ry

     iteration # 93     ecut=    30.00 Ry     beta= 0.50
     Davidson diagonalization with overlap
     c_bands:  1 eigenvalues not converged
     ethr =  4.06E-07,  avg # of iterations = 20.0

     total cpu time spent up to now is       15.3 secs

     total energy              =    -501.68317656 Ry
     estimated scf accuracy    <       0.01986113 Ry

     iteration # 94     ecut=    30.00 Ry     beta= 0.50
     Davidson diagonalization with overlap
     ethr =  4.06E-07,  avg # of iterations =  2.0

     total cpu time spent up to now is       15.4 secs

     total energy              =    -501.68271205 Ry
     estimated scf accuracy    <       0.01672175 Ry

     iteration # 95     ecut=    30.00 Ry     beta= 0.50
     Davidson diagonalization with overlap
     ethr =  4.06E-07,  avg # of iterations =  2.0

     total cpu time spent up to now is       15.5 secs

     total energy              =    -501.68269592 Ry
     estimated scf accuracy    <       0.01435416 Ry

     iteration # 96     ecut=    30.00 Ry     beta= 0.50
     Davidson diagonalization with overlap
     ethr =  4.06E-07,  avg # of iterations =  1.0

     total cpu time spent up to now is       15.6 secs

     total energy              =    -501.68283961 Ry
     estimated scf accuracy    <       0.01389802 Ry

     iteration # 97     ecut=    30.00 Ry     beta= 0.50
     Davidson diagonalization with overlap
     ethr =  4.06E-07,  avg # of iterations =  1.0

     total cpu time spent up to now is       15.6 secs

     total energy              =    -501.68312964 Ry
     estimated scf accuracy    <       0.01391758 Ry

     iteration # 98     ecut=    30.00 Ry     beta= 0.50
     Davidson diagonalization with overlap
     ethr =  4.06E-07,  avg # of iterations =  1.0

     total cpu time spent up to now is       15.7 secs

     total energy              =    -501.67896367 Ry
     estimated scf accuracy    <       0.01479829 Ry

     iteration # 99     ecut=    30.00 Ry     beta= 0.50
     Davidson diagonalization with overlap
     c_bands:  1 eigenvalues not converged
     ethr =  4.06E-07,  avg # of iterations = 20.0

     total cpu time spent up to now is       15.9 secs

     total energy              =    -501.68504093 Ry
     estimated scf accuracy    <       0.04851723 Ry

     iteration #100     ecut=    30.00 Ry     beta= 0.50
     Davidson diagonalization with overlap
     ethr =  4.06E-07,  avg # of iterations = 15.0

     total cpu time spent up to now is       16.0 secs

     total energy              =    -501.68346281 Ry
     estimated scf accuracy    <       0.03159673 Ry

     End of self-consistent calculation

     convergence NOT achieved after 100 iterations: stopping

     Writing config to output data dir ./pwscf.save/
     Message from routine punch:
     wavefunctions written to file
 
     init_run     :      1.08s CPU      4.00s WALL (       1 calls)
     electrons    :     11.29s CPU     11.99s WALL (       1 calls)

     Called by init_run:
     wfcinit      :      0.57s CPU      3.34s WALL (       1 calls)
                                        3.34s GPU  (       1 calls)
     potinit      :      0.04s CPU      0.12s WALL (       1 calls)
     hinit0       :      0.45s CPU      0.48s WALL (       1 calls)

     Called by electrons:
     c_bands      :      8.18s CPU      8.54s WALL (     101 calls)
     sum_band     :      1.41s CPU      1.63s WALL (     101 calls)
     v_of_rho     :      0.59s CPU      0.70s WALL (     101 calls)
     mix_rho      :      0.90s CPU      0.94s WALL (     101 calls)

     Called by c_bands:
     init_us_2    :      0.25s CPU      0.27s WALL (     203 calls)
     init_us_2:gp :      0.24s CPU      0.27s WALL (     203 calls)
     regterg      :      7.51s CPU      7.83s WALL (     101 calls)

     Called by *egterg:
     rdiaghg      :      3.76s CPU      4.37s WALL (    1115 calls)
                                        4.19s GPU  (    1115 calls)
     h_psi        :      3.28s CPU      5.72s WALL (    1117 calls)
                                        5.70s GPU  (    1117 calls)
     g_psi        :      0.00s CPU      0.03s WALL (    1015 calls)
                                        0.02s GPU  (    1015 calls)

     Called by h_psi:
     h_psi:calbec :      0.86s CPU      3.12s WALL (    1117 calls)
                                        3.11s GPU  (    1117 calls)
     vloc_psi     :      1.85s CPU      2.01s WALL (    1117 calls)
                                        1.99s GPU  (    1117 calls)
     add_vuspsi   :      0.43s CPU      0.53s WALL (    1117 calls)
                                        0.53s GPU  (    1117 calls)

     General routines
     calbec       :      0.85s CPU      3.10s WALL (    1117 calls)
     fft          :      0.94s CPU      1.08s WALL (     809 calls)
                                        0.17s GPU  (     505 calls)
     ffts         :      0.16s CPU      0.19s WALL (     101 calls)
     fftw         :      2.11s CPU      2.64s WALL (   10302 calls)
                                        2.29s GPU  (   10302 calls)
     davcio       :      0.00s CPU      0.01s WALL (      19 calls)
 
     Parallel routines
 
     PWSCF        :     12.41s CPU     16.08s WALL

 
   This run was terminated on:  15:23:28   9May2023            

=------------------------------------------------------------------------------=
   JOB DONE.
=------------------------------------------------------------------------------=
