An instance of this daemon is already running

     Program PWSCF v.7.1 starts on  9May2023 at 15:15:47 

     This program is part of the open-source Quantum ESPRESSO suite
     for quantum simulation of materials; please cite
         "P. Giannozzi et al., J. Phys.:Condens. Matter 21 395502 (2009);
         "P. Giannozzi et al., J. Phys.:Condens. Matter 29 465901 (2017);
         "P. Giannozzi et al., J. Chem. Phys. 152 154105 (2020);
          URL http://www.quantum-espresso.org", 
     in publications or presentations arising from this work. More details at
     http://www.quantum-espresso.org/quote

     Parallel version (MPI & OpenMP), running on       4 processor cores
     Number of MPI processes:                 4
     Threads/MPI process:                     1

     MPI processes distributed on     1 nodes
     59505 MiB available memory on the printing compute node when the environment starts
 
     Reading input from pw-si-52.in
Warning: card &CELL ignored
Warning: card / ignored

     Current dimensions of program PWSCF are:
     Max number of different atomic species (ntypx) = 10
     Max number of k-points (npk) =  40000
     Max angular momentum in pseudopotentials (lmaxx) =  4

     IMPORTANT: XC functional enforced from input :
     Exchange-correlation= PBE
                           (   1   4   3   4   0   0   0)
     Any further DFT definition will be discarded
     Please, verify this is what you really want


     gamma-point specific algorithms are used
 
     K-points division:     npool     =       2
     R & G space division:  proc/nbgrp/npool/nimage =       2
     Subspace diagonalization in iterative solution of the eigenvalue problem:
     a serial algorithm will be used

     Message from routine divide_et_impera:
     suboptimal parallelization: some nodes have no k-points
 
     Parallelization info
     --------------------
     sticks:   dense  smooth     PW     G-vecs:    dense   smooth      PW
     Min        1999    1999    528                95529    95529   12909
     Max        2002    2002    529                95534    95534   12912
     Sum        4001    4001   1057               191063   191063   25821
 
     Using Slab Decomposition
 


     bravais-lattice index     =            0
     lattice parameter (alat)  =      20.4902  a.u.
     unit-cell volume          =    8602.7542 (a.u.)^3
     number of atoms/cell      =           64
     number of atomic types    =            1
     number of electrons       =       256.00
     number of Kohn-Sham states=          128
     kinetic-energy cutoff     =      30.0000  Ry
     charge density cutoff     =     120.0000  Ry
     scf convergence threshold =      1.0E-06
     mixing beta               =       0.5000
     number of iterations used =            8  plain     mixing
     Exchange-correlation= PBE
                           (   1   4   3   4   0   0   0)

     GPU acceleration is ACTIVE.
     GPU-aware MPI enabled

     Message from routine print_cuda_info:
     High GPU oversubscription detected. Are you sure this is what you want?

     celldm(1)=  20.490183  celldm(2)=   0.000000  celldm(3)=   0.000000
     celldm(4)=   0.000000  celldm(5)=   0.000000  celldm(6)=   0.000000

     crystal axes: (cart. coord. in units of alat)
               a(1) = (   1.000000   0.000000   0.000000 )  
               a(2) = (   0.000000   1.000000   0.000000 )  
               a(3) = (   0.000000   0.000000   1.000000 )  

     reciprocal axes: (cart. coord. in units 2 pi/alat)
               b(1) = (  1.000000  0.000000  0.000000 )  
               b(2) = (  0.000000  1.000000  0.000000 )  
               b(3) = (  0.000000  0.000000  1.000000 )  


     PseudoPot. # 1 for Si read from file:
     /home/ppiaggi/pseudos/Si_ONCV_PBE_sr.upf
     MD5 check sum: 8553c464762ac42b85b1eed164b4d029
     Pseudo is Norm-conserving, Zval =  4.0
     Generated using ONCVPSP code by D. R. Hamann
     Using radial grid of 1510 points,  4 beta functions with: 
                l(1) =   0
                l(2) =   0
                l(3) =   1
                l(4) =   1

     atomic species   valence    mass     pseudopotential
        Si             4.00    28.08500     Si( 1.00)

     No symmetry found



   Cartesian axes

     site n.     atom                  positions (alat units)
         1           Si  tau(   1) = (   0.4075180   0.0701032   0.0387219  )
         2           Si  tau(   2) = (   0.4775960   0.5048250   0.2099550  )
         3           Si  tau(   3) = (   0.8972660   0.6556540   0.3158120  )
         4           Si  tau(   4) = (   0.3276100   0.5431110   0.4430840  )
         5           Si  tau(   5) = (   0.0367493   0.5321890   0.8919240  )
         6           Si  tau(   6) = (   0.1009890   0.1621440   0.5222270  )
         7           Si  tau(   7) = (   0.9300660   0.2982720   0.4182030  )
         8           Si  tau(   8) = (   0.3124840   0.4191680   0.8278390  )
         9           Si  tau(   9) = (   0.6040660   0.0616266   0.6348740  )
        10           Si  tau(  10) = (   0.0392565   0.4416750   0.0727597  )
        11           Si  tau(  11) = (   0.6495800   0.2001590   0.2220560  )
        12           Si  tau(  12) = (   0.6268490   0.2694720   0.4591010  )
        13           Si  tau(  13) = (   0.7923960   0.3990640   0.0821501  )
        14           Si  tau(  14) = (   0.4404890   0.7763730   0.9060470  )
        15           Si  tau(  15) = (   0.3977820   0.0454827   0.5306300  )
        16           Si  tau(  16) = (   0.1034560   0.1152250   0.9167160  )
        17           Si  tau(  17) = (   0.8184950   0.2435600   0.6195070  )
        18           Si  tau(  18) = (   0.0153954   0.8056930   0.1744140  )
        19           Si  tau(  19) = (   0.8094120   0.4973160   0.8657120  )
        20           Si  tau(  20) = (   0.6707540   0.9969930   0.4130380  )
        21           Si  tau(  21) = (   0.8225020   0.4492230   0.2827030  )
        22           Si  tau(  22) = (   0.3041220   0.2762490   0.0028049  )
        23           Si  tau(  23) = (   0.9611520   0.0733385   0.6951530  )
        24           Si  tau(  24) = (   0.5450960   0.7277850   0.7042780  )
        25           Si  tau(  25) = (   0.5836440   0.6844250   0.0799095  )
        26           Si  tau(  26) = (   0.5668850   0.8380020   0.2978530  )
        27           Si  tau(  27) = (   0.9367770   0.8329910   0.9603900  )
        28           Si  tau(  28) = (   0.2001920   0.1262370   0.3056070  )
        29           Si  tau(  29) = (   0.8030800   0.4621600   0.6742510  )
        30           Si  tau(  30) = (   0.0396426   0.9370980   0.3588430  )
        31           Si  tau(  31) = (   0.2040900   0.0202033   0.6510730  )
        32           Si  tau(  32) = (   0.7632360   0.7003720   0.9124390  )
        33           Si  tau(  33) = (   0.2877310   0.6622410   0.1847390  )
        34           Si  tau(  34) = (   0.1974800   0.3313880   0.6155800  )
        35           Si  tau(  35) = (   0.8642440   0.1210080   0.3050030  )
        36           Si  tau(  36) = (   0.2444710   0.9320190   0.9443150  )
        37           Si  tau(  37) = (   0.5918730   0.3692280   0.8248890  )
        38           Si  tau(  38) = (   0.7056980   0.7072930   0.4584350  )
        39           Si  tau(  39) = (   0.5645740   0.9678990   0.9375520  )
        40           Si  tau(  40) = (   0.7115030   0.9847040   0.1283600  )
        41           Si  tau(  41) = (   0.8464530   0.0313055   0.8871830  )
        42           Si  tau(  42) = (   0.2216390   0.8884200   0.1619940  )
        43           Si  tau(  43) = (   0.3402370   0.8648890   0.3831360  )
        44           Si  tau(  44) = (   0.3833940   0.2715880   0.4627400  )
        45           Si  tau(  45) = (   0.4279350   0.4350720   0.6235470  )
        46           Si  tau(  46) = (   0.1277440   0.7547100   0.8628040  )
        47           Si  tau(  47) = (   0.0827042   0.4806240   0.4818270  )
        48           Si  tau(  48) = (   0.9964330   0.7739880   0.5197680  )
        49           Si  tau(  49) = (   0.6945390   0.8621890   0.7492610  )
        50           Si  tau(  50) = (   0.8399720   0.9195540   0.5652840  )
        51           Si  tau(  51) = (   0.8719960   0.1777290   0.0635632  )
        52           Si  tau(  52) = (   0.1653590   0.8098280   0.6585950  )
        53           Si  tau(  53) = (   0.0935489   0.2100120   0.1153390  )
        54           Si  tau(  54) = (   0.1070420   0.5441980   0.2373860  )
        55           Si  tau(  55) = (   0.2684810   0.3558120   0.2555170  )
        56           Si  tau(  56) = (   0.6389370   0.1532340   0.8246970  )
        57           Si  tau(  57) = (   0.4440640   0.0810505   0.2611820  )
        58           Si  tau(  58) = (   0.6236020   0.5447510   0.5981230  )
        59           Si  tau(  59) = (   0.5430490   0.3335930   0.0530989  )
        60           Si  tau(  60) = (   0.3582050   0.7309910   0.5720510  )
        61           Si  tau(  61) = (   0.6308380   0.4813700   0.3830650  )
        62           Si  tau(  62) = (   0.9913780   0.5812320   0.6324970  )
        63           Si  tau(  63) = (   0.0902145   0.3240850   0.8183820  )
        64           Si  tau(  64) = (   0.2882610   0.6067210   0.9579070  )

     number of k points=     1
                       cart. coord. in units 2pi/alat
        k(    1) = (   0.0000000   0.0000000   0.0000000), wk =   2.0000000

     Dense  grid:    95532 G-vectors     FFT dimensions: (  72,  72,  72)

     Estimated max dynamical RAM per process >     139.82 MB

     Estimated total dynamical RAM >     535.94 MB

     Initial potential from superposition of free atoms

     starting charge     255.9608, renormalised to     256.0000
     Starting wfcs are  256 randomized atomic wfcs

     total cpu time spent up to now is        4.3 secs

     Self-consistent Calculation

     iteration #  1     ecut=    30.00 Ry     beta= 0.50
     Davidson diagonalization with overlap
     ethr =  1.00E-02,  avg # of iterations =  2.0

     Threshold (ethr) on eigenvalues was too large:
     Diagonalizing with lowered threshold

     Davidson diagonalization with overlap
     ethr =  4.12E-04,  avg # of iterations =  4.0

     total cpu time spent up to now is        4.5 secs

     total energy              =    -501.31925566 Ry
     estimated scf accuracy    <       1.30446626 Ry

     iteration #  2     ecut=    30.00 Ry     beta= 0.50
     Davidson diagonalization with overlap
     ethr =  5.10E-04,  avg # of iterations = 10.0

     total cpu time spent up to now is        4.6 secs

     total energy              =    -500.98916082 Ry
     estimated scf accuracy    <       3.60826226 Ry

     iteration #  3     ecut=    30.00 Ry     beta= 0.50
     Davidson diagonalization with overlap
     ethr =  5.10E-04,  avg # of iterations = 13.0

     total cpu time spent up to now is        4.7 secs

     total energy              =    -501.37771023 Ry
     estimated scf accuracy    <       1.89319400 Ry

     iteration #  4     ecut=    30.00 Ry     beta= 0.50
     Davidson diagonalization with overlap
     ethr =  5.10E-04,  avg # of iterations =  9.0

     total cpu time spent up to now is        4.8 secs

     total energy              =    -501.52829150 Ry
     estimated scf accuracy    <       0.25776760 Ry

     iteration #  5     ecut=    30.00 Ry     beta= 0.50
     Davidson diagonalization with overlap
     ethr =  1.01E-04,  avg # of iterations = 12.0

     total cpu time spent up to now is        5.0 secs

     total energy              =    -501.56668832 Ry
     estimated scf accuracy    <       0.10480684 Ry

     iteration #  6     ecut=    30.00 Ry     beta= 0.50
     Davidson diagonalization with overlap
     ethr =  4.09E-05,  avg # of iterations =  8.0

     total cpu time spent up to now is        5.1 secs

     total energy              =    -501.57529906 Ry
     estimated scf accuracy    <       0.06995525 Ry

     iteration #  7     ecut=    30.00 Ry     beta= 0.50
     Davidson diagonalization with overlap
     ethr =  2.73E-05,  avg # of iterations =  3.0

     total cpu time spent up to now is        5.2 secs

     total energy              =    -501.57792437 Ry
     estimated scf accuracy    <       0.01706144 Ry

     iteration #  8     ecut=    30.00 Ry     beta= 0.50
     Davidson diagonalization with overlap
     ethr =  6.66E-06,  avg # of iterations = 13.0

     total cpu time spent up to now is        5.3 secs

     total energy              =    -501.58113515 Ry
     estimated scf accuracy    <       0.00798696 Ry

     iteration #  9     ecut=    30.00 Ry     beta= 0.50
     Davidson diagonalization with overlap
     ethr =  3.12E-06,  avg # of iterations =  3.0

     total cpu time spent up to now is        5.4 secs

     total energy              =    -501.58117483 Ry
     estimated scf accuracy    <       0.00517267 Ry

     iteration # 10     ecut=    30.00 Ry     beta= 0.50
     Davidson diagonalization with overlap
     ethr =  2.02E-06,  avg # of iterations = 10.0

     total cpu time spent up to now is        5.5 secs

     total energy              =    -501.58155197 Ry
     estimated scf accuracy    <       0.00079903 Ry

     iteration # 11     ecut=    30.00 Ry     beta= 0.50
     Davidson diagonalization with overlap
     ethr =  3.12E-07,  avg # of iterations = 16.0

     total cpu time spent up to now is        5.6 secs

     total energy              =    -501.58170798 Ry
     estimated scf accuracy    <       0.00094565 Ry

     iteration # 12     ecut=    30.00 Ry     beta= 0.50
     Davidson diagonalization with overlap
     ethr =  3.12E-07,  avg # of iterations = 10.0

     total cpu time spent up to now is        5.7 secs

     total energy              =    -501.58171975 Ry
     estimated scf accuracy    <       0.00033826 Ry

     iteration # 13     ecut=    30.00 Ry     beta= 0.50
     Davidson diagonalization with overlap
     ethr =  1.32E-07,  avg # of iterations =  8.0

     total cpu time spent up to now is        5.8 secs

     total energy              =    -501.58175800 Ry
     estimated scf accuracy    <       0.00009923 Ry

     iteration # 14     ecut=    30.00 Ry     beta= 0.50
     Davidson diagonalization with overlap
     ethr =  3.88E-08,  avg # of iterations =  8.0

     total cpu time spent up to now is        6.0 secs

     total energy              =    -501.58176543 Ry
     estimated scf accuracy    <       0.00003984 Ry

     iteration # 15     ecut=    30.00 Ry     beta= 0.50
     Davidson diagonalization with overlap
     ethr =  1.56E-08,  avg # of iterations =  6.0

     total cpu time spent up to now is        6.0 secs

     total energy              =    -501.58176836 Ry
     estimated scf accuracy    <       0.00000957 Ry

     iteration # 16     ecut=    30.00 Ry     beta= 0.50
     Davidson diagonalization with overlap
     ethr =  3.74E-09,  avg # of iterations =  9.0

     total cpu time spent up to now is        6.2 secs

     total energy              =    -501.58177001 Ry
     estimated scf accuracy    <       0.00000680 Ry

     iteration # 17     ecut=    30.00 Ry     beta= 0.50
     Davidson diagonalization with overlap
     ethr =  2.65E-09,  avg # of iterations = 15.0

     total cpu time spent up to now is        6.3 secs

     total energy              =    -501.58177042 Ry
     estimated scf accuracy    <       0.00000335 Ry

     iteration # 18     ecut=    30.00 Ry     beta= 0.50
     Davidson diagonalization with overlap
     ethr =  1.31E-09,  avg # of iterations = 11.0

     total cpu time spent up to now is        6.4 secs

     total energy              =    -501.58177061 Ry
     estimated scf accuracy    <       0.00000110 Ry

     iteration # 19     ecut=    30.00 Ry     beta= 0.50
     Davidson diagonalization with overlap
     ethr =  4.31E-10,  avg # of iterations =  9.0

     total cpu time spent up to now is        6.5 secs

     End of self-consistent calculation

          k = 0.0000 0.0000 0.0000 ( 11924 PWs)   bands (ev):

    -5.7057  -4.8535  -4.7769  -4.6523  -4.5908  -4.3855  -4.3625  -3.8810
    -3.8162  -3.7069  -3.6336  -3.5173  -3.4733  -3.4144  -3.3202  -3.1640
    -3.1051  -3.0238  -2.9765  -2.6209  -2.4801  -2.4301  -2.3690  -2.2294
    -2.1203  -2.0380  -1.5986  -1.5025  -1.3973  -1.2056  -1.0633  -1.0098
    -0.9043  -0.7206  -0.7112  -0.5427  -0.4828  -0.4163  -0.3273  -0.2567
    -0.2239  -0.1231  -0.1008   0.0116   0.1219   0.2408   0.3049   0.3655
     0.4664   0.5357   0.6270   0.6557   0.7189   0.9270   0.9758   1.1460
     1.3700   1.3959   1.5436   1.5858   1.6819   1.6944   1.8492   1.9322
     2.0468   2.1203   2.1872   2.2669   2.4119   2.4333   2.4813   2.5765
     2.6904   2.7843   2.8508   2.8706   2.9681   3.0941   3.1683   3.2865
     3.4201   3.6254   3.6338   3.7347   3.8065   3.9211   3.9404   4.1167
     4.1460   4.1997   4.2802   4.3247   4.3650   4.4536   4.5160   4.5597
     4.5986   4.6236   4.6720   4.7766   4.8270   4.8948   4.9277   4.9913
     5.0748   5.1278   5.1817   5.2200   5.2818   5.2859   5.3665   5.4588
     5.4668   5.5849   5.6677   5.6999   5.7301   5.8617   5.9085   5.9744
     6.0522   6.0871   6.1170   6.2350   6.2621   6.3074   6.3720   6.4444

     highest occupied level (ev):     6.4444

!    total energy              =    -501.58177010 Ry
     estimated scf accuracy    <       0.00000077 Ry

     The total energy is the sum of the following terms:
     one-electron contribution =     162.64980554 Ry
     hartree contribution      =      31.12035667 Ry
     xc contribution           =    -150.15852388 Ry
     ewald contribution        =    -545.19340842 Ry

     convergence has been achieved in  19 iterations

     Forces acting on atoms (cartesian axes, Ry/au):

     atom    1 type  1   force =    -0.03515600    0.02452388    0.00328215
     atom    2 type  1   force =    -0.00941525   -0.01477525   -0.01381159
     atom    3 type  1   force =     0.01995846    0.02923281    0.01023984
     atom    4 type  1   force =    -0.03005959    0.01698503    0.01918274
     atom    5 type  1   force =    -0.00542017    0.01320811   -0.06753561
     atom    6 type  1   force =    -0.01796635    0.00065267   -0.04807181
     atom    7 type  1   force =     0.00673706    0.00259109    0.03925410
     atom    8 type  1   force =    -0.00989406   -0.00453529    0.00531613
     atom    9 type  1   force =    -0.01732953   -0.01147112   -0.04303431
     atom   10 type  1   force =    -0.03332988   -0.07797747    0.03384627
     atom   11 type  1   force =     0.00115144   -0.01792870   -0.00288666
     atom   12 type  1   force =    -0.02571479   -0.01852701   -0.00238254
     atom   13 type  1   force =     0.00567666   -0.04633420   -0.07078982
     atom   14 type  1   force =     0.01276774   -0.02224702    0.01044415
     atom   15 type  1   force =    -0.00787843    0.01607245   -0.00762452
     atom   16 type  1   force =    -0.00282110    0.01590498    0.00451853
     atom   17 type  1   force =     0.00491415    0.02321675   -0.02972184
     atom   18 type  1   force =    -0.02097091   -0.01692972    0.00743196
     atom   19 type  1   force =     0.01042671    0.02468286    0.14054132
     atom   20 type  1   force =     0.04309333    0.01751289    0.02057020
     atom   21 type  1   force =     0.01074607    0.01056180    0.03539159
     atom   22 type  1   force =     0.02411406   -0.02685933    0.01697569
     atom   23 type  1   force =    -0.01185037    0.01487519   -0.01870066
     atom   24 type  1   force =    -0.06692726   -0.04018687   -0.01203073
     atom   25 type  1   force =    -0.01013090    0.02754976   -0.01231754
     atom   26 type  1   force =    -0.00342737   -0.01442276   -0.01201112
     atom   27 type  1   force =    -0.00519181   -0.00219620    0.01560097
     atom   28 type  1   force =     0.00133091   -0.00234441    0.01018154
     atom   29 type  1   force =     0.01638748   -0.03802728   -0.09487019
     atom   30 type  1   force =    -0.00433093    0.02087393   -0.00802987
     atom   31 type  1   force =    -0.00565566    0.00479784    0.00791453
     atom   32 type  1   force =    -0.02875883    0.03355873    0.01742546
     atom   33 type  1   force =     0.00189946   -0.00057194   -0.02340855
     atom   34 type  1   force =    -0.00905134    0.00756423    0.01291354
     atom   35 type  1   force =    -0.00723345   -0.03242359   -0.02988901
     atom   36 type  1   force =     0.02734868    0.00015408    0.02676174
     atom   37 type  1   force =    -0.00650887   -0.01070055    0.01977202
     atom   38 type  1   force =     0.01008135    0.00457932   -0.01955654
     atom   39 type  1   force =     0.03188266    0.00597791    0.00776922
     atom   40 type  1   force =    -0.01231830    0.01775052   -0.00584358
     atom   41 type  1   force =     0.00507707    0.00467719    0.00054162
     atom   42 type  1   force =     0.01403356   -0.01507861    0.02149237
     atom   43 type  1   force =     0.02901285    0.02675983   -0.02119841
     atom   44 type  1   force =     0.02780572   -0.02082805   -0.00216681
     atom   45 type  1   force =     0.00348311   -0.02021396    0.01865927
     atom   46 type  1   force =    -0.00317817   -0.01528397    0.02002534
     atom   47 type  1   force =     0.06848405   -0.04444057   -0.05995538
     atom   48 type  1   force =    -0.00524456   -0.00701802   -0.01036704
     atom   49 type  1   force =     0.04971582    0.03154434   -0.00674639
     atom   50 type  1   force =    -0.02475981    0.00034900    0.02056849
     atom   51 type  1   force =    -0.01242370   -0.00441384    0.03659522
     atom   52 type  1   force =     0.00976414   -0.01278066   -0.02160394
     atom   53 type  1   force =     0.01418018    0.02912281   -0.02132932
     atom   54 type  1   force =     0.03844841    0.03451945    0.06541337
     atom   55 type  1   force =     0.02413092    0.00335875    0.01069479
     atom   56 type  1   force =     0.01747445   -0.00266168    0.00955164
     atom   57 type  1   force =    -0.01543284   -0.00620016    0.00055159
     atom   58 type  1   force =    -0.01832948    0.02352037    0.01328974
     atom   59 type  1   force =     0.00243438    0.01466519    0.00371006
     atom   60 type  1   force =    -0.00104571   -0.02035758   -0.00533425
     atom   61 type  1   force =    -0.02732906    0.00683360   -0.01555069
     atom   62 type  1   force =    -0.04793773    0.03617310    0.04125008
     atom   63 type  1   force =     0.02713141   -0.00995808   -0.03658301
     atom   64 type  1   force =    -0.01667009    0.03334346   -0.00432554

     Total force =     0.370073     Total SCF correction =     0.001716


     Computing stress (Cartesian axis) and pressure

          total   stress  (Ry/bohr**3)                   (kbar)     P=      -41.39
  -0.00027565   0.00001154  -0.00000885          -40.55        1.70       -1.30
   0.00001154  -0.00024619   0.00009582            1.70      -36.22       14.10
  -0.00000885   0.00009582  -0.00032230           -1.30       14.10      -47.41

 
     init_run     :      0.95s CPU      4.25s WALL (       1 calls)
     electrons    :      2.05s CPU      2.21s WALL (       1 calls)
     forces       :      0.03s CPU      0.03s WALL (       1 calls)
     stress       :      0.13s CPU      0.13s WALL (       1 calls)

     Called by init_run:
     wfcinit      :      0.44s CPU      3.58s WALL (       1 calls)
                                        3.58s GPU  (       1 calls)
     potinit      :      0.03s CPU      0.12s WALL (       1 calls)
     hinit0       :      0.45s CPU      0.48s WALL (       1 calls)

     Called by electrons:
     c_bands      :      1.46s CPU      1.55s WALL (      20 calls)
     sum_band     :      0.28s CPU      0.32s WALL (      20 calls)
     v_of_rho     :      0.13s CPU      0.23s WALL (      20 calls)
     mix_rho      :      0.15s CPU      0.16s WALL (      20 calls)

     Called by c_bands:
     init_us_2    :      0.05s CPU      0.06s WALL (      41 calls)
     init_us_2:gp :      0.05s CPU      0.05s WALL (      41 calls)
     regterg      :      1.32s CPU      1.40s WALL (      20 calls)

     Called by *egterg:
     rdiaghg      :      0.68s CPU      1.33s WALL (     198 calls)
                                        1.30s GPU  (     198 calls)
     h_psi        :      0.88s CPU      3.42s WALL (     200 calls)
                                        3.42s GPU  (     200 calls)
     g_psi        :      0.00s CPU      0.00s WALL (     179 calls)
                                        0.00s GPU  (     179 calls)

     Called by h_psi:
     h_psi:calbec :      0.43s CPU      2.90s WALL (     200 calls)
                                        2.90s GPU  (     200 calls)
     vloc_psi     :      0.35s CPU      0.42s WALL (     200 calls)
                                        0.41s GPU  (     200 calls)
     add_vuspsi   :      0.07s CPU      0.09s WALL (     200 calls)
                                        0.09s GPU  (     200 calls)

     General routines
     calbec       :      0.43s CPU      2.90s WALL (     205 calls)
     fft          :      0.55s CPU      0.68s WALL (     167 calls)
                                        0.12s GPU  (     106 calls)
     ffts         :      0.03s CPU      0.04s WALL (      20 calls)
     fftw         :      0.41s CPU      0.54s WALL (    1984 calls)
                                        0.48s GPU  (    1984 calls)
 
     Parallel routines
 
     PWSCF        :      3.19s CPU      6.70s WALL

 
   This run was terminated on:  15:15:53   9May2023            

=------------------------------------------------------------------------------=
   JOB DONE.
=------------------------------------------------------------------------------=
