An instance of this daemon is already running
An instance of this daemon is already running

     Program PWSCF v.7.1 starts on  9May2023 at 15:21:53 

     This program is part of the open-source Quantum ESPRESSO suite
     for quantum simulation of materials; please cite
         "P. Giannozzi et al., J. Phys.:Condens. Matter 21 395502 (2009);
         "P. Giannozzi et al., J. Phys.:Condens. Matter 29 465901 (2017);
         "P. Giannozzi et al., J. Chem. Phys. 152 154105 (2020);
          URL http://www.quantum-espresso.org", 
     in publications or presentations arising from this work. More details at
     http://www.quantum-espresso.org/quote

     Parallel version (MPI & OpenMP), running on       4 processor cores
     Number of MPI processes:                 4
     Threads/MPI process:                     1

     MPI processes distributed on     1 nodes
     49074 MiB available memory on the printing compute node when the environment starts
 
     Reading input from pw-si-81.in
Warning: card &CELL ignored
Warning: card / ignored

     Current dimensions of program PWSCF are:
     Max number of different atomic species (ntypx) = 10
     Max number of k-points (npk) =  40000
     Max angular momentum in pseudopotentials (lmaxx) =  4

     IMPORTANT: XC functional enforced from input :
     Exchange-correlation= PBE
                           (   1   4   3   4   0   0   0)
     Any further DFT definition will be discarded
     Please, verify this is what you really want


     gamma-point specific algorithms are used
 
     K-points division:     npool     =       2
     R & G space division:  proc/nbgrp/npool/nimage =       2
     Subspace diagonalization in iterative solution of the eigenvalue problem:
     a serial algorithm will be used

     Message from routine divide_et_impera:
     suboptimal parallelization: some nodes have no k-points
 
     Parallelization info
     --------------------
     sticks:   dense  smooth     PW     G-vecs:    dense   smooth      PW
     Min        1953    1953    519                91863    91863   12442
     Max        1956    1956    522                91868    91868   12443
     Sum        3909    3909   1041               183731   183731   24885
 
     Using Slab Decomposition
 


     bravais-lattice index     =            0
     lattice parameter (alat)  =      20.2329  a.u.
     unit-cell volume          =    8282.7537 (a.u.)^3
     number of atoms/cell      =           64
     number of atomic types    =            1
     number of electrons       =       256.00
     number of Kohn-Sham states=          128
     kinetic-energy cutoff     =      30.0000  Ry
     charge density cutoff     =     120.0000  Ry
     scf convergence threshold =      1.0E-06
     mixing beta               =       0.5000
     number of iterations used =            8  plain     mixing
     Exchange-correlation= PBE
                           (   1   4   3   4   0   0   0)

     GPU acceleration is ACTIVE.
     GPU-aware MPI enabled

     Message from routine print_cuda_info:
     High GPU oversubscription detected. Are you sure this is what you want?

     celldm(1)=  20.232905  celldm(2)=   0.000000  celldm(3)=   0.000000
     celldm(4)=   0.000000  celldm(5)=   0.000000  celldm(6)=   0.000000

     crystal axes: (cart. coord. in units of alat)
               a(1) = (   1.000000   0.000000   0.000000 )  
               a(2) = (   0.000000   1.000000   0.000000 )  
               a(3) = (   0.000000   0.000000   1.000000 )  

     reciprocal axes: (cart. coord. in units 2 pi/alat)
               b(1) = (  1.000000  0.000000  0.000000 )  
               b(2) = (  0.000000  1.000000  0.000000 )  
               b(3) = (  0.000000  0.000000  1.000000 )  


     PseudoPot. # 1 for Si read from file:
     /home/ppiaggi/pseudos/Si_ONCV_PBE_sr.upf
     MD5 check sum: 8553c464762ac42b85b1eed164b4d029
     Pseudo is Norm-conserving, Zval =  4.0
     Generated using ONCVPSP code by D. R. Hamann
     Using radial grid of 1510 points,  4 beta functions with: 
                l(1) =   0
                l(2) =   0
                l(3) =   1
                l(4) =   1

     atomic species   valence    mass     pseudopotential
        Si             4.00    28.08500     Si( 1.00)

     No symmetry found



   Cartesian axes

     site n.     atom                  positions (alat units)
         1           Si  tau(   1) = (   0.0175207   0.5344330   0.2645540  )
         2           Si  tau(   2) = (   0.8476420   0.7385550   0.3228080  )
         3           Si  tau(   3) = (   0.9899930   0.1848680   0.3735690  )
         4           Si  tau(   4) = (   0.2743270   0.9965730   0.0108153  )
         5           Si  tau(   5) = (   0.9115970   0.2210780   0.0106435  )
         6           Si  tau(   6) = (   0.4956160   0.9580580   0.5598600  )
         7           Si  tau(   7) = (   0.4737340   0.3323870   0.5664110  )
         8           Si  tau(   8) = (   0.6710510   0.4248380   0.1445560  )
         9           Si  tau(   9) = (   0.9119880   0.8864650   0.4766330  )
        10           Si  tau(  10) = (   0.7620720   0.1420810   0.7929760  )
        11           Si  tau(  11) = (   0.6594210   0.7742710   0.1570290  )
        12           Si  tau(  12) = (   0.5045980   0.2296420   0.3464170  )
        13           Si  tau(  13) = (   0.8232150   0.6126190   0.7480330  )
        14           Si  tau(  14) = (   0.8450710   0.9111120   0.7835290  )
        15           Si  tau(  15) = (   0.7239510   0.2675690   0.4626180  )
        16           Si  tau(  16) = (   0.6416170   0.9820090   0.9433260  )
        17           Si  tau(  17) = (   0.3578340   0.0936605   0.4564610  )
        18           Si  tau(  18) = (   0.7405470   0.0177667   0.4866790  )
        19           Si  tau(  19) = (   0.8924300   0.1836200   0.6224750  )
        20           Si  tau(  20) = (   0.9964950   0.6961900   0.6054040  )
        21           Si  tau(  21) = (   0.7423770   0.9964500   0.2518820  )
        22           Si  tau(  22) = (   0.1481860   0.9333490   0.4328250  )
        23           Si  tau(  23) = (   0.2450540   0.7721730   0.0786921  )
        24           Si  tau(  24) = (   0.0332905   0.3626550   0.6536360  )
        25           Si  tau(  25) = (   0.6766480   0.5686300   0.3401980  )
        26           Si  tau(  26) = (   0.3683610   0.8037230   0.6733790  )
        27           Si  tau(  27) = (   0.1904160   0.7204950   0.3077920  )
        28           Si  tau(  28) = (   0.2304100   0.6797270   0.5459520  )
        29           Si  tau(  29) = (   0.4312280   0.6009150   0.3740160  )
        30           Si  tau(  30) = (   0.4405460   0.1406780   0.8997710  )
        31           Si  tau(  31) = (   0.7121540   0.8047340   0.6213160  )
        32           Si  tau(  32) = (   0.6285040   0.7659490   0.9050190  )
        33           Si  tau(  33) = (   0.7517850   0.5822960   0.0036590  )
        34           Si  tau(  34) = (   0.1367540   0.2181320   0.9903780  )
        35           Si  tau(  35) = (   0.2265770   0.9561340   0.7684700  )
        36           Si  tau(  36) = (   0.4395560   0.7816780   0.2177300  )
        37           Si  tau(  37) = (   0.0223738   0.0033818   0.6603200  )
        38           Si  tau(  38) = (   0.0082978   0.6191730   0.9944410  )
        39           Si  tau(  39) = (   0.9401760   0.4203970   0.8830420  )
        40           Si  tau(  40) = (   0.2144730   0.5766860   0.7692420  )
        41           Si  tau(  41) = (   0.8634110   0.9723070   0.0550758  )
        42           Si  tau(  42) = (   0.1513900   0.3545640   0.2995220  )
        43           Si  tau(  43) = (   0.0935012   0.0274875   0.2036210  )
        44           Si  tau(  44) = (   0.7726120   0.4703330   0.4896760  )
        45           Si  tau(  45) = (   0.5110280   0.3338090   0.9742870  )
        46           Si  tau(  46) = (   0.5682660   0.1152270   0.6891280  )
        47           Si  tau(  47) = (   0.4180940   0.4717200   0.8468020  )
        48           Si  tau(  48) = (   0.7067850   0.3503280   0.8657810  )
        49           Si  tau(  49) = (   0.5640680   0.1027290   0.1468650  )
        50           Si  tau(  50) = (   0.0527320   0.7793260   0.8374580  )
        51           Si  tau(  51) = (   0.5249210   0.6683630   0.5524900  )
        52           Si  tau(  52) = (   0.8013210   0.2412940   0.1986540  )
        53           Si  tau(  53) = (   0.9804390   0.5223940   0.4896080  )
        54           Si  tau(  54) = (   0.2659050   0.3585600   0.1270770  )
        55           Si  tau(  55) = (   0.1818930   0.3393490   0.8317120  )
        56           Si  tau(  56) = (   0.4488760   0.4267800   0.2217890  )
        57           Si  tau(  57) = (   0.5982910   0.5092670   0.6748270  )
        58           Si  tau(  58) = (   0.2747880   0.4463150   0.4790150  )
        59           Si  tau(  59) = (   0.2368220   0.5512840   0.0268898  )
        60           Si  tau(  60) = (   0.1871980   0.2199720   0.5222270  )
        61           Si  tau(  61) = (   0.9869830   0.8044590   0.1396360  )
        62           Si  tau(  62) = (   0.3745660   0.9977210   0.2356570  )
        63           Si  tau(  63) = (   0.3169380   0.1926100   0.7278080  )
        64           Si  tau(  64) = (   0.4235080   0.7075710   0.8757340  )

     number of k points=     1
                       cart. coord. in units 2pi/alat
        k(    1) = (   0.0000000   0.0000000   0.0000000), wk =   2.0000000

     Dense  grid:    91866 G-vectors     FFT dimensions: (  72,  72,  72)

     Estimated max dynamical RAM per process >     135.15 MB

     Estimated total dynamical RAM >     518.18 MB

     Initial potential from superposition of free atoms

     starting charge     255.9608, renormalised to     256.0000
     Starting wfcs are  256 randomized atomic wfcs

     total cpu time spent up to now is        4.3 secs

     Self-consistent Calculation

     iteration #  1     ecut=    30.00 Ry     beta= 0.50
     Davidson diagonalization with overlap
     ethr =  1.00E-02,  avg # of iterations =  2.0

     Threshold (ethr) on eigenvalues was too large:
     Diagonalizing with lowered threshold

     Davidson diagonalization with overlap
     ethr =  3.47E-04,  avg # of iterations =  6.0

     total cpu time spent up to now is        4.5 secs

     total energy              =    -501.28926029 Ry
     estimated scf accuracy    <       1.13280028 Ry

     iteration #  2     ecut=    30.00 Ry     beta= 0.50
     Davidson diagonalization with overlap
     ethr =  4.43E-04,  avg # of iterations =  5.0

     total cpu time spent up to now is        4.6 secs

     total energy              =    -501.17782007 Ry
     estimated scf accuracy    <       1.39033641 Ry

     iteration #  3     ecut=    30.00 Ry     beta= 0.50
     Davidson diagonalization with overlap
     ethr =  4.43E-04,  avg # of iterations =  6.0

     total cpu time spent up to now is        4.7 secs

     total energy              =    -501.30563417 Ry
     estimated scf accuracy    <       1.64595819 Ry

     iteration #  4     ecut=    30.00 Ry     beta= 0.50
     Davidson diagonalization with overlap
     ethr =  4.43E-04,  avg # of iterations =  3.0

     total cpu time spent up to now is        4.8 secs

     total energy              =    -501.43897756 Ry
     estimated scf accuracy    <       0.18571428 Ry

     iteration #  5     ecut=    30.00 Ry     beta= 0.50
     Davidson diagonalization with overlap
     ethr =  7.25E-05,  avg # of iterations =  5.0

     total cpu time spent up to now is        4.9 secs

     total energy              =    -501.47018026 Ry
     estimated scf accuracy    <       0.09019770 Ry

     iteration #  6     ecut=    30.00 Ry     beta= 0.50
     Davidson diagonalization with overlap
     ethr =  3.52E-05,  avg # of iterations =  8.0

     total cpu time spent up to now is        5.0 secs

     total energy              =    -501.47279255 Ry
     estimated scf accuracy    <       0.12726908 Ry

     iteration #  7     ecut=    30.00 Ry     beta= 0.50
     Davidson diagonalization with overlap
     ethr =  3.52E-05,  avg # of iterations =  6.0

     total cpu time spent up to now is        5.1 secs

     total energy              =    -501.47756045 Ry
     estimated scf accuracy    <       0.02091961 Ry

     iteration #  8     ecut=    30.00 Ry     beta= 0.50
     Davidson diagonalization with overlap
     ethr =  8.17E-06,  avg # of iterations = 13.0

     total cpu time spent up to now is        5.2 secs

     total energy              =    -501.48237815 Ry
     estimated scf accuracy    <       0.01515216 Ry

     iteration #  9     ecut=    30.00 Ry     beta= 0.50
     Davidson diagonalization with overlap
     ethr =  5.92E-06,  avg # of iterations =  3.0

     total cpu time spent up to now is        5.3 secs

     total energy              =    -501.48182975 Ry
     estimated scf accuracy    <       0.01101075 Ry

     iteration # 10     ecut=    30.00 Ry     beta= 0.50
     Davidson diagonalization with overlap
     ethr =  4.30E-06,  avg # of iterations =  7.0

     total cpu time spent up to now is        5.4 secs

     total energy              =    -501.48190965 Ry
     estimated scf accuracy    <       0.00307842 Ry

     iteration # 11     ecut=    30.00 Ry     beta= 0.50
     Davidson diagonalization with overlap
     ethr =  1.20E-06,  avg # of iterations = 12.0

     total cpu time spent up to now is        5.5 secs

     total energy              =    -501.48253283 Ry
     estimated scf accuracy    <       0.00178720 Ry

     iteration # 12     ecut=    30.00 Ry     beta= 0.50
     Davidson diagonalization with overlap
     ethr =  6.98E-07,  avg # of iterations =  2.0

     total cpu time spent up to now is        5.6 secs

     total energy              =    -501.48244866 Ry
     estimated scf accuracy    <       0.00114021 Ry

     iteration # 13     ecut=    30.00 Ry     beta= 0.50
     Davidson diagonalization with overlap
     ethr =  4.45E-07,  avg # of iterations = 15.0

     total cpu time spent up to now is        5.7 secs

     total energy              =    -501.48254799 Ry
     estimated scf accuracy    <       0.00007774 Ry

     iteration # 14     ecut=    30.00 Ry     beta= 0.50
     Davidson diagonalization with overlap
     ethr =  3.04E-08,  avg # of iterations = 13.0

     total cpu time spent up to now is        5.9 secs

     total energy              =    -501.48257731 Ry
     estimated scf accuracy    <       0.00014218 Ry

     iteration # 15     ecut=    30.00 Ry     beta= 0.50
     Davidson diagonalization with overlap
     ethr =  3.04E-08,  avg # of iterations =  3.0

     total cpu time spent up to now is        5.9 secs

     total energy              =    -501.48257169 Ry
     estimated scf accuracy    <       0.00009109 Ry

     iteration # 16     ecut=    30.00 Ry     beta= 0.50
     Davidson diagonalization with overlap
     ethr =  3.04E-08,  avg # of iterations =  3.0

     total cpu time spent up to now is        6.0 secs

     total energy              =    -501.48257635 Ry
     estimated scf accuracy    <       0.00001616 Ry

     iteration # 17     ecut=    30.00 Ry     beta= 0.50
     Davidson diagonalization with overlap
     c_bands:  1 eigenvalues not converged
     ethr =  6.31E-09,  avg # of iterations = 20.0

     total cpu time spent up to now is        6.2 secs

     total energy              =    -501.48257990 Ry
     estimated scf accuracy    <       0.00003120 Ry

     iteration # 18     ecut=    30.00 Ry     beta= 0.50
     Davidson diagonalization with overlap
     ethr =  6.31E-09,  avg # of iterations =  8.0

     total cpu time spent up to now is        6.3 secs

     total energy              =    -501.48258049 Ry
     estimated scf accuracy    <       0.00001203 Ry

     iteration # 19     ecut=    30.00 Ry     beta= 0.50
     Davidson diagonalization with overlap
     ethr =  4.70E-09,  avg # of iterations =  3.0

     total cpu time spent up to now is        6.4 secs

     total energy              =    -501.48258064 Ry
     estimated scf accuracy    <       0.00000440 Ry

     iteration # 20     ecut=    30.00 Ry     beta= 0.50
     Davidson diagonalization with overlap
     ethr =  1.72E-09,  avg # of iterations = 13.0

     total cpu time spent up to now is        6.5 secs

     total energy              =    -501.48258115 Ry
     estimated scf accuracy    <       0.00000131 Ry

     iteration # 21     ecut=    30.00 Ry     beta= 0.50
     Davidson diagonalization with overlap
     ethr =  5.12E-10,  avg # of iterations =  9.0

     total cpu time spent up to now is        6.6 secs

     End of self-consistent calculation

          k = 0.0000 0.0000 0.0000 ( 11492 PWs)   bands (ev):

    -5.4368  -4.5852  -4.4197  -4.2476  -4.2275  -4.1331  -4.1055  -3.5439
    -3.3675  -3.3108  -3.2546  -3.2103  -3.1748  -3.1054  -3.0015  -2.9542
    -2.8170  -2.7932  -2.7141  -2.2598  -2.0587  -1.9782  -1.8607  -1.7390
    -1.6414  -1.6008  -1.4822  -1.1010  -1.0975  -0.9256  -0.8899  -0.7549
    -0.5411  -0.3137  -0.2507  -0.1441  -0.0629   0.0103   0.0503   0.1421
     0.3106   0.3519   0.3904   0.4596   0.5353   0.5942   0.6581   0.7442
     0.7968   0.9263   1.0318   1.0749   1.1627   1.2677   1.3657   1.4409
     1.5555   1.6426   1.7483   1.8852   1.9680   2.1382   2.2695   2.3466
     2.3506   2.5422   2.5584   2.6388   2.6881   2.7543   2.7844   2.9077
     2.9605   3.1239   3.1535   3.2356   3.3398   3.3811   3.4823   3.5702
     3.7265   3.9119   4.0344   4.1230   4.2546   4.2754   4.3431   4.4981
     4.5414   4.5619   4.6490   4.7342   4.8041   4.8615   4.9143   4.9794
     4.9983   5.0918   5.1990   5.2503   5.3146   5.3343   5.3956   5.4720
     5.5273   5.5407   5.6304   5.6837   5.7595   5.8084   5.8597   5.8805
     6.0059   6.0376   6.1302   6.1646   6.2252   6.2836   6.2972   6.4240
     6.4551   6.5385   6.6169   6.7069   6.7281   6.7432   6.8688   6.8933

     highest occupied level (ev):     6.8933

!    total energy              =    -501.48258043 Ry
     estimated scf accuracy    <       0.00000100 Ry

     The total energy is the sum of the following terms:
     one-electron contribution =     183.63124418 Ry
     hartree contribution      =      24.52628734 Ry
     xc contribution           =    -150.58229055 Ry
     ewald contribution        =    -559.05782140 Ry

     convergence has been achieved in  21 iterations

     Forces acting on atoms (cartesian axes, Ry/au):

     atom    1 type  1   force =     0.02014163    0.04620145    0.02371732
     atom    2 type  1   force =    -0.00407360    0.00422012   -0.03782944
     atom    3 type  1   force =     0.02808917   -0.00748677   -0.02911652
     atom    4 type  1   force =    -0.00284360    0.03013139   -0.00484084
     atom    5 type  1   force =     0.01491669   -0.02157975   -0.02156995
     atom    6 type  1   force =     0.03973480   -0.01716315    0.01681899
     atom    7 type  1   force =    -0.01612332   -0.00867115    0.00715285
     atom    8 type  1   force =    -0.03365375   -0.00787251    0.01359749
     atom    9 type  1   force =     0.05320532   -0.04472066    0.01081272
     atom   10 type  1   force =    -0.02222270   -0.00687349    0.03887914
     atom   11 type  1   force =     0.00984802    0.00696137   -0.02315324
     atom   12 type  1   force =     0.02680911    0.01789009    0.01180155
     atom   13 type  1   force =    -0.00203572   -0.01111310   -0.01217501
     atom   14 type  1   force =     0.01207445   -0.01898693    0.00462023
     atom   15 type  1   force =    -0.03066768   -0.06842589   -0.01774333
     atom   16 type  1   force =     0.02498280    0.03571295    0.01817086
     atom   17 type  1   force =    -0.00490283   -0.00300114   -0.05695677
     atom   18 type  1   force =    -0.04612868    0.01425739   -0.02211085
     atom   19 type  1   force =     0.01900289    0.02518582   -0.03481489
     atom   20 type  1   force =     0.01245072    0.05613186    0.03949723
     atom   21 type  1   force =    -0.01874427   -0.00217589    0.00195182
     atom   22 type  1   force =    -0.02960017   -0.00406969   -0.03611626
     atom   23 type  1   force =     0.03169781   -0.00582925    0.01134313
     atom   24 type  1   force =     0.01580146   -0.00911362    0.00754685
     atom   25 type  1   force =    -0.04924674    0.05668582   -0.06875632
     atom   26 type  1   force =     0.01671745   -0.00108767   -0.00294802
     atom   27 type  1   force =    -0.02580036    0.01775137    0.01177354
     atom   28 type  1   force =    -0.02425802   -0.02895019   -0.00975271
     atom   29 type  1   force =    -0.00673003    0.01153051   -0.04761908
     atom   30 type  1   force =     0.00998350   -0.05233466    0.01209461
     atom   31 type  1   force =     0.00130635   -0.00238185    0.01735061
     atom   32 type  1   force =     0.03032669   -0.00292590    0.01115245
     atom   33 type  1   force =     0.03464630    0.01642754   -0.00480015
     atom   34 type  1   force =    -0.00231180   -0.06491118    0.06471934
     atom   35 type  1   force =    -0.04102725    0.01057270    0.00943611
     atom   36 type  1   force =    -0.02994212   -0.00999717    0.00307239
     atom   37 type  1   force =     0.01951568   -0.00453848    0.00326751
     atom   38 type  1   force =    -0.01074269   -0.01666100    0.01346760
     atom   39 type  1   force =    -0.01852933    0.01759905   -0.02067382
     atom   40 type  1   force =    -0.00902381   -0.00736552    0.01630242
     atom   41 type  1   force =     0.00086532    0.02031577   -0.00612401
     atom   42 type  1   force =    -0.03264183   -0.00753041    0.06886514
     atom   43 type  1   force =    -0.01264246   -0.00493161    0.03189511
     atom   44 type  1   force =     0.00173508   -0.00599030    0.08128740
     atom   45 type  1   force =     0.03440072   -0.02030363    0.05523955
     atom   46 type  1   force =    -0.02073418    0.02888041    0.01873446
     atom   47 type  1   force =    -0.03441264    0.07610166   -0.03866382
     atom   48 type  1   force =     0.00934472    0.02397926   -0.00347968
     atom   49 type  1   force =     0.01183991   -0.00525562    0.01744644
     atom   50 type  1   force =    -0.00708752   -0.01421154   -0.04082546
     atom   51 type  1   force =     0.01622491    0.04920888    0.02090336
     atom   52 type  1   force =    -0.01842583    0.00040511    0.04706764
     atom   53 type  1   force =     0.01409653   -0.03787702   -0.00757833
     atom   54 type  1   force =     0.01449469   -0.01087982   -0.04442647
     atom   55 type  1   force =    -0.00168344    0.06213414   -0.09071280
     atom   56 type  1   force =     0.05145512   -0.02246493    0.02714079
     atom   57 type  1   force =     0.02079489   -0.06081534    0.01726351
     atom   58 type  1   force =     0.01496036   -0.01029390    0.01148417
     atom   59 type  1   force =    -0.02850907    0.03398127   -0.05705873
     atom   60 type  1   force =    -0.02172408    0.01532938    0.00418349
     atom   61 type  1   force =     0.01570298   -0.02221926    0.01567115
     atom   62 type  1   force =    -0.00267200   -0.00510376   -0.00274635
     atom   63 type  1   force =     0.01407917   -0.00236601   -0.03355170
     atom   64 type  1   force =    -0.03210374   -0.01911560   -0.00958444

     Total force =     0.393743     Total SCF correction =     0.002008


     Computing stress (Cartesian axis) and pressure

          total   stress  (Ry/bohr**3)                   (kbar)     P=      -35.59
  -0.00026140   0.00000066   0.00004891          -38.45        0.10        7.20
   0.00000066  -0.00025926  -0.00001243            0.10      -38.14       -1.83
   0.00004891  -0.00001243  -0.00020506            7.20       -1.83      -30.17

 
     init_run     :      0.98s CPU      4.26s WALL (       1 calls)
     electrons    :      2.13s CPU      2.27s WALL (       1 calls)
     forces       :      0.03s CPU      0.03s WALL (       1 calls)
     stress       :      0.14s CPU      0.14s WALL (       1 calls)

     Called by init_run:
     wfcinit      :      0.46s CPU      3.59s WALL (       1 calls)
                                        3.59s GPU  (       1 calls)
     potinit      :      0.05s CPU      0.13s WALL (       1 calls)
     hinit0       :      0.45s CPU      0.48s WALL (       1 calls)

     Called by electrons:
     c_bands      :      1.48s CPU      1.54s WALL (      22 calls)
     sum_band     :      0.31s CPU      0.36s WALL (      22 calls)
     v_of_rho     :      0.15s CPU      0.24s WALL (      22 calls)
     mix_rho      :      0.16s CPU      0.18s WALL (      22 calls)

     Called by c_bands:
     init_us_2    :      0.05s CPU      0.06s WALL (      45 calls)
     init_us_2:gp :      0.05s CPU      0.06s WALL (      45 calls)
     regterg      :      1.33s CPU      1.38s WALL (      22 calls)

     Called by *egterg:
     rdiaghg      :      0.65s CPU      1.30s WALL (     186 calls)
                                        1.27s GPU  (     186 calls)
     h_psi        :      0.92s CPU      3.45s WALL (     188 calls)
                                        3.44s GPU  (     188 calls)
     g_psi        :      0.00s CPU      0.00s WALL (     165 calls)
                                        0.00s GPU  (     165 calls)

     Called by h_psi:
     h_psi:calbec :      0.45s CPU      2.91s WALL (     188 calls)
                                        2.91s GPU  (     188 calls)
     vloc_psi     :      0.38s CPU      0.44s WALL (     188 calls)
                                        0.44s GPU  (     188 calls)
     add_vuspsi   :      0.07s CPU      0.09s WALL (     188 calls)
                                        0.09s GPU  (     188 calls)

     General routines
     calbec       :      0.45s CPU      2.91s WALL (     193 calls)
     fft          :      0.57s CPU      0.69s WALL (     183 calls)
                                        0.12s GPU  (     116 calls)
     ffts         :      0.04s CPU      0.04s WALL (      22 calls)
     fftw         :      0.44s CPU      0.58s WALL (    2118 calls)
                                        0.51s GPU  (    2118 calls)
 
     Parallel routines
 
     PWSCF        :      3.31s CPU      6.78s WALL

 
   This run was terminated on:  15:22: 0   9May2023            

=------------------------------------------------------------------------------=
   JOB DONE.
=------------------------------------------------------------------------------=
