An instance of this daemon is already running
An instance of this daemon is already running
An instance of this daemon is already running

     Program PWSCF v.7.1 starts on  9May2023 at 15:25:35 

     This program is part of the open-source Quantum ESPRESSO suite
     for quantum simulation of materials; please cite
         "P. Giannozzi et al., J. Phys.:Condens. Matter 21 395502 (2009);
         "P. Giannozzi et al., J. Phys.:Condens. Matter 29 465901 (2017);
         "P. Giannozzi et al., J. Chem. Phys. 152 154105 (2020);
          URL http://www.quantum-espresso.org", 
     in publications or presentations arising from this work. More details at
     http://www.quantum-espresso.org/quote

     Parallel version (MPI & OpenMP), running on       4 processor cores
     Number of MPI processes:                 4
     Threads/MPI process:                     1

     MPI processes distributed on     1 nodes
     42360 MiB available memory on the printing compute node when the environment starts
 
     Reading input from pw-si-99.in
Warning: card &CELL ignored
Warning: card / ignored

     Current dimensions of program PWSCF are:
     Max number of different atomic species (ntypx) = 10
     Max number of k-points (npk) =  40000
     Max angular momentum in pseudopotentials (lmaxx) =  4

     IMPORTANT: XC functional enforced from input :
     Exchange-correlation= PBE
                           (   1   4   3   4   0   0   0)
     Any further DFT definition will be discarded
     Please, verify this is what you really want


     gamma-point specific algorithms are used
 
     K-points division:     npool     =       2
     R & G space division:  proc/nbgrp/npool/nimage =       2
     Subspace diagonalization in iterative solution of the eigenvalue problem:
     a serial algorithm will be used

     Message from routine divide_et_impera:
     suboptimal parallelization: some nodes have no k-points
 
     Parallelization info
     --------------------
     sticks:   dense  smooth     PW     G-vecs:    dense   smooth      PW
     Min        1946    1946    516                91133    91133   12416
     Max        1947    1947    517                91134    91134   12421
     Sum        3893    3893   1033               182267   182267   24837
 
     Using Slab Decomposition
 


     bravais-lattice index     =            0
     lattice parameter (alat)  =      20.1787  a.u.
     unit-cell volume          =    8216.3680 (a.u.)^3
     number of atoms/cell      =           64
     number of atomic types    =            1
     number of electrons       =       256.00
     number of Kohn-Sham states=          128
     kinetic-energy cutoff     =      30.0000  Ry
     charge density cutoff     =     120.0000  Ry
     scf convergence threshold =      1.0E-06
     mixing beta               =       0.5000
     number of iterations used =            8  plain     mixing
     Exchange-correlation= PBE
                           (   1   4   3   4   0   0   0)

     GPU acceleration is ACTIVE.
     GPU-aware MPI enabled

     Message from routine print_cuda_info:
     High GPU oversubscription detected. Are you sure this is what you want?

     celldm(1)=  20.178705  celldm(2)=   0.000000  celldm(3)=   0.000000
     celldm(4)=   0.000000  celldm(5)=   0.000000  celldm(6)=   0.000000

     crystal axes: (cart. coord. in units of alat)
               a(1) = (   1.000000   0.000000   0.000000 )  
               a(2) = (   0.000000   1.000000   0.000000 )  
               a(3) = (   0.000000   0.000000   1.000000 )  

     reciprocal axes: (cart. coord. in units 2 pi/alat)
               b(1) = (  1.000000  0.000000  0.000000 )  
               b(2) = (  0.000000  1.000000  0.000000 )  
               b(3) = (  0.000000  0.000000  1.000000 )  


     PseudoPot. # 1 for Si read from file:
     /home/ppiaggi/pseudos/Si_ONCV_PBE_sr.upf
     MD5 check sum: 8553c464762ac42b85b1eed164b4d029
     Pseudo is Norm-conserving, Zval =  4.0
     Generated using ONCVPSP code by D. R. Hamann
     Using radial grid of 1510 points,  4 beta functions with: 
                l(1) =   0
                l(2) =   0
                l(3) =   1
                l(4) =   1

     atomic species   valence    mass     pseudopotential
        Si             4.00    28.08500     Si( 1.00)

     No symmetry found



   Cartesian axes

     site n.     atom                  positions (alat units)
         1           Si  tau(   1) = (   0.9137380   0.5793030   0.7545740  )
         2           Si  tau(   2) = (   0.8609910   0.9619310   0.6952940  )
         3           Si  tau(   3) = (   0.0258349   0.6965090   0.3862400  )
         4           Si  tau(   4) = (   0.0828929   0.2182250   0.4304230  )
         5           Si  tau(   5) = (   0.2976590   0.1677580   0.9419050  )
         6           Si  tau(   6) = (   0.7931450   0.2432670   0.6878430  )
         7           Si  tau(   7) = (   0.8850470   0.5703580   0.1923940  )
         8           Si  tau(   8) = (   0.2595950   0.5084510   0.8536290  )
         9           Si  tau(   9) = (   0.0550905   0.1160380   0.8790540  )
        10           Si  tau(  10) = (   0.6410150   0.8344900   0.8421200  )
        11           Si  tau(  11) = (   0.2630750   0.3516880   0.0413032  )
        12           Si  tau(  12) = (   0.2551220   0.9301270   0.8523040  )
        13           Si  tau(  13) = (   0.1241020   0.7339240   0.7407620  )
        14           Si  tau(  14) = (   0.2936190   0.3246070   0.4912070  )
        15           Si  tau(  15) = (   0.8799370   0.5520400   0.5022240  )
        16           Si  tau(  16) = (   0.7446710   0.7211490   0.6552250  )
        17           Si  tau(  17) = (   0.4072290   0.1462320   0.2255300  )
        18           Si  tau(  18) = (   0.8044970   0.1161420   0.1022650  )
        19           Si  tau(  19) = (   0.1149240   0.5920940   0.1864210  )
        20           Si  tau(  20) = (   0.5135890   0.2554070   0.4126270  )
        21           Si  tau(  21) = (   0.6138350   0.5795410   0.4025750  )
        22           Si  tau(  22) = (   0.8531970   0.3641730   0.8425420  )
        23           Si  tau(  23) = (   0.4662850   0.8761990   0.9785990  )
        24           Si  tau(  24) = (   0.1931530   0.7019140   0.0027188  )
        25           Si  tau(  25) = (   0.7140540   0.4933890   0.9957750  )
        26           Si  tau(  26) = (   0.0951187   0.3619920   0.1571520  )
        27           Si  tau(  27) = (   0.9673980   0.8671820   0.8629450  )
        28           Si  tau(  28) = (   0.5980750   0.9097110   0.2038790  )
        29           Si  tau(  29) = (   0.2998870   0.5425250   0.3008090  )
        30           Si  tau(  30) = (   0.4767160   0.3030060   0.8274400  )
        31           Si  tau(  31) = (   0.4628330   0.6889040   0.7521070  )
        32           Si  tau(  32) = (   0.9154780   0.3743260   0.3199660  )
        33           Si  tau(  33) = (   0.6897070   0.0638558   0.7962560  )
        34           Si  tau(  34) = (   0.2286810   0.9968780   0.6384110  )
        35           Si  tau(  35) = (   0.9607140   0.2620550   0.0054620  )
        36           Si  tau(  36) = (   0.0239092   0.8650590   0.2332720  )
        37           Si  tau(  37) = (   0.0217757   0.1468590   0.6431100  )
        38           Si  tau(  38) = (   0.4089180   0.9248550   0.5606000  )
        39           Si  tau(  39) = (   0.8422370   0.8596610   0.4688670  )
        40           Si  tau(  40) = (   0.6536850   0.0225694   0.4112330  )
        41           Si  tau(  41) = (   0.1387300   0.9846680   0.4031860  )
        42           Si  tau(  42) = (   0.3636100   0.9245450   0.3238950  )
        43           Si  tau(  43) = (   0.8239950   0.8885550   0.1046270  )
        44           Si  tau(  44) = (   0.6123010   0.4595490   0.2110610  )
        45           Si  tau(  45) = (   0.4505840   0.6936030   0.2939950  )
        46           Si  tau(  46) = (   0.5356820   0.7485060   0.5520840  )
        47           Si  tau(  47) = (   0.7370300   0.7480980   0.3115030  )
        48           Si  tau(  48) = (   0.7319890   0.2459650   0.2886130  )
        49           Si  tau(  49) = (   0.2982180   0.2301540   0.6806060  )
        50           Si  tau(  50) = (   0.2368390   0.7405720   0.5030020  )
        51           Si  tau(  51) = (   0.0946589   0.3539660   0.7523010  )
        52           Si  tau(  52) = (   0.1707600   0.1276420   0.1965970  )
        53           Si  tau(  53) = (   0.4146300   0.3751700   0.1979240  )
        54           Si  tau(  54) = (   0.8219050   0.6986920   0.9509920  )
        55           Si  tau(  55) = (   0.6499380   0.2361910   0.9386950  )
        56           Si  tau(  56) = (   0.5362780   0.1149870   0.6395280  )
        57           Si  tau(  57) = (   0.5048680   0.0932216   0.0292288  )
        58           Si  tau(  58) = (   0.5145230   0.4409110   0.6432300  )
        59           Si  tau(  59) = (   0.7058230   0.3730620   0.5221580  )
        60           Si  tau(  60) = (   0.4768600   0.5208660   0.9398440  )
        61           Si  tau(  61) = (   0.0803715   0.4502350   0.5323380  )
        62           Si  tau(  62) = (   0.2980310   0.5426050   0.5986030  )
        63           Si  tau(  63) = (   0.3988590   0.6975310   0.0666497  )
        64           Si  tau(  64) = (   0.1343130   0.9452280   0.0601741  )

     number of k points=     1
                       cart. coord. in units 2pi/alat
        k(    1) = (   0.0000000   0.0000000   0.0000000), wk =   2.0000000

     Dense  grid:    91134 G-vectors     FFT dimensions: (  72,  72,  72)

     Estimated max dynamical RAM per process >     134.19 MB

     Estimated total dynamical RAM >     514.51 MB

     Initial potential from superposition of free atoms

     starting charge     255.9608, renormalised to     256.0000
     Starting wfcs are  256 randomized atomic wfcs

     total cpu time spent up to now is        4.4 secs

     Self-consistent Calculation

     iteration #  1     ecut=    30.00 Ry     beta= 0.50
     Davidson diagonalization with overlap
     ethr =  1.00E-02,  avg # of iterations =  2.0

     Threshold (ethr) on eigenvalues was too large:
     Diagonalizing with lowered threshold

     Davidson diagonalization with overlap
     ethr =  3.85E-04,  avg # of iterations =  6.0

     total cpu time spent up to now is        4.6 secs

     total energy              =    -501.20480874 Ry
     estimated scf accuracy    <       1.27173623 Ry

     iteration #  2     ecut=    30.00 Ry     beta= 0.50
     Davidson diagonalization with overlap
     ethr =  4.97E-04,  avg # of iterations =  9.0

     total cpu time spent up to now is        4.7 secs

     total energy              =    -500.85486005 Ry
     estimated scf accuracy    <       4.25472234 Ry

     iteration #  3     ecut=    30.00 Ry     beta= 0.50
     Davidson diagonalization with overlap
     ethr =  4.97E-04,  avg # of iterations = 11.0

     total cpu time spent up to now is        4.8 secs

     total energy              =    -501.22068585 Ry
     estimated scf accuracy    <       2.60348774 Ry

     iteration #  4     ecut=    30.00 Ry     beta= 0.50
     Davidson diagonalization with overlap
     ethr =  4.97E-04,  avg # of iterations =  8.0

     total cpu time spent up to now is        4.9 secs

     total energy              =    -501.40135771 Ry
     estimated scf accuracy    <       0.55458487 Ry

     iteration #  5     ecut=    30.00 Ry     beta= 0.50
     Davidson diagonalization with overlap
     ethr =  2.17E-04,  avg # of iterations =  6.0

     total cpu time spent up to now is        5.0 secs

     total energy              =    -501.44800724 Ry
     estimated scf accuracy    <       0.34257895 Ry

     iteration #  6     ecut=    30.00 Ry     beta= 0.50
     Davidson diagonalization with overlap
     ethr =  1.34E-04,  avg # of iterations =  5.0

     total cpu time spent up to now is        5.1 secs

     total energy              =    -501.48603355 Ry
     estimated scf accuracy    <       0.03846079 Ry

     iteration #  7     ecut=    30.00 Ry     beta= 0.50
     Davidson diagonalization with overlap
     c_bands:  1 eigenvalues not converged
     ethr =  1.50E-05,  avg # of iterations = 20.0

     total cpu time spent up to now is        5.3 secs

     total energy              =    -501.49083228 Ry
     estimated scf accuracy    <       0.05893155 Ry

     iteration #  8     ecut=    30.00 Ry     beta= 0.50
     Davidson diagonalization with overlap
     ethr =  1.50E-05,  avg # of iterations = 10.0

     total cpu time spent up to now is        5.4 secs

     total energy              =    -501.49133069 Ry
     estimated scf accuracy    <       0.02065927 Ry

     iteration #  9     ecut=    30.00 Ry     beta= 0.50
     Davidson diagonalization with overlap
     c_bands:  1 eigenvalues not converged
     ethr =  8.07E-06,  avg # of iterations = 20.0

     total cpu time spent up to now is        5.6 secs

     total energy              =    -501.49357866 Ry
     estimated scf accuracy    <       0.01172625 Ry

     iteration # 10     ecut=    30.00 Ry     beta= 0.50
     Davidson diagonalization with overlap
     ethr =  4.58E-06,  avg # of iterations =  8.0

     total cpu time spent up to now is        5.7 secs

     total energy              =    -501.49357788 Ry
     estimated scf accuracy    <       0.00750285 Ry

     iteration # 11     ecut=    30.00 Ry     beta= 0.50
     Davidson diagonalization with overlap
     ethr =  2.93E-06,  avg # of iterations =  2.0

     total cpu time spent up to now is        5.7 secs

     total energy              =    -501.49305202 Ry
     estimated scf accuracy    <       0.00517181 Ry

     iteration # 12     ecut=    30.00 Ry     beta= 0.50
     Davidson diagonalization with overlap
     c_bands:  1 eigenvalues not converged
     ethr =  2.02E-06,  avg # of iterations = 20.0

     total cpu time spent up to now is        5.9 secs

     total energy              =    -501.49460131 Ry
     estimated scf accuracy    <       0.01902578 Ry

     iteration # 13     ecut=    30.00 Ry     beta= 0.50
     Davidson diagonalization with overlap
     ethr =  2.02E-06,  avg # of iterations = 12.0

     total cpu time spent up to now is        6.0 secs

     total energy              =    -501.49438966 Ry
     estimated scf accuracy    <       0.01424106 Ry

     iteration # 14     ecut=    30.00 Ry     beta= 0.50
     Davidson diagonalization with overlap
     ethr =  2.02E-06,  avg # of iterations =  1.0

     total cpu time spent up to now is        6.1 secs

     total energy              =    -501.49389802 Ry
     estimated scf accuracy    <       0.01228720 Ry

     iteration # 15     ecut=    30.00 Ry     beta= 0.50
     Davidson diagonalization with overlap
     ethr =  2.02E-06,  avg # of iterations =  1.0

     total cpu time spent up to now is        6.1 secs

     total energy              =    -501.49350937 Ry
     estimated scf accuracy    <       0.00971395 Ry

     iteration # 16     ecut=    30.00 Ry     beta= 0.50
     Davidson diagonalization with overlap
     ethr =  2.02E-06,  avg # of iterations =  2.0

     total cpu time spent up to now is        6.2 secs

     total energy              =    -501.49178886 Ry
     estimated scf accuracy    <       0.00741060 Ry

     iteration # 17     ecut=    30.00 Ry     beta= 0.50
     Davidson diagonalization with overlap
     c_bands:  1 eigenvalues not converged
     ethr =  2.02E-06,  avg # of iterations = 20.0

     total cpu time spent up to now is        6.4 secs

     total energy              =    -501.49805064 Ry
     estimated scf accuracy    <       0.02667166 Ry

     iteration # 18     ecut=    30.00 Ry     beta= 0.50
     Davidson diagonalization with overlap
     ethr =  2.02E-06,  avg # of iterations =  1.0

     total cpu time spent up to now is        6.4 secs

     total energy              =    -501.49720454 Ry
     estimated scf accuracy    <       0.03105878 Ry

     iteration # 19     ecut=    30.00 Ry     beta= 0.50
     Davidson diagonalization with overlap
     ethr =  2.02E-06,  avg # of iterations =  1.0

     total cpu time spent up to now is        6.5 secs

     total energy              =    -501.49582965 Ry
     estimated scf accuracy    <       0.02920999 Ry

     iteration # 20     ecut=    30.00 Ry     beta= 0.50
     Davidson diagonalization with overlap
     ethr =  2.02E-06,  avg # of iterations =  2.0

     total cpu time spent up to now is        6.6 secs

     total energy              =    -501.49429281 Ry
     estimated scf accuracy    <       0.02271372 Ry

     iteration # 21     ecut=    30.00 Ry     beta= 0.50
     Davidson diagonalization with overlap
     c_bands:  1 eigenvalues not converged
     ethr =  2.02E-06,  avg # of iterations = 20.0

     total cpu time spent up to now is        6.7 secs

     total energy              =    -501.49451111 Ry
     estimated scf accuracy    <       0.00728884 Ry

     iteration # 22     ecut=    30.00 Ry     beta= 0.50
     Davidson diagonalization with overlap
     ethr =  2.02E-06,  avg # of iterations =  2.0

     total cpu time spent up to now is        6.8 secs

     total energy              =    -501.49442514 Ry
     estimated scf accuracy    <       0.00567645 Ry

     iteration # 23     ecut=    30.00 Ry     beta= 0.50
     Davidson diagonalization with overlap
     ethr =  2.02E-06,  avg # of iterations =  2.0

     total cpu time spent up to now is        6.9 secs

     total energy              =    -501.49421577 Ry
     estimated scf accuracy    <       0.00468795 Ry

     iteration # 24     ecut=    30.00 Ry     beta= 0.50
     Davidson diagonalization with overlap
     ethr =  1.83E-06,  avg # of iterations =  2.0

     total cpu time spent up to now is        7.0 secs

     total energy              =    -501.49394197 Ry
     estimated scf accuracy    <       0.00348809 Ry

     iteration # 25     ecut=    30.00 Ry     beta= 0.50
     Davidson diagonalization with overlap
     c_bands:  1 eigenvalues not converged
     ethr =  1.36E-06,  avg # of iterations = 20.0

     total cpu time spent up to now is        7.1 secs

     total energy              =    -501.49418354 Ry
     estimated scf accuracy    <       0.00070988 Ry

     iteration # 26     ecut=    30.00 Ry     beta= 0.50
     Davidson diagonalization with overlap
     c_bands:  1 eigenvalues not converged
     ethr =  2.77E-07,  avg # of iterations = 20.0

     total cpu time spent up to now is        7.3 secs

     total energy              =    -501.49470411 Ry
     estimated scf accuracy    <       0.03467946 Ry

     iteration # 27     ecut=    30.00 Ry     beta= 0.50
     Davidson diagonalization with overlap
     c_bands:  1 eigenvalues not converged
     ethr =  2.77E-07,  avg # of iterations = 20.0

     total cpu time spent up to now is        7.5 secs

     total energy              =    -501.49459970 Ry
     estimated scf accuracy    <       0.01845904 Ry

     iteration # 28     ecut=    30.00 Ry     beta= 0.50
     Davidson diagonalization with overlap
     c_bands:  1 eigenvalues not converged
     ethr =  2.77E-07,  avg # of iterations = 20.0

     total cpu time spent up to now is        7.6 secs

     total energy              =    -501.49368301 Ry
     estimated scf accuracy    <       0.01281415 Ry

     iteration # 29     ecut=    30.00 Ry     beta= 0.50
     Davidson diagonalization with overlap
     c_bands:  1 eigenvalues not converged
     ethr =  2.77E-07,  avg # of iterations = 20.0

     total cpu time spent up to now is        7.8 secs

     total energy              =    -501.49433706 Ry
     estimated scf accuracy    <       0.00144372 Ry

     iteration # 30     ecut=    30.00 Ry     beta= 0.50
     Davidson diagonalization with overlap
     c_bands:  1 eigenvalues not converged
     ethr =  2.77E-07,  avg # of iterations = 20.0

     total cpu time spent up to now is        7.9 secs

     total energy              =    -501.49441198 Ry
     estimated scf accuracy    <       0.00085493 Ry

     iteration # 31     ecut=    30.00 Ry     beta= 0.50
     Davidson diagonalization with overlap
     c_bands:  1 eigenvalues not converged
     ethr =  2.77E-07,  avg # of iterations = 20.0

     total cpu time spent up to now is        8.1 secs

     total energy              =    -501.49442009 Ry
     estimated scf accuracy    <       0.00069469 Ry

     iteration # 32     ecut=    30.00 Ry     beta= 0.50
     Davidson diagonalization with overlap
     c_bands:  1 eigenvalues not converged
     ethr =  2.71E-07,  avg # of iterations = 20.0

     total cpu time spent up to now is        8.2 secs

     total energy              =    -501.49444050 Ry
     estimated scf accuracy    <       0.00057373 Ry

     iteration # 33     ecut=    30.00 Ry     beta= 0.50
     Davidson diagonalization with overlap
     ethr =  2.24E-07,  avg # of iterations = 13.0

     total cpu time spent up to now is        8.3 secs

     total energy              =    -501.49447584 Ry
     estimated scf accuracy    <       0.00059950 Ry

     iteration # 34     ecut=    30.00 Ry     beta= 0.50
     Davidson diagonalization with overlap
     c_bands:  1 eigenvalues not converged
     ethr =  2.24E-07,  avg # of iterations = 20.0

     total cpu time spent up to now is        8.5 secs

     total energy              =    -501.49425692 Ry
     estimated scf accuracy    <       0.00340431 Ry

     iteration # 35     ecut=    30.00 Ry     beta= 0.50
     Davidson diagonalization with overlap
     c_bands:  1 eigenvalues not converged
     ethr =  2.24E-07,  avg # of iterations = 20.0

     total cpu time spent up to now is        8.6 secs

     total energy              =    -501.49436244 Ry
     estimated scf accuracy    <       0.00103221 Ry

     iteration # 36     ecut=    30.00 Ry     beta= 0.50
     Davidson diagonalization with overlap
     ethr =  2.24E-07,  avg # of iterations = 14.0

     total cpu time spent up to now is        8.8 secs

     total energy              =    -501.49440374 Ry
     estimated scf accuracy    <       0.00107451 Ry

     iteration # 37     ecut=    30.00 Ry     beta= 0.50
     Davidson diagonalization with overlap
     ethr =  2.24E-07,  avg # of iterations =  2.0

     total cpu time spent up to now is        8.8 secs

     total energy              =    -501.49433576 Ry
     estimated scf accuracy    <       0.00103306 Ry

     iteration # 38     ecut=    30.00 Ry     beta= 0.50
     Davidson diagonalization with overlap
     ethr =  2.24E-07,  avg # of iterations =  7.0

     total cpu time spent up to now is        8.9 secs

     total energy              =    -501.49425488 Ry
     estimated scf accuracy    <       0.00210373 Ry

     iteration # 39     ecut=    30.00 Ry     beta= 0.50
     Davidson diagonalization with overlap
     ethr =  2.24E-07,  avg # of iterations =  7.0

     total cpu time spent up to now is        9.0 secs

     total energy              =    -501.49423183 Ry
     estimated scf accuracy    <       0.00093018 Ry

     iteration # 40     ecut=    30.00 Ry     beta= 0.50
     Davidson diagonalization with overlap
     c_bands:  1 eigenvalues not converged
     ethr =  2.24E-07,  avg # of iterations = 20.0

     total cpu time spent up to now is        9.2 secs

     total energy              =    -501.49419467 Ry
     estimated scf accuracy    <       0.00127228 Ry

     iteration # 41     ecut=    30.00 Ry     beta= 0.50
     Davidson diagonalization with overlap
     c_bands:  1 eigenvalues not converged
     ethr =  2.24E-07,  avg # of iterations = 20.0

     total cpu time spent up to now is        9.4 secs

     total energy              =    -501.49428866 Ry
     estimated scf accuracy    <       0.00121349 Ry

     iteration # 42     ecut=    30.00 Ry     beta= 0.50
     Davidson diagonalization with overlap
     c_bands:  1 eigenvalues not converged
     ethr =  2.24E-07,  avg # of iterations = 20.0

     total cpu time spent up to now is        9.6 secs

     total energy              =    -501.49431543 Ry
     estimated scf accuracy    <       0.00166813 Ry

     iteration # 43     ecut=    30.00 Ry     beta= 0.50
     Davidson diagonalization with overlap
     ethr =  2.24E-07,  avg # of iterations =  8.0

     total cpu time spent up to now is        9.7 secs

     total energy              =    -501.49432893 Ry
     estimated scf accuracy    <       0.00121215 Ry

     iteration # 44     ecut=    30.00 Ry     beta= 0.50
     Davidson diagonalization with overlap
     ethr =  2.24E-07,  avg # of iterations =  1.0

     total cpu time spent up to now is        9.7 secs

     total energy              =    -501.49431803 Ry
     estimated scf accuracy    <       0.00115132 Ry

     iteration # 45     ecut=    30.00 Ry     beta= 0.50
     Davidson diagonalization with overlap
     ethr =  2.24E-07,  avg # of iterations =  1.0

     total cpu time spent up to now is        9.8 secs

     total energy              =    -501.49430858 Ry
     estimated scf accuracy    <       0.00108899 Ry

     iteration # 46     ecut=    30.00 Ry     beta= 0.50
     Davidson diagonalization with overlap
     ethr =  2.24E-07,  avg # of iterations =  1.0

     total cpu time spent up to now is        9.9 secs

     total energy              =    -501.49422152 Ry
     estimated scf accuracy    <       0.00100965 Ry

     iteration # 47     ecut=    30.00 Ry     beta= 0.50
     Davidson diagonalization with overlap
     c_bands:  1 eigenvalues not converged
     ethr =  2.24E-07,  avg # of iterations = 20.0

     total cpu time spent up to now is       10.0 secs

     total energy              =    -501.49443993 Ry
     estimated scf accuracy    <       0.00448272 Ry

     iteration # 48     ecut=    30.00 Ry     beta= 0.50
     Davidson diagonalization with overlap
     ethr =  2.24E-07,  avg # of iterations = 14.0

     total cpu time spent up to now is       10.1 secs

     total energy              =    -501.49448275 Ry
     estimated scf accuracy    <       0.00420987 Ry

     iteration # 49     ecut=    30.00 Ry     beta= 0.50
     Davidson diagonalization with overlap
     ethr =  2.24E-07,  avg # of iterations =  2.0

     total cpu time spent up to now is       10.2 secs

     total energy              =    -501.49449640 Ry
     estimated scf accuracy    <       0.00426058 Ry

     iteration # 50     ecut=    30.00 Ry     beta= 0.50
     Davidson diagonalization with overlap
     ethr =  2.24E-07,  avg # of iterations =  1.0

     total cpu time spent up to now is       10.3 secs

     total energy              =    -501.49438679 Ry
     estimated scf accuracy    <       0.00430302 Ry

     iteration # 51     ecut=    30.00 Ry     beta= 0.50
     Davidson diagonalization with overlap
     ethr =  2.24E-07,  avg # of iterations =  2.0

     total cpu time spent up to now is       10.3 secs

     total energy              =    -501.49436292 Ry
     estimated scf accuracy    <       0.00398390 Ry

     iteration # 52     ecut=    30.00 Ry     beta= 0.50
     Davidson diagonalization with overlap
     ethr =  2.24E-07,  avg # of iterations =  1.0

     total cpu time spent up to now is       10.4 secs

     total energy              =    -501.49435059 Ry
     estimated scf accuracy    <       0.00383237 Ry

     iteration # 53     ecut=    30.00 Ry     beta= 0.50
     Davidson diagonalization with overlap
     ethr =  2.24E-07,  avg # of iterations =  1.0

     total cpu time spent up to now is       10.5 secs

     total energy              =    -501.49434318 Ry
     estimated scf accuracy    <       0.00371371 Ry

     iteration # 54     ecut=    30.00 Ry     beta= 0.50
     Davidson diagonalization with overlap
     ethr =  2.24E-07,  avg # of iterations =  1.0

     total cpu time spent up to now is       10.5 secs

     total energy              =    -501.49432664 Ry
     estimated scf accuracy    <       0.00363531 Ry

     iteration # 55     ecut=    30.00 Ry     beta= 0.50
     Davidson diagonalization with overlap
     ethr =  2.24E-07,  avg # of iterations =  1.0

     total cpu time spent up to now is       10.6 secs

     total energy              =    -501.49338577 Ry
     estimated scf accuracy    <       0.00353408 Ry

     iteration # 56     ecut=    30.00 Ry     beta= 0.50
     Davidson diagonalization with overlap
     c_bands:  1 eigenvalues not converged
     ethr =  2.24E-07,  avg # of iterations = 20.0

     total cpu time spent up to now is       10.8 secs

     total energy              =    -501.49484433 Ry
     estimated scf accuracy    <       0.01862378 Ry

     iteration # 57     ecut=    30.00 Ry     beta= 0.50
     Davidson diagonalization with overlap
     c_bands:  1 eigenvalues not converged
     ethr =  2.24E-07,  avg # of iterations = 20.0

     total cpu time spent up to now is       10.9 secs

     total energy              =    -501.49500568 Ry
     estimated scf accuracy    <       0.01463999 Ry

     iteration # 58     ecut=    30.00 Ry     beta= 0.50
     Davidson diagonalization with overlap
     ethr =  2.24E-07,  avg # of iterations =  3.0

     total cpu time spent up to now is       11.0 secs

     total energy              =    -501.49475339 Ry
     estimated scf accuracy    <       0.01369626 Ry

     iteration # 59     ecut=    30.00 Ry     beta= 0.50
     Davidson diagonalization with overlap
     c_bands:  1 eigenvalues not converged
     ethr =  2.24E-07,  avg # of iterations = 20.0

     total cpu time spent up to now is       11.2 secs

     total energy              =    -501.49435673 Ry
     estimated scf accuracy    <       0.00910877 Ry

     iteration # 60     ecut=    30.00 Ry     beta= 0.50
     Davidson diagonalization with overlap
     c_bands:  1 eigenvalues not converged
     ethr =  2.24E-07,  avg # of iterations = 20.0

     total cpu time spent up to now is       11.3 secs

     total energy              =    -501.49431160 Ry
     estimated scf accuracy    <       0.00387424 Ry

     iteration # 61     ecut=    30.00 Ry     beta= 0.50
     Davidson diagonalization with overlap
     c_bands:  1 eigenvalues not converged
     ethr =  2.24E-07,  avg # of iterations = 20.0

     total cpu time spent up to now is       11.5 secs

     total energy              =    -501.49432282 Ry
     estimated scf accuracy    <       0.00246823 Ry

     iteration # 62     ecut=    30.00 Ry     beta= 0.50
     Davidson diagonalization with overlap
     c_bands:  1 eigenvalues not converged
     ethr =  2.24E-07,  avg # of iterations = 20.0

     total cpu time spent up to now is       11.6 secs

     total energy              =    -501.49433209 Ry
     estimated scf accuracy    <       0.00141516 Ry

     iteration # 63     ecut=    30.00 Ry     beta= 0.50
     Davidson diagonalization with overlap
     ethr =  2.24E-07,  avg # of iterations = 19.0

     total cpu time spent up to now is       11.8 secs

     total energy              =    -501.49434931 Ry
     estimated scf accuracy    <       0.00100869 Ry

     iteration # 64     ecut=    30.00 Ry     beta= 0.50
     Davidson diagonalization with overlap
     ethr =  2.24E-07,  avg # of iterations =  1.0

     total cpu time spent up to now is       11.8 secs

     total energy              =    -501.49432727 Ry
     estimated scf accuracy    <       0.00095400 Ry

     iteration # 65     ecut=    30.00 Ry     beta= 0.50
     Davidson diagonalization with overlap
     ethr =  2.24E-07,  avg # of iterations =  2.0

     total cpu time spent up to now is       11.9 secs

     total energy              =    -501.49424373 Ry
     estimated scf accuracy    <       0.00096149 Ry

     iteration # 66     ecut=    30.00 Ry     beta= 0.50
     Davidson diagonalization with overlap
     c_bands:  1 eigenvalues not converged
     ethr =  2.24E-07,  avg # of iterations = 20.0

     total cpu time spent up to now is       12.0 secs

     total energy              =    -501.49433069 Ry
     estimated scf accuracy    <       0.00107217 Ry

     iteration # 67     ecut=    30.00 Ry     beta= 0.50
     Davidson diagonalization with overlap
     ethr =  2.24E-07,  avg # of iterations = 19.0

     total cpu time spent up to now is       12.2 secs

     total energy              =    -501.49438388 Ry
     estimated scf accuracy    <       0.00097277 Ry

     iteration # 68     ecut=    30.00 Ry     beta= 0.50
     Davidson diagonalization with overlap
     ethr =  2.24E-07,  avg # of iterations =  1.0

     total cpu time spent up to now is       12.3 secs

     total energy              =    -501.49435884 Ry
     estimated scf accuracy    <       0.00085307 Ry

     iteration # 69     ecut=    30.00 Ry     beta= 0.50
     Davidson diagonalization with overlap
     ethr =  2.24E-07,  avg # of iterations =  1.0

     total cpu time spent up to now is       12.3 secs

     total energy              =    -501.49436033 Ry
     estimated scf accuracy    <       0.00072878 Ry

     iteration # 70     ecut=    30.00 Ry     beta= 0.50
     Davidson diagonalization with overlap
     ethr =  2.24E-07,  avg # of iterations =  1.0

     total cpu time spent up to now is       12.4 secs

     total energy              =    -501.49435951 Ry
     estimated scf accuracy    <       0.00069502 Ry

     iteration # 71     ecut=    30.00 Ry     beta= 0.50
     Davidson diagonalization with overlap
     ethr =  2.24E-07,  avg # of iterations =  1.0

     total cpu time spent up to now is       12.5 secs

     total energy              =    -501.49435415 Ry
     estimated scf accuracy    <       0.00066526 Ry

     iteration # 72     ecut=    30.00 Ry     beta= 0.50
     Davidson diagonalization with overlap
     ethr =  2.24E-07,  avg # of iterations =  1.0

     total cpu time spent up to now is       12.5 secs

     total energy              =    -501.49434589 Ry
     estimated scf accuracy    <       0.00061928 Ry

     iteration # 73     ecut=    30.00 Ry     beta= 0.50
     Davidson diagonalization with overlap
     ethr =  2.24E-07,  avg # of iterations =  1.0

     total cpu time spent up to now is       12.6 secs

     total energy              =    -501.49430329 Ry
     estimated scf accuracy    <       0.00057005 Ry

     iteration # 74     ecut=    30.00 Ry     beta= 0.50
     Davidson diagonalization with overlap
     ethr =  2.23E-07,  avg # of iterations =  2.0

     total cpu time spent up to now is       12.7 secs

     total energy              =    -501.49421209 Ry
     estimated scf accuracy    <       0.00035632 Ry

     iteration # 75     ecut=    30.00 Ry     beta= 0.50
     Davidson diagonalization with overlap
     c_bands:  2 eigenvalues not converged
     ethr =  1.39E-07,  avg # of iterations = 20.0

     total cpu time spent up to now is       12.8 secs

     total energy              =    -501.49428772 Ry
     estimated scf accuracy    <       0.00632853 Ry

     iteration # 76     ecut=    30.00 Ry     beta= 0.50
     Davidson diagonalization with overlap
     c_bands:  1 eigenvalues not converged
     ethr =  1.39E-07,  avg # of iterations = 20.0

     total cpu time spent up to now is       13.0 secs

     total energy              =    -501.49447143 Ry
     estimated scf accuracy    <       0.00916599 Ry

     iteration # 77     ecut=    30.00 Ry     beta= 0.50
     Davidson diagonalization with overlap
     ethr =  1.39E-07,  avg # of iterations = 13.0

     total cpu time spent up to now is       13.1 secs

     total energy              =    -501.49443221 Ry
     estimated scf accuracy    <       0.00845189 Ry

     iteration # 78     ecut=    30.00 Ry     beta= 0.50
     Davidson diagonalization with overlap
     ethr =  1.39E-07,  avg # of iterations =  1.0

     total cpu time spent up to now is       13.2 secs

     total energy              =    -501.49438438 Ry
     estimated scf accuracy    <       0.00800154 Ry

     iteration # 79     ecut=    30.00 Ry     beta= 0.50
     Davidson diagonalization with overlap
     ethr =  1.39E-07,  avg # of iterations =  2.0

     total cpu time spent up to now is       13.3 secs

     total energy              =    -501.49439707 Ry
     estimated scf accuracy    <       0.00742031 Ry

     iteration # 80     ecut=    30.00 Ry     beta= 0.50
     Davidson diagonalization with overlap
     c_bands:  1 eigenvalues not converged
     ethr =  1.39E-07,  avg # of iterations = 20.0

     total cpu time spent up to now is       13.4 secs

     total energy              =    -501.49435437 Ry
     estimated scf accuracy    <       0.00522238 Ry

     iteration # 81     ecut=    30.00 Ry     beta= 0.50
     Davidson diagonalization with overlap
     ethr =  1.39E-07,  avg # of iterations = 17.0

     total cpu time spent up to now is       13.6 secs

     total energy              =    -501.49432568 Ry
     estimated scf accuracy    <       0.00435099 Ry

     iteration # 82     ecut=    30.00 Ry     beta= 0.50
     Davidson diagonalization with overlap
     ethr =  1.39E-07,  avg # of iterations =  1.0

     total cpu time spent up to now is       13.6 secs

     total energy              =    -501.49425740 Ry
     estimated scf accuracy    <       0.00404065 Ry

     iteration # 83     ecut=    30.00 Ry     beta= 0.50
     Davidson diagonalization with overlap
     ethr =  1.39E-07,  avg # of iterations =  3.0

     total cpu time spent up to now is       13.7 secs

     total energy              =    -501.49397199 Ry
     estimated scf accuracy    <       0.00360696 Ry

     iteration # 84     ecut=    30.00 Ry     beta= 0.50
     Davidson diagonalization with overlap
     c_bands:  1 eigenvalues not converged
     ethr =  1.39E-07,  avg # of iterations = 20.0

     total cpu time spent up to now is       13.9 secs

     total energy              =    -501.49575606 Ry
     estimated scf accuracy    <       0.03950441 Ry

     iteration # 85     ecut=    30.00 Ry     beta= 0.50
     Davidson diagonalization with overlap
     c_bands:  1 eigenvalues not converged
     ethr =  1.39E-07,  avg # of iterations = 20.0

     total cpu time spent up to now is       14.1 secs

     total energy              =    -501.49437997 Ry
     estimated scf accuracy    <       0.03247576 Ry

     iteration # 86     ecut=    30.00 Ry     beta= 0.50
     Davidson diagonalization with overlap
     c_bands:  1 eigenvalues not converged
     ethr =  1.39E-07,  avg # of iterations = 20.0

     total cpu time spent up to now is       14.2 secs

     total energy              =    -501.49376593 Ry
     estimated scf accuracy    <       0.02147227 Ry

     iteration # 87     ecut=    30.00 Ry     beta= 0.50
     Davidson diagonalization with overlap
     c_bands:  1 eigenvalues not converged
     ethr =  1.39E-07,  avg # of iterations = 20.0

     total cpu time spent up to now is       14.4 secs

     total energy              =    -501.49436839 Ry
     estimated scf accuracy    <       0.00191200 Ry

     iteration # 88     ecut=    30.00 Ry     beta= 0.50
     Davidson diagonalization with overlap
     ethr =  1.39E-07,  avg # of iterations =  7.0

     total cpu time spent up to now is       14.5 secs

     total energy              =    -501.49436183 Ry
     estimated scf accuracy    <       0.00139188 Ry

     iteration # 89     ecut=    30.00 Ry     beta= 0.50
     Davidson diagonalization with overlap
     ethr =  1.39E-07,  avg # of iterations =  2.0

     total cpu time spent up to now is       14.6 secs

     total energy              =    -501.49435690 Ry
     estimated scf accuracy    <       0.00114346 Ry

     iteration # 90     ecut=    30.00 Ry     beta= 0.50
     Davidson diagonalization with overlap
     ethr =  1.39E-07,  avg # of iterations =  1.0

     total cpu time spent up to now is       14.6 secs

     total energy              =    -501.49435007 Ry
     estimated scf accuracy    <       0.00102742 Ry

     iteration # 91     ecut=    30.00 Ry     beta= 0.50
     Davidson diagonalization with overlap
     ethr =  1.39E-07,  avg # of iterations =  1.0

     total cpu time spent up to now is       14.7 secs

     total energy              =    -501.49433481 Ry
     estimated scf accuracy    <       0.00094109 Ry

     iteration # 92     ecut=    30.00 Ry     beta= 0.50
     Davidson diagonalization with overlap
     ethr =  1.39E-07,  avg # of iterations =  1.0

     total cpu time spent up to now is       14.8 secs

     total energy              =    -501.49424307 Ry
     estimated scf accuracy    <       0.00083014 Ry

     iteration # 93     ecut=    30.00 Ry     beta= 0.50
     Davidson diagonalization with overlap
     c_bands:  1 eigenvalues not converged
     ethr =  1.39E-07,  avg # of iterations = 20.0

     total cpu time spent up to now is       14.9 secs

     total energy              =    -501.49424435 Ry
     estimated scf accuracy    <       0.01097930 Ry

     iteration # 94     ecut=    30.00 Ry     beta= 0.50
     Davidson diagonalization with overlap
     c_bands:  1 eigenvalues not converged
     ethr =  1.39E-07,  avg # of iterations = 20.0

     total cpu time spent up to now is       15.1 secs

     total energy              =    -501.49428280 Ry
     estimated scf accuracy    <       0.00961224 Ry

     iteration # 95     ecut=    30.00 Ry     beta= 0.50
     Davidson diagonalization with overlap
     c_bands:  1 eigenvalues not converged
     ethr =  1.39E-07,  avg # of iterations = 20.0

     total cpu time spent up to now is       15.2 secs

     total energy              =    -501.49421464 Ry
     estimated scf accuracy    <       0.00480393 Ry

     iteration # 96     ecut=    30.00 Ry     beta= 0.50
     Davidson diagonalization with overlap
     c_bands:  1 eigenvalues not converged
     ethr =  1.39E-07,  avg # of iterations = 20.0

     total cpu time spent up to now is       15.4 secs

     total energy              =    -501.49426333 Ry
     estimated scf accuracy    <       0.00325138 Ry

     iteration # 97     ecut=    30.00 Ry     beta= 0.50
     Davidson diagonalization with overlap
     c_bands:  1 eigenvalues not converged
     ethr =  1.39E-07,  avg # of iterations = 20.0

     total cpu time spent up to now is       15.5 secs

     total energy              =    -501.49429596 Ry
     estimated scf accuracy    <       0.00208201 Ry

     iteration # 98     ecut=    30.00 Ry     beta= 0.50
     Davidson diagonalization with overlap
     c_bands:  1 eigenvalues not converged
     ethr =  1.39E-07,  avg # of iterations = 20.0

     total cpu time spent up to now is       15.7 secs

     total energy              =    -501.49432267 Ry
     estimated scf accuracy    <       0.00148020 Ry

     iteration # 99     ecut=    30.00 Ry     beta= 0.50
     Davidson diagonalization with overlap
     c_bands:  1 eigenvalues not converged
     ethr =  1.39E-07,  avg # of iterations = 20.0

     total cpu time spent up to now is       15.8 secs

     total energy              =    -501.49433983 Ry
     estimated scf accuracy    <       0.00104805 Ry

     iteration #100     ecut=    30.00 Ry     beta= 0.50
     Davidson diagonalization with overlap
     ethr =  1.39E-07,  avg # of iterations = 13.0

     total cpu time spent up to now is       15.9 secs

     total energy              =    -501.49434708 Ry
     estimated scf accuracy    <       0.00096224 Ry

     End of self-consistent calculation

     convergence NOT achieved after 100 iterations: stopping

     Writing config to output data dir ./pwscf.save/
     Message from routine punch:
     wavefunctions written to file
 
     init_run     :      0.98s CPU      4.35s WALL (       1 calls)
     electrons    :     10.75s CPU     11.52s WALL (       1 calls)

     Called by init_run:
     wfcinit      :      0.47s CPU      3.68s WALL (       1 calls)
                                        3.68s GPU  (       1 calls)
     potinit      :      0.04s CPU      0.13s WALL (       1 calls)
     hinit0       :      0.45s CPU      0.48s WALL (       1 calls)

     Called by electrons:
     c_bands      :      7.65s CPU      8.08s WALL (     101 calls)
     sum_band     :      1.41s CPU      1.65s WALL (     101 calls)
     v_of_rho     :      0.59s CPU      0.71s WALL (     101 calls)
     mix_rho      :      0.90s CPU      0.94s WALL (     101 calls)

     Called by c_bands:
     init_us_2    :      0.25s CPU      0.27s WALL (     203 calls)
     init_us_2:gp :      0.24s CPU      0.27s WALL (     203 calls)
     regterg      :      6.94s CPU      7.33s WALL (     101 calls)

     Called by *egterg:
     rdiaghg      :      3.53s CPU      4.32s WALL (    1184 calls)
                                        4.15s GPU  (    1184 calls)
     h_psi        :      2.92s CPU      5.66s WALL (    1186 calls)
                                        5.64s GPU  (    1186 calls)
     g_psi        :      0.00s CPU      0.02s WALL (    1084 calls)
                                        0.02s GPU  (    1084 calls)

     Called by h_psi:
     h_psi:calbec :      0.73s CPU      3.29s WALL (    1186 calls)
                                        3.28s GPU  (    1186 calls)
     vloc_psi     :      1.56s CPU      1.73s WALL (    1186 calls)
                                        1.71s GPU  (    1186 calls)
     add_vuspsi   :      0.49s CPU      0.58s WALL (    1186 calls)
                                        0.58s GPU  (    1186 calls)

     General routines
     calbec       :      0.72s CPU      3.26s WALL (    1186 calls)
     fft          :      0.94s CPU      1.11s WALL (     809 calls)
                                        0.19s GPU  (     505 calls)
     ffts         :      0.16s CPU      0.18s WALL (     101 calls)
     fftw         :      1.86s CPU      2.36s WALL (   10186 calls)
                                        2.05s GPU  (   10186 calls)
     davcio       :      0.00s CPU      0.00s WALL (      19 calls)
 
     Parallel routines
 
     PWSCF        :     11.78s CPU     15.96s WALL

 
   This run was terminated on:  15:25:51   9May2023            

=------------------------------------------------------------------------------=
   JOB DONE.
=------------------------------------------------------------------------------=
