An instance of this daemon is already running
An instance of this daemon is already running

     Program PWSCF v.7.1 starts on  9May2023 at 15:25: 7 

     This program is part of the open-source Quantum ESPRESSO suite
     for quantum simulation of materials; please cite
         "P. Giannozzi et al., J. Phys.:Condens. Matter 21 395502 (2009);
         "P. Giannozzi et al., J. Phys.:Condens. Matter 29 465901 (2017);
         "P. Giannozzi et al., J. Chem. Phys. 152 154105 (2020);
          URL http://www.quantum-espresso.org", 
     in publications or presentations arising from this work. More details at
     http://www.quantum-espresso.org/quote

     Parallel version (MPI & OpenMP), running on       4 processor cores
     Number of MPI processes:                 4
     Threads/MPI process:                     1

     MPI processes distributed on     1 nodes
     45051 MiB available memory on the printing compute node when the environment starts
 
     Reading input from pw-si-97.in
Warning: card &CELL ignored
Warning: card / ignored

     Current dimensions of program PWSCF are:
     Max number of different atomic species (ntypx) = 10
     Max number of k-points (npk) =  40000
     Max angular momentum in pseudopotentials (lmaxx) =  4

     IMPORTANT: XC functional enforced from input :
     Exchange-correlation= PBE
                           (   1   4   3   4   0   0   0)
     Any further DFT definition will be discarded
     Please, verify this is what you really want


     gamma-point specific algorithms are used
 
     K-points division:     npool     =       2
     R & G space division:  proc/nbgrp/npool/nimage =       2
     Subspace diagonalization in iterative solution of the eigenvalue problem:
     a serial algorithm will be used

     Message from routine divide_et_impera:
     suboptimal parallelization: some nodes have no k-points
 
     Parallelization info
     --------------------
     sticks:   dense  smooth     PW     G-vecs:    dense   smooth      PW
     Min        1971    1971    520                93009    93009   12668
     Max        1974    1974    521                93014    93014   12673
     Sum        3945    3945   1041               186023   186023   25341
 
     Using Slab Decomposition
 


     bravais-lattice index     =            0
     lattice parameter (alat)  =      20.3099  a.u.
     unit-cell volume          =    8377.6547 (a.u.)^3
     number of atoms/cell      =           64
     number of atomic types    =            1
     number of electrons       =       256.00
     number of Kohn-Sham states=          128
     kinetic-energy cutoff     =      30.0000  Ry
     charge density cutoff     =     120.0000  Ry
     scf convergence threshold =      1.0E-06
     mixing beta               =       0.5000
     number of iterations used =            8  plain     mixing
     Exchange-correlation= PBE
                           (   1   4   3   4   0   0   0)

     GPU acceleration is ACTIVE.
     GPU-aware MPI enabled

     Message from routine print_cuda_info:
     High GPU oversubscription detected. Are you sure this is what you want?

     celldm(1)=  20.309886  celldm(2)=   0.000000  celldm(3)=   0.000000
     celldm(4)=   0.000000  celldm(5)=   0.000000  celldm(6)=   0.000000

     crystal axes: (cart. coord. in units of alat)
               a(1) = (   1.000000   0.000000   0.000000 )  
               a(2) = (   0.000000   1.000000   0.000000 )  
               a(3) = (   0.000000   0.000000   1.000000 )  

     reciprocal axes: (cart. coord. in units 2 pi/alat)
               b(1) = (  1.000000  0.000000  0.000000 )  
               b(2) = (  0.000000  1.000000  0.000000 )  
               b(3) = (  0.000000  0.000000  1.000000 )  


     PseudoPot. # 1 for Si read from file:
     /home/ppiaggi/pseudos/Si_ONCV_PBE_sr.upf
     MD5 check sum: 8553c464762ac42b85b1eed164b4d029
     Pseudo is Norm-conserving, Zval =  4.0
     Generated using ONCVPSP code by D. R. Hamann
     Using radial grid of 1510 points,  4 beta functions with: 
                l(1) =   0
                l(2) =   0
                l(3) =   1
                l(4) =   1

     atomic species   valence    mass     pseudopotential
        Si             4.00    28.08500     Si( 1.00)

     No symmetry found



   Cartesian axes

     site n.     atom                  positions (alat units)
         1           Si  tau(   1) = (   0.8468390   0.2802910   0.8483260  )
         2           Si  tau(   2) = (   0.9615540   0.6612180   0.9774770  )
         3           Si  tau(   3) = (   0.8834560   0.4553670   0.6807790  )
         4           Si  tau(   4) = (   0.6680200   0.1257860   0.0127781  )
         5           Si  tau(   5) = (   0.7260820   0.8883650   0.8725160  )
         6           Si  tau(   6) = (   0.9459580   0.4559320   0.9628090  )
         7           Si  tau(   7) = (   0.5146820   0.7342380   0.8322520  )
         8           Si  tau(   8) = (   0.7241960   0.9267410   0.2003970  )
         9           Si  tau(   9) = (   0.2687420   0.6066890   0.4718010  )
        10           Si  tau(  10) = (   0.2736450   0.8533330   0.7423840  )
        11           Si  tau(  11) = (   0.7273580   0.4581320   0.0648106  )
        12           Si  tau(  12) = (   0.5375890   0.0777397   0.7721340  )
        13           Si  tau(  13) = (   0.2659200   0.4556880   0.2047070  )
        14           Si  tau(  14) = (   0.2350640   0.6850790   0.0429442  )
        15           Si  tau(  15) = (   0.7718340   0.8156690   0.6559370  )
        16           Si  tau(  16) = (   0.7231110   0.9060500   0.4395580  )
        17           Si  tau(  17) = (   0.3662590   0.6580610   0.2385430  )
        18           Si  tau(  18) = (   0.4488800   0.0770272   0.9860940  )
        19           Si  tau(  19) = (   0.4119360   0.0705903   0.2055090  )
        20           Si  tau(  20) = (   0.0010246   0.1225850   0.8558690  )
        21           Si  tau(  21) = (   0.1022190   0.1839560   0.0796423  )
        22           Si  tau(  22) = (   0.5016710   0.8866500   0.6700260  )
        23           Si  tau(  23) = (   0.1769300   0.0123290   0.2171720  )
        24           Si  tau(  24) = (   0.6717850   0.1649720   0.2242210  )
        25           Si  tau(  25) = (   0.9525980   0.6551450   0.7584370  )
        26           Si  tau(  26) = (   0.7633370   0.6006150   0.5513160  )
        27           Si  tau(  27) = (   0.5714820   0.6260320   0.1647670  )
        28           Si  tau(  28) = (   0.9993480   0.1868330   0.4543070  )
        29           Si  tau(  29) = (   0.4478400   0.3135010   0.2585770  )
        30           Si  tau(  30) = (   0.1209880   0.4512250   0.3711660  )
        31           Si  tau(  31) = (   0.6489890   0.3164960   0.8277110  )
        32           Si  tau(  32) = (   0.9908440   0.3606560   0.1831250  )
        33           Si  tau(  33) = (   0.9206310   0.1115760   0.2535330  )
        34           Si  tau(  34) = (   0.4714270   0.1798560   0.4564720  )
        35           Si  tau(  35) = (   0.2882390   0.1675420   0.7332070  )
        36           Si  tau(  36) = (   0.8083110   0.3661820   0.3030720  )
        37           Si  tau(  37) = (   0.6753770   0.1037870   0.5234370  )
        38           Si  tau(  38) = (   0.7466510   0.7240460   0.0412375  )
        39           Si  tau(  39) = (   0.9615170   0.9270380   0.5625690  )
        40           Si  tau(  40) = (   0.2812070   0.8503460   0.3884480  )
        41           Si  tau(  41) = (   0.1480500   0.5403960   0.7021690  )
        42           Si  tau(  42) = (   0.3520200   0.3381070   0.8667170  )
        43           Si  tau(  43) = (   0.0719482   0.8691040   0.0482530  )
        44           Si  tau(  44) = (   0.1767470   0.4247800   0.9809500  )
        45           Si  tau(  45) = (   0.0073372   0.9150510   0.3589470  )
        46           Si  tau(  46) = (   0.9107000   0.7717180   0.2422230  )
        47           Si  tau(  47) = (   0.5138610   0.3365760   0.0132491  )
        48           Si  tau(  48) = (   0.5332960   0.7987770   0.4730750  )
        49           Si  tau(  49) = (   0.3205170   0.3537120   0.5750700  )
        50           Si  tau(  50) = (   0.1016740   0.0825230   0.6292740  )
        51           Si  tau(  51) = (   0.5002160   0.8836450   0.2455550  )
        52           Si  tau(  52) = (   0.5886630   0.4867570   0.3263300  )
        53           Si  tau(  53) = (   0.2941560   0.6211130   0.8322550  )
        54           Si  tau(  54) = (   0.6905870   0.5708560   0.8351120  )
        55           Si  tau(  55) = (   0.4787550   0.5030910   0.7129960  )
        56           Si  tau(  56) = (   0.4252880   0.8217760   0.0057261  )
        57           Si  tau(  57) = (   0.5058520   0.5930130   0.5189150  )
        58           Si  tau(  58) = (   0.2326600   0.0275982   0.9200610  )
        59           Si  tau(  59) = (   0.8998760   0.5769620   0.3989840  )
        60           Si  tau(  60) = (   0.8183040   0.2883600   0.5234870  )
        61           Si  tau(  61) = (   0.1154050   0.3597550   0.5770520  )
        62           Si  tau(  62) = (   0.1307990   0.7697070   0.5919050  )
        63           Si  tau(  63) = (   0.8728020   0.9944550   0.0135559  )
        64           Si  tau(  64) = (   0.3391750   0.0277180   0.5359680  )

     number of k points=     1
                       cart. coord. in units 2pi/alat
        k(    1) = (   0.0000000   0.0000000   0.0000000), wk =   2.0000000

     Dense  grid:    93012 G-vectors     FFT dimensions: (  72,  72,  72)

     Estimated max dynamical RAM per process >     136.55 MB

     Estimated total dynamical RAM >     523.49 MB

     Initial potential from superposition of free atoms

     starting charge     255.9608, renormalised to     256.0000
     Starting wfcs are  256 randomized atomic wfcs

     total cpu time spent up to now is        4.1 secs

     Self-consistent Calculation

     iteration #  1     ecut=    30.00 Ry     beta= 0.50
     Davidson diagonalization with overlap
     ethr =  1.00E-02,  avg # of iterations =  2.0

     Threshold (ethr) on eigenvalues was too large:
     Diagonalizing with lowered threshold

     Davidson diagonalization with overlap
     ethr =  3.65E-04,  avg # of iterations =  4.0

     total cpu time spent up to now is        4.2 secs

     total energy              =    -501.18164965 Ry
     estimated scf accuracy    <       1.18827325 Ry

     iteration #  2     ecut=    30.00 Ry     beta= 0.50
     Davidson diagonalization with overlap
     ethr =  4.64E-04,  avg # of iterations =  5.0

     total cpu time spent up to now is        4.3 secs

     total energy              =    -501.10759739 Ry
     estimated scf accuracy    <       1.13731561 Ry

     iteration #  3     ecut=    30.00 Ry     beta= 0.50
     Davidson diagonalization with overlap
     ethr =  4.44E-04,  avg # of iterations =  6.0

     total cpu time spent up to now is        4.4 secs

     total energy              =    -501.18868222 Ry
     estimated scf accuracy    <       1.83858079 Ry

     iteration #  4     ecut=    30.00 Ry     beta= 0.50
     Davidson diagonalization with overlap
     ethr =  4.44E-04,  avg # of iterations =  6.0

     total cpu time spent up to now is        4.5 secs

     total energy              =    -501.33703337 Ry
     estimated scf accuracy    <       0.20866445 Ry

     iteration #  5     ecut=    30.00 Ry     beta= 0.50
     Davidson diagonalization with overlap
     ethr =  8.15E-05,  avg # of iterations =  5.0

     total cpu time spent up to now is        4.6 secs

     total energy              =    -501.36715421 Ry
     estimated scf accuracy    <       0.12319703 Ry

     iteration #  6     ecut=    30.00 Ry     beta= 0.50
     Davidson diagonalization with overlap
     ethr =  4.81E-05,  avg # of iterations =  6.0

     total cpu time spent up to now is        4.7 secs

     total energy              =    -501.37718327 Ry
     estimated scf accuracy    <       0.09042531 Ry

     iteration #  7     ecut=    30.00 Ry     beta= 0.50
     Davidson diagonalization with overlap
     ethr =  3.53E-05,  avg # of iterations =  5.0

     total cpu time spent up to now is        4.8 secs

     total energy              =    -501.38104920 Ry
     estimated scf accuracy    <       0.01769983 Ry

     iteration #  8     ecut=    30.00 Ry     beta= 0.50
     Davidson diagonalization with overlap
     c_bands:  2 eigenvalues not converged
     ethr =  6.91E-06,  avg # of iterations = 20.0

     total cpu time spent up to now is        5.0 secs

     total energy              =    -501.39168602 Ry
     estimated scf accuracy    <       0.03796496 Ry

     iteration #  9     ecut=    30.00 Ry     beta= 0.50
     Davidson diagonalization with overlap
     ethr =  6.91E-06,  avg # of iterations = 14.0

     total cpu time spent up to now is        5.1 secs

     total energy              =    -501.39295865 Ry
     estimated scf accuracy    <       0.03624337 Ry

     iteration # 10     ecut=    30.00 Ry     beta= 0.50
     Davidson diagonalization with overlap
     ethr =  6.91E-06,  avg # of iterations =  1.0

     total cpu time spent up to now is        5.1 secs

     total energy              =    -501.39215448 Ry
     estimated scf accuracy    <       0.03350461 Ry

     iteration # 11     ecut=    30.00 Ry     beta= 0.50
     Davidson diagonalization with overlap
     ethr =  6.91E-06,  avg # of iterations =  1.0

     total cpu time spent up to now is        5.2 secs

     total energy              =    -501.38686589 Ry
     estimated scf accuracy    <       0.02896399 Ry

     iteration # 12     ecut=    30.00 Ry     beta= 0.50
     Davidson diagonalization with overlap
     ethr =  6.91E-06,  avg # of iterations = 11.0

     total cpu time spent up to now is        5.3 secs

     total energy              =    -501.38963395 Ry
     estimated scf accuracy    <       0.01334273 Ry

     iteration # 13     ecut=    30.00 Ry     beta= 0.50
     Davidson diagonalization with overlap
     ethr =  5.21E-06,  avg # of iterations =  1.0

     total cpu time spent up to now is        5.4 secs

     total energy              =    -501.38834653 Ry
     estimated scf accuracy    <       0.01089365 Ry

     iteration # 14     ecut=    30.00 Ry     beta= 0.50
     Davidson diagonalization with overlap
     ethr =  4.26E-06,  avg # of iterations =  3.0

     total cpu time spent up to now is        5.5 secs

     total energy              =    -501.38834375 Ry
     estimated scf accuracy    <       0.00375921 Ry

     iteration # 15     ecut=    30.00 Ry     beta= 0.50
     Davidson diagonalization with overlap
     ethr =  1.47E-06,  avg # of iterations = 20.0

     total cpu time spent up to now is        5.6 secs

     total energy              =    -501.38892266 Ry
     estimated scf accuracy    <       0.00160327 Ry

     iteration # 16     ecut=    30.00 Ry     beta= 0.50
     Davidson diagonalization with overlap
     ethr =  6.26E-07,  avg # of iterations =  6.0

     total cpu time spent up to now is        5.7 secs

     total energy              =    -501.38886952 Ry
     estimated scf accuracy    <       0.00096040 Ry

     iteration # 17     ecut=    30.00 Ry     beta= 0.50
     Davidson diagonalization with overlap
     c_bands:  1 eigenvalues not converged
     ethr =  3.75E-07,  avg # of iterations = 20.0

     total cpu time spent up to now is        5.9 secs

     total energy              =    -501.38887249 Ry
     estimated scf accuracy    <       0.00032923 Ry

     iteration # 18     ecut=    30.00 Ry     beta= 0.50
     Davidson diagonalization with overlap
     c_bands:  1 eigenvalues not converged
     ethr =  1.29E-07,  avg # of iterations = 20.0

     total cpu time spent up to now is        6.1 secs

     total energy              =    -501.38883760 Ry
     estimated scf accuracy    <       0.02512214 Ry

     iteration # 19     ecut=    30.00 Ry     beta= 0.50
     Davidson diagonalization with overlap
     ethr =  1.29E-07,  avg # of iterations = 19.0

     total cpu time spent up to now is        6.2 secs

     total energy              =    -501.38847198 Ry
     estimated scf accuracy    <       0.02046320 Ry

     iteration # 20     ecut=    30.00 Ry     beta= 0.50
     Davidson diagonalization with overlap
     ethr =  1.29E-07,  avg # of iterations =  8.0

     total cpu time spent up to now is        6.3 secs

     total energy              =    -501.38904046 Ry
     estimated scf accuracy    <       0.01905774 Ry

     iteration # 21     ecut=    30.00 Ry     beta= 0.50
     Davidson diagonalization with overlap
     ethr =  1.29E-07,  avg # of iterations =  8.0

     total cpu time spent up to now is        6.4 secs

     total energy              =    -501.38948982 Ry
     estimated scf accuracy    <       0.02054810 Ry

     iteration # 22     ecut=    30.00 Ry     beta= 0.50
     Davidson diagonalization with overlap
     ethr =  1.29E-07,  avg # of iterations =  6.0

     total cpu time spent up to now is        6.5 secs

     total energy              =    -501.38944841 Ry
     estimated scf accuracy    <       0.02278084 Ry

     iteration # 23     ecut=    30.00 Ry     beta= 0.50
     Davidson diagonalization with overlap
     ethr =  1.29E-07,  avg # of iterations =  3.0

     total cpu time spent up to now is        6.6 secs

     total energy              =    -501.38960601 Ry
     estimated scf accuracy    <       0.02264529 Ry

     iteration # 24     ecut=    30.00 Ry     beta= 0.50
     Davidson diagonalization with overlap
     ethr =  1.29E-07,  avg # of iterations =  3.0

     total cpu time spent up to now is        6.7 secs

     total energy              =    -501.38955202 Ry
     estimated scf accuracy    <       0.02296391 Ry

     iteration # 25     ecut=    30.00 Ry     beta= 0.50
     Davidson diagonalization with overlap
     ethr =  1.29E-07,  avg # of iterations =  3.0

     total cpu time spent up to now is        6.7 secs

     total energy              =    -501.38966839 Ry
     estimated scf accuracy    <       0.02242828 Ry

     iteration # 26     ecut=    30.00 Ry     beta= 0.50
     Davidson diagonalization with overlap
     c_bands:  1 eigenvalues not converged
     ethr =  1.29E-07,  avg # of iterations = 20.0

     total cpu time spent up to now is        6.9 secs

     total energy              =    -501.38129999 Ry
     estimated scf accuracy    <       0.02248090 Ry

     iteration # 27     ecut=    30.00 Ry     beta= 0.50
     Davidson diagonalization with overlap
     c_bands:  5 eigenvalues not converged
     ethr =  1.29E-07,  avg # of iterations = 20.0

     total cpu time spent up to now is        7.1 secs

     total energy              =    -501.37278378 Ry
     estimated scf accuracy    <       0.26104748 Ry

     iteration # 28     ecut=    30.00 Ry     beta= 0.50
     Davidson diagonalization with overlap
     c_bands:  5 eigenvalues not converged
     ethr =  1.29E-07,  avg # of iterations = 20.0

     total cpu time spent up to now is        7.3 secs

     total energy              =    -501.38661828 Ry
     estimated scf accuracy    <       0.07642412 Ry

     iteration # 29     ecut=    30.00 Ry     beta= 0.50
     Davidson diagonalization with overlap
     c_bands:  2 eigenvalues not converged
     ethr =  1.29E-07,  avg # of iterations = 20.0

     total cpu time spent up to now is        7.5 secs

     total energy              =    -501.38900549 Ry
     estimated scf accuracy    <       0.01389902 Ry

     iteration # 30     ecut=    30.00 Ry     beta= 0.50
     Davidson diagonalization with overlap
     ethr =  1.29E-07,  avg # of iterations = 17.0

     total cpu time spent up to now is        7.7 secs

     total energy              =    -501.38901431 Ry
     estimated scf accuracy    <       0.01367512 Ry

     iteration # 31     ecut=    30.00 Ry     beta= 0.50
     Davidson diagonalization with overlap
     ethr =  1.29E-07,  avg # of iterations = 19.0

     total cpu time spent up to now is        7.9 secs

     total energy              =    -501.38947282 Ry
     estimated scf accuracy    <       0.00561233 Ry

     iteration # 32     ecut=    30.00 Ry     beta= 0.50
     Davidson diagonalization with overlap
     ethr =  1.29E-07,  avg # of iterations =  8.0

     total cpu time spent up to now is        8.0 secs

     total energy              =    -501.38942421 Ry
     estimated scf accuracy    <       0.00327006 Ry

     iteration # 33     ecut=    30.00 Ry     beta= 0.50
     Davidson diagonalization with overlap
     ethr =  1.29E-07,  avg # of iterations =  2.0

     total cpu time spent up to now is        8.1 secs

     total energy              =    -501.38926019 Ry
     estimated scf accuracy    <       0.00266550 Ry

     iteration # 34     ecut=    30.00 Ry     beta= 0.50
     Davidson diagonalization with overlap
     ethr =  1.29E-07,  avg # of iterations =  2.0

     total cpu time spent up to now is        8.1 secs

     total energy              =    -501.38872569 Ry
     estimated scf accuracy    <       0.00194519 Ry

     iteration # 35     ecut=    30.00 Ry     beta= 0.50
     Davidson diagonalization with overlap
     c_bands:  1 eigenvalues not converged
     ethr =  1.29E-07,  avg # of iterations = 20.0

     total cpu time spent up to now is        8.3 secs

     total energy              =    -501.38860511 Ry
     estimated scf accuracy    <       0.02321298 Ry

     iteration # 36     ecut=    30.00 Ry     beta= 0.50
     Davidson diagonalization with overlap
     ethr =  1.29E-07,  avg # of iterations = 20.0

     total cpu time spent up to now is        8.5 secs

     total energy              =    -501.38786005 Ry
     estimated scf accuracy    <       0.01875524 Ry

     iteration # 37     ecut=    30.00 Ry     beta= 0.50
     Davidson diagonalization with overlap
     ethr =  1.29E-07,  avg # of iterations =  2.0

     total cpu time spent up to now is        8.5 secs

     total energy              =    -501.38782375 Ry
     estimated scf accuracy    <       0.01523063 Ry

     iteration # 38     ecut=    30.00 Ry     beta= 0.50
     Davidson diagonalization with overlap
     ethr =  1.29E-07,  avg # of iterations =  1.0

     total cpu time spent up to now is        8.6 secs

     total energy              =    -501.38781037 Ry
     estimated scf accuracy    <       0.01472637 Ry

     iteration # 39     ecut=    30.00 Ry     beta= 0.50
     Davidson diagonalization with overlap
     ethr =  1.29E-07,  avg # of iterations =  1.0

     total cpu time spent up to now is        8.7 secs

     total energy              =    -501.38777021 Ry
     estimated scf accuracy    <       0.01448171 Ry

     iteration # 40     ecut=    30.00 Ry     beta= 0.50
     Davidson diagonalization with overlap
     ethr =  1.29E-07,  avg # of iterations =  1.0

     total cpu time spent up to now is        8.7 secs

     total energy              =    -501.38772042 Ry
     estimated scf accuracy    <       0.01412968 Ry

     iteration # 41     ecut=    30.00 Ry     beta= 0.50
     Davidson diagonalization with overlap
     ethr =  1.29E-07,  avg # of iterations =  1.0

     total cpu time spent up to now is        8.8 secs

     total energy              =    -501.38767681 Ry
     estimated scf accuracy    <       0.01385137 Ry

     iteration # 42     ecut=    30.00 Ry     beta= 0.50
     Davidson diagonalization with overlap
     ethr =  1.29E-07,  avg # of iterations =  1.0

     total cpu time spent up to now is        8.9 secs

     total energy              =    -501.38734768 Ry
     estimated scf accuracy    <       0.01354327 Ry

     iteration # 43     ecut=    30.00 Ry     beta= 0.50
     Davidson diagonalization with overlap
     ethr =  1.29E-07,  avg # of iterations =  2.0

     total cpu time spent up to now is        8.9 secs

     total energy              =    -501.38388911 Ry
     estimated scf accuracy    <       0.01220900 Ry

     iteration # 44     ecut=    30.00 Ry     beta= 0.50
     Davidson diagonalization with overlap
     c_bands:  2 eigenvalues not converged
     ethr =  1.29E-07,  avg # of iterations = 20.0

     total cpu time spent up to now is        9.1 secs

     total energy              =    -501.39181204 Ry
     estimated scf accuracy    <       0.02379634 Ry

     iteration # 45     ecut=    30.00 Ry     beta= 0.50
     Davidson diagonalization with overlap
     ethr =  1.29E-07,  avg # of iterations = 17.0

     total cpu time spent up to now is        9.3 secs

     total energy              =    -501.39071525 Ry
     estimated scf accuracy    <       0.01584718 Ry

     iteration # 46     ecut=    30.00 Ry     beta= 0.50
     Davidson diagonalization with overlap
     ethr =  1.29E-07,  avg # of iterations = 16.0

     total cpu time spent up to now is        9.5 secs

     total energy              =    -501.39008867 Ry
     estimated scf accuracy    <       0.00990855 Ry

     iteration # 47     ecut=    30.00 Ry     beta= 0.50
     Davidson diagonalization with overlap
     ethr =  1.29E-07,  avg # of iterations =  7.0

     total cpu time spent up to now is        9.6 secs

     total energy              =    -501.38991210 Ry
     estimated scf accuracy    <       0.00689761 Ry

     iteration # 48     ecut=    30.00 Ry     beta= 0.50
     Davidson diagonalization with overlap
     ethr =  1.29E-07,  avg # of iterations =  2.0

     total cpu time spent up to now is        9.6 secs

     total energy              =    -501.38972360 Ry
     estimated scf accuracy    <       0.00557039 Ry

     iteration # 49     ecut=    30.00 Ry     beta= 0.50
     Davidson diagonalization with overlap
     ethr =  1.29E-07,  avg # of iterations =  2.0

     total cpu time spent up to now is        9.7 secs

     total energy              =    -501.38962249 Ry
     estimated scf accuracy    <       0.00464411 Ry

     iteration # 50     ecut=    30.00 Ry     beta= 0.50
     Davidson diagonalization with overlap
     ethr =  1.29E-07,  avg # of iterations =  1.0

     total cpu time spent up to now is        9.8 secs

     total energy              =    -501.38940806 Ry
     estimated scf accuracy    <       0.00415820 Ry

     iteration # 51     ecut=    30.00 Ry     beta= 0.50
     Davidson diagonalization with overlap
     ethr =  1.29E-07,  avg # of iterations =  2.0

     total cpu time spent up to now is        9.9 secs

     total energy              =    -501.38928515 Ry
     estimated scf accuracy    <       0.00314498 Ry

     iteration # 52     ecut=    30.00 Ry     beta= 0.50
     Davidson diagonalization with overlap
     c_bands:  1 eigenvalues not converged
     ethr =  1.29E-07,  avg # of iterations = 20.0

     total cpu time spent up to now is       10.0 secs

     total energy              =    -501.38862753 Ry
     estimated scf accuracy    <       0.00200055 Ry

     iteration # 53     ecut=    30.00 Ry     beta= 0.50
     Davidson diagonalization with overlap
     c_bands:  2 eigenvalues not converged
     ethr =  1.29E-07,  avg # of iterations = 20.0

     total cpu time spent up to now is       10.2 secs

     total energy              =    -501.38969434 Ry
     estimated scf accuracy    <       0.02118721 Ry

     iteration # 54     ecut=    30.00 Ry     beta= 0.50
     Davidson diagonalization with overlap
     c_bands:  1 eigenvalues not converged
     ethr =  1.29E-07,  avg # of iterations = 20.0

     total cpu time spent up to now is       10.3 secs

     total energy              =    -501.38991482 Ry
     estimated scf accuracy    <       0.02185603 Ry

     iteration # 55     ecut=    30.00 Ry     beta= 0.50
     Davidson diagonalization with overlap
     c_bands:  1 eigenvalues not converged
     ethr =  1.29E-07,  avg # of iterations = 20.0

     total cpu time spent up to now is       10.5 secs

     total energy              =    -501.38979554 Ry
     estimated scf accuracy    <       0.02102590 Ry

     iteration # 56     ecut=    30.00 Ry     beta= 0.50
     Davidson diagonalization with overlap
     ethr =  1.29E-07,  avg # of iterations = 15.0

     total cpu time spent up to now is       10.6 secs

     total energy              =    -501.38932384 Ry
     estimated scf accuracy    <       0.02022187 Ry

     iteration # 57     ecut=    30.00 Ry     beta= 0.50
     Davidson diagonalization with overlap
     c_bands:  1 eigenvalues not converged
     ethr =  1.29E-07,  avg # of iterations = 20.0

     total cpu time spent up to now is       10.7 secs

     total energy              =    -501.38960460 Ry
     estimated scf accuracy    <       0.01714587 Ry

     iteration # 58     ecut=    30.00 Ry     beta= 0.50
     Davidson diagonalization with overlap
     ethr =  1.29E-07,  avg # of iterations = 10.0

     total cpu time spent up to now is       10.8 secs

     total energy              =    -501.38978478 Ry
     estimated scf accuracy    <       0.01791432 Ry

     iteration # 59     ecut=    30.00 Ry     beta= 0.50
     Davidson diagonalization with overlap
     ethr =  1.29E-07,  avg # of iterations =  2.0

     total cpu time spent up to now is       10.9 secs

     total energy              =    -501.38878802 Ry
     estimated scf accuracy    <       0.01869520 Ry

     iteration # 60     ecut=    30.00 Ry     beta= 0.50
     Davidson diagonalization with overlap
     ethr =  1.29E-07,  avg # of iterations = 20.0

     total cpu time spent up to now is       11.1 secs

     total energy              =    -501.38880110 Ry
     estimated scf accuracy    <       0.01526317 Ry

     iteration # 61     ecut=    30.00 Ry     beta= 0.50
     Davidson diagonalization with overlap
     ethr =  1.29E-07,  avg # of iterations = 16.0

     total cpu time spent up to now is       11.2 secs

     total energy              =    -501.38242169 Ry
     estimated scf accuracy    <       0.01384244 Ry

     iteration # 62     ecut=    30.00 Ry     beta= 0.50
     Davidson diagonalization with overlap
     c_bands:  5 eigenvalues not converged
     ethr =  1.29E-07,  avg # of iterations = 20.0

     total cpu time spent up to now is       11.4 secs

     total energy              =    -501.38734584 Ry
     estimated scf accuracy    <       0.08199013 Ry

     iteration # 63     ecut=    30.00 Ry     beta= 0.50
     Davidson diagonalization with overlap
     c_bands:  4 eigenvalues not converged
     ethr =  1.29E-07,  avg # of iterations = 20.0

     total cpu time spent up to now is       11.6 secs

     total energy              =    -501.38868636 Ry
     estimated scf accuracy    <       0.03338318 Ry

     iteration # 64     ecut=    30.00 Ry     beta= 0.50
     Davidson diagonalization with overlap
     c_bands:  1 eigenvalues not converged
     ethr =  1.29E-07,  avg # of iterations = 20.0

     total cpu time spent up to now is       11.8 secs

     total energy              =    -501.38972161 Ry
     estimated scf accuracy    <       0.01436605 Ry

     iteration # 65     ecut=    30.00 Ry     beta= 0.50
     Davidson diagonalization with overlap
     c_bands:  1 eigenvalues not converged
     ethr =  1.29E-07,  avg # of iterations = 20.0

     total cpu time spent up to now is       12.0 secs

     total energy              =    -501.38947258 Ry
     estimated scf accuracy    <       0.00719553 Ry

     iteration # 66     ecut=    30.00 Ry     beta= 0.50
     Davidson diagonalization with overlap
     ethr =  1.29E-07,  avg # of iterations = 11.0

     total cpu time spent up to now is       12.1 secs

     total energy              =    -501.38952226 Ry
     estimated scf accuracy    <       0.00497637 Ry

     iteration # 67     ecut=    30.00 Ry     beta= 0.50
     Davidson diagonalization with overlap
     c_bands:  1 eigenvalues not converged
     ethr =  1.29E-07,  avg # of iterations = 20.0

     total cpu time spent up to now is       12.3 secs

     total energy              =    -501.38938221 Ry
     estimated scf accuracy    <       0.00388442 Ry

     iteration # 68     ecut=    30.00 Ry     beta= 0.50
     Davidson diagonalization with overlap
     ethr =  1.29E-07,  avg # of iterations = 13.0

     total cpu time spent up to now is       12.4 secs

     total energy              =    -501.38919232 Ry
     estimated scf accuracy    <       0.00309131 Ry

     iteration # 69     ecut=    30.00 Ry     beta= 0.50
     Davidson diagonalization with overlap
     c_bands:  1 eigenvalues not converged
     ethr =  1.29E-07,  avg # of iterations = 20.0

     total cpu time spent up to now is       12.6 secs

     total energy              =    -501.38899716 Ry
     estimated scf accuracy    <       0.00220521 Ry

     iteration # 70     ecut=    30.00 Ry     beta= 0.50
     Davidson diagonalization with overlap
     c_bands:  1 eigenvalues not converged
     ethr =  1.29E-07,  avg # of iterations = 20.0

     total cpu time spent up to now is       12.7 secs

     total energy              =    -501.38890959 Ry
     estimated scf accuracy    <       0.00091518 Ry

     iteration # 71     ecut=    30.00 Ry     beta= 0.50
     Davidson diagonalization with overlap
     c_bands:  1 eigenvalues not converged
     ethr =  1.29E-07,  avg # of iterations = 20.0

     total cpu time spent up to now is       12.9 secs

     total energy              =    -501.38845003 Ry
     estimated scf accuracy    <       0.02153636 Ry

     iteration # 72     ecut=    30.00 Ry     beta= 0.50
     Davidson diagonalization with overlap
     c_bands:  1 eigenvalues not converged
     ethr =  1.29E-07,  avg # of iterations = 20.0

     total cpu time spent up to now is       13.1 secs

     total energy              =    -501.38832988 Ry
     estimated scf accuracy    <       0.01192307 Ry

     iteration # 73     ecut=    30.00 Ry     beta= 0.50
     Davidson diagonalization with overlap
     c_bands:  1 eigenvalues not converged
     ethr =  1.29E-07,  avg # of iterations = 20.0

     total cpu time spent up to now is       13.2 secs

     total energy              =    -501.38844340 Ry
     estimated scf accuracy    <       0.00909474 Ry

     iteration # 74     ecut=    30.00 Ry     beta= 0.50
     Davidson diagonalization with overlap
     c_bands:  1 eigenvalues not converged
     ethr =  1.29E-07,  avg # of iterations = 20.0

     total cpu time spent up to now is       13.4 secs

     total energy              =    -501.38862312 Ry
     estimated scf accuracy    <       0.00647284 Ry

     iteration # 75     ecut=    30.00 Ry     beta= 0.50
     Davidson diagonalization with overlap
     c_bands:  1 eigenvalues not converged
     ethr =  1.29E-07,  avg # of iterations = 20.0

     total cpu time spent up to now is       13.5 secs

     total energy              =    -501.38869538 Ry
     estimated scf accuracy    <       0.00515920 Ry

     iteration # 76     ecut=    30.00 Ry     beta= 0.50
     Davidson diagonalization with overlap
     c_bands:  1 eigenvalues not converged
     ethr =  1.29E-07,  avg # of iterations = 20.0

     total cpu time spent up to now is       13.7 secs

     total energy              =    -501.38893575 Ry
     estimated scf accuracy    <       0.00237617 Ry

     iteration # 77     ecut=    30.00 Ry     beta= 0.50
     Davidson diagonalization with overlap
     c_bands:  1 eigenvalues not converged
     ethr =  1.29E-07,  avg # of iterations = 20.0

     total cpu time spent up to now is       13.8 secs

     total energy              =    -501.38904858 Ry
     estimated scf accuracy    <       0.00190207 Ry

     iteration # 78     ecut=    30.00 Ry     beta= 0.50
     Davidson diagonalization with overlap
     c_bands:  1 eigenvalues not converged
     ethr =  1.29E-07,  avg # of iterations = 20.0

     total cpu time spent up to now is       14.0 secs

     total energy              =    -501.38908161 Ry
     estimated scf accuracy    <       0.00144103 Ry

     iteration # 79     ecut=    30.00 Ry     beta= 0.50
     Davidson diagonalization with overlap
     ethr =  1.29E-07,  avg # of iterations = 13.0

     total cpu time spent up to now is       14.1 secs

     total energy              =    -501.38914061 Ry
     estimated scf accuracy    <       0.00093301 Ry

     iteration # 80     ecut=    30.00 Ry     beta= 0.50
     Davidson diagonalization with overlap
     ethr =  1.29E-07,  avg # of iterations =  3.0

     total cpu time spent up to now is       14.2 secs

     total energy              =    -501.38916719 Ry
     estimated scf accuracy    <       0.00093929 Ry

     iteration # 81     ecut=    30.00 Ry     beta= 0.50
     Davidson diagonalization with overlap
     ethr =  1.29E-07,  avg # of iterations =  2.0

     total cpu time spent up to now is       14.2 secs

     total energy              =    -501.38919974 Ry
     estimated scf accuracy    <       0.00096855 Ry

     iteration # 82     ecut=    30.00 Ry     beta= 0.50
     Davidson diagonalization with overlap
     ethr =  1.29E-07,  avg # of iterations =  2.0

     total cpu time spent up to now is       14.3 secs

     total energy              =    -501.38914198 Ry
     estimated scf accuracy    <       0.00111345 Ry

     iteration # 83     ecut=    30.00 Ry     beta= 0.50
     Davidson diagonalization with overlap
     ethr =  1.29E-07,  avg # of iterations = 10.0

     total cpu time spent up to now is       14.4 secs

     total energy              =    -501.38906618 Ry
     estimated scf accuracy    <       0.00207264 Ry

     iteration # 84     ecut=    30.00 Ry     beta= 0.50
     Davidson diagonalization with overlap
     ethr =  1.29E-07,  avg # of iterations = 10.0

     total cpu time spent up to now is       14.6 secs

     total energy              =    -501.38873747 Ry
     estimated scf accuracy    <       0.00139793 Ry

     iteration # 85     ecut=    30.00 Ry     beta= 0.50
     Davidson diagonalization with overlap
     c_bands:  2 eigenvalues not converged
     ethr =  1.29E-07,  avg # of iterations = 20.0

     total cpu time spent up to now is       14.7 secs

     total energy              =    -501.38779172 Ry
     estimated scf accuracy    <       0.02075085 Ry

     iteration # 86     ecut=    30.00 Ry     beta= 0.50
     Davidson diagonalization with overlap
     c_bands:  1 eigenvalues not converged
     ethr =  1.29E-07,  avg # of iterations = 20.0

     total cpu time spent up to now is       14.9 secs

     total energy              =    -501.38863558 Ry
     estimated scf accuracy    <       0.01320047 Ry

     iteration # 87     ecut=    30.00 Ry     beta= 0.50
     Davidson diagonalization with overlap
     ethr =  1.29E-07,  avg # of iterations =  8.0

     total cpu time spent up to now is       15.0 secs

     total energy              =    -501.38835490 Ry
     estimated scf accuracy    <       0.01165866 Ry

     iteration # 88     ecut=    30.00 Ry     beta= 0.50
     Davidson diagonalization with overlap
     ethr =  1.29E-07,  avg # of iterations =  7.0

     total cpu time spent up to now is       15.1 secs

     total energy              =    -501.38808367 Ry
     estimated scf accuracy    <       0.01003315 Ry

     iteration # 89     ecut=    30.00 Ry     beta= 0.50
     Davidson diagonalization with overlap
     ethr =  1.29E-07,  avg # of iterations =  2.0

     total cpu time spent up to now is       15.2 secs

     total energy              =    -501.38750819 Ry
     estimated scf accuracy    <       0.00883922 Ry

     iteration # 90     ecut=    30.00 Ry     beta= 0.50
     Davidson diagonalization with overlap
     c_bands:  1 eigenvalues not converged
     ethr =  1.29E-07,  avg # of iterations = 20.0

     total cpu time spent up to now is       15.3 secs

     total energy              =    -501.38921288 Ry
     estimated scf accuracy    <       0.00887157 Ry

     iteration # 91     ecut=    30.00 Ry     beta= 0.50
     Davidson diagonalization with overlap
     c_bands:  1 eigenvalues not converged
     ethr =  1.29E-07,  avg # of iterations = 20.0

     total cpu time spent up to now is       15.5 secs

     total energy              =    -501.38908462 Ry
     estimated scf accuracy    <       0.00773586 Ry

     iteration # 92     ecut=    30.00 Ry     beta= 0.50
     Davidson diagonalization with overlap
     c_bands:  1 eigenvalues not converged
     ethr =  1.29E-07,  avg # of iterations = 20.0

     total cpu time spent up to now is       15.7 secs

     total energy              =    -501.38923465 Ry
     estimated scf accuracy    <       0.00322982 Ry

     iteration # 93     ecut=    30.00 Ry     beta= 0.50
     Davidson diagonalization with overlap
     ethr =  1.29E-07,  avg # of iterations = 10.0

     total cpu time spent up to now is       15.8 secs

     total energy              =    -501.38960221 Ry
     estimated scf accuracy    <       0.00333549 Ry

     iteration # 94     ecut=    30.00 Ry     beta= 0.50
     Davidson diagonalization with overlap
     ethr =  1.29E-07,  avg # of iterations = 20.0

     total cpu time spent up to now is       16.0 secs

     total energy              =    -501.38926536 Ry
     estimated scf accuracy    <       0.00609502 Ry

     iteration # 95     ecut=    30.00 Ry     beta= 0.50
     Davidson diagonalization with overlap
     ethr =  1.29E-07,  avg # of iterations = 11.0

     total cpu time spent up to now is       16.1 secs

     total energy              =    -501.38929360 Ry
     estimated scf accuracy    <       0.00408168 Ry

     iteration # 96     ecut=    30.00 Ry     beta= 0.50
     Davidson diagonalization with overlap
     ethr =  1.29E-07,  avg # of iterations =  3.0

     total cpu time spent up to now is       16.2 secs

     total energy              =    -501.38926864 Ry
     estimated scf accuracy    <       0.00357888 Ry

     iteration # 97     ecut=    30.00 Ry     beta= 0.50
     Davidson diagonalization with overlap
     ethr =  1.29E-07,  avg # of iterations =  1.0

     total cpu time spent up to now is       16.2 secs

     total energy              =    -501.38920105 Ry
     estimated scf accuracy    <       0.00339691 Ry

     iteration # 98     ecut=    30.00 Ry     beta= 0.50
     Davidson diagonalization with overlap
     ethr =  1.29E-07,  avg # of iterations =  1.0

     total cpu time spent up to now is       16.3 secs

     total energy              =    -501.38814647 Ry
     estimated scf accuracy    <       0.00310633 Ry

     iteration # 99     ecut=    30.00 Ry     beta= 0.50
     Davidson diagonalization with overlap
     c_bands:  2 eigenvalues not converged
     ethr =  1.29E-07,  avg # of iterations = 20.0

     total cpu time spent up to now is       16.5 secs

     total energy              =    -501.38803222 Ry
     estimated scf accuracy    <       0.02829961 Ry

     iteration #100     ecut=    30.00 Ry     beta= 0.50
     Davidson diagonalization with overlap
     c_bands:  1 eigenvalues not converged
     ethr =  1.29E-07,  avg # of iterations = 20.0

     total cpu time spent up to now is       16.7 secs

     total energy              =    -501.38888006 Ry
     estimated scf accuracy    <       0.00360321 Ry

     End of self-consistent calculation

     convergence NOT achieved after 100 iterations: stopping

     Writing config to output data dir ./pwscf.save/
     Message from routine punch:
     wavefunctions written to file
 
     init_run     :      0.94s CPU      4.00s WALL (       1 calls)
     electrons    :     11.94s CPU     12.63s WALL (       1 calls)

     Called by init_run:
     wfcinit      :      0.43s CPU      3.33s WALL (       1 calls)
                                        3.33s GPU  (       1 calls)
     potinit      :      0.04s CPU      0.13s WALL (       1 calls)
     hinit0       :      0.46s CPU      0.48s WALL (       1 calls)

     Called by electrons:
     c_bands      :      8.79s CPU      9.19s WALL (     101 calls)
     sum_band     :      1.42s CPU      1.61s WALL (     101 calls)
     v_of_rho     :      0.60s CPU      0.71s WALL (     101 calls)
     mix_rho      :      0.92s CPU      0.96s WALL (     101 calls)

     Called by c_bands:
     init_us_2    :      0.24s CPU      0.27s WALL (     203 calls)
     init_us_2:gp :      0.24s CPU      0.27s WALL (     203 calls)
     regterg      :      8.10s CPU      8.46s WALL (     101 calls)

     Called by *egterg:
     rdiaghg      :      4.08s CPU      4.79s WALL (    1280 calls)
                                        4.58s GPU  (    1280 calls)
     h_psi        :      3.31s CPU      5.81s WALL (    1282 calls)
                                        5.79s GPU  (    1282 calls)
     g_psi        :      0.00s CPU      0.03s WALL (    1180 calls)
                                        0.02s GPU  (    1180 calls)

     Called by h_psi:
     h_psi:calbec :      0.75s CPU      3.05s WALL (    1282 calls)
                                        3.04s GPU  (    1282 calls)
     vloc_psi     :      1.92s CPU      2.11s WALL (    1282 calls)
                                        2.08s GPU  (    1282 calls)
     add_vuspsi   :      0.48s CPU      0.59s WALL (    1282 calls)
                                        0.59s GPU  (    1282 calls)

     General routines
     calbec       :      0.74s CPU      3.02s WALL (    1282 calls)
     fft          :      0.94s CPU      1.11s WALL (     809 calls)
                                        0.18s GPU  (     505 calls)
     ffts         :      0.16s CPU      0.18s WALL (     101 calls)
     fftw         :      2.20s CPU      2.74s WALL (   10688 calls)
                                        2.38s GPU  (   10688 calls)
     davcio       :      0.00s CPU      0.01s WALL (      19 calls)
 
     Parallel routines
 
     PWSCF        :     12.92s CPU     16.72s WALL

 
   This run was terminated on:  15:25:24   9May2023            

=------------------------------------------------------------------------------=
   JOB DONE.
=------------------------------------------------------------------------------=
