An instance of this daemon is already running
An instance of this daemon is already running
An instance of this daemon is already running

     Program PWSCF v.7.1 starts on  9May2023 at 15:19:51 

     This program is part of the open-source Quantum ESPRESSO suite
     for quantum simulation of materials; please cite
         "P. Giannozzi et al., J. Phys.:Condens. Matter 21 395502 (2009);
         "P. Giannozzi et al., J. Phys.:Condens. Matter 29 465901 (2017);
         "P. Giannozzi et al., J. Chem. Phys. 152 154105 (2020);
          URL http://www.quantum-espresso.org", 
     in publications or presentations arising from this work. More details at
     http://www.quantum-espresso.org/quote

     Parallel version (MPI & OpenMP), running on       4 processor cores
     Number of MPI processes:                 4
     Threads/MPI process:                     1

     MPI processes distributed on     1 nodes
     52593 MiB available memory on the printing compute node when the environment starts
 
     Reading input from pw-si-71.in
Warning: card &CELL ignored
Warning: card / ignored

     Current dimensions of program PWSCF are:
     Max number of different atomic species (ntypx) = 10
     Max number of k-points (npk) =  40000
     Max angular momentum in pseudopotentials (lmaxx) =  4

     IMPORTANT: XC functional enforced from input :
     Exchange-correlation= PBE
                           (   1   4   3   4   0   0   0)
     Any further DFT definition will be discarded
     Please, verify this is what you really want


     gamma-point specific algorithms are used
 
     K-points division:     npool     =       2
     R & G space division:  proc/nbgrp/npool/nimage =       2
     Subspace diagonalization in iterative solution of the eigenvalue problem:
     a serial algorithm will be used

     Message from routine divide_et_impera:
     suboptimal parallelization: some nodes have no k-points
 
     Parallelization info
     --------------------
     sticks:   dense  smooth     PW     G-vecs:    dense   smooth      PW
     Min        1945    1945    519                91431    91431   12442
     Max        1948    1948    522                91436    91436   12443
     Sum        3893    3893   1041               182867   182867   24885
 
     Using Slab Decomposition
 


     bravais-lattice index     =            0
     lattice parameter (alat)  =      20.2033  a.u.
     unit-cell volume          =    8246.4774 (a.u.)^3
     number of atoms/cell      =           64
     number of atomic types    =            1
     number of electrons       =       256.00
     number of Kohn-Sham states=          128
     kinetic-energy cutoff     =      30.0000  Ry
     charge density cutoff     =     120.0000  Ry
     scf convergence threshold =      1.0E-06
     mixing beta               =       0.5000
     number of iterations used =            8  plain     mixing
     Exchange-correlation= PBE
                           (   1   4   3   4   0   0   0)

     GPU acceleration is ACTIVE.
     GPU-aware MPI enabled

     Message from routine print_cuda_info:
     High GPU oversubscription detected. Are you sure this is what you want?

     celldm(1)=  20.203324  celldm(2)=   0.000000  celldm(3)=   0.000000
     celldm(4)=   0.000000  celldm(5)=   0.000000  celldm(6)=   0.000000

     crystal axes: (cart. coord. in units of alat)
               a(1) = (   1.000000   0.000000   0.000000 )  
               a(2) = (   0.000000   1.000000   0.000000 )  
               a(3) = (   0.000000   0.000000   1.000000 )  

     reciprocal axes: (cart. coord. in units 2 pi/alat)
               b(1) = (  1.000000  0.000000  0.000000 )  
               b(2) = (  0.000000  1.000000  0.000000 )  
               b(3) = (  0.000000  0.000000  1.000000 )  


     PseudoPot. # 1 for Si read from file:
     /home/ppiaggi/pseudos/Si_ONCV_PBE_sr.upf
     MD5 check sum: 8553c464762ac42b85b1eed164b4d029
     Pseudo is Norm-conserving, Zval =  4.0
     Generated using ONCVPSP code by D. R. Hamann
     Using radial grid of 1510 points,  4 beta functions with: 
                l(1) =   0
                l(2) =   0
                l(3) =   1
                l(4) =   1

     atomic species   valence    mass     pseudopotential
        Si             4.00    28.08500     Si( 1.00)

     No symmetry found



   Cartesian axes

     site n.     atom                  positions (alat units)
         1           Si  tau(   1) = (   0.9477000   0.8329810   0.1006580  )
         2           Si  tau(   2) = (   0.2476850   0.0592891   0.0436752  )
         3           Si  tau(   3) = (   0.5440590   0.2835510   0.1160780  )
         4           Si  tau(   4) = (   0.3366820   0.7895290   0.7451710  )
         5           Si  tau(   5) = (   0.9322700   0.4552430   0.2715880  )
         6           Si  tau(   6) = (   0.0408280   0.1838940   0.0336554  )
         7           Si  tau(   7) = (   0.7600130   0.5078880   0.7233130  )
         8           Si  tau(   8) = (   0.3765420   0.4332750   0.6097630  )
         9           Si  tau(   9) = (   0.4628200   0.6341500   0.9001010  )
        10           Si  tau(  10) = (   0.0239387   0.2205880   0.2512940  )
        11           Si  tau(  11) = (   0.9291750   0.4213680   0.0050956  )
        12           Si  tau(  12) = (   0.8066280   0.3687880   0.4878790  )
        13           Si  tau(  13) = (   0.8926540   0.3130170   0.6885950  )
        14           Si  tau(  14) = (   0.9406050   0.5885820   0.4673600  )
        15           Si  tau(  15) = (   0.7212020   0.8483760   0.6433910  )
        16           Si  tau(  16) = (   0.0352933   0.0745083   0.5721330  )
        17           Si  tau(  17) = (   0.4095960   0.0054095   0.8625140  )
        18           Si  tau(  18) = (   0.8436670   0.7765630   0.4787960  )
        19           Si  tau(  19) = (   0.3653950   0.7589730   0.2473540  )
        20           Si  tau(  20) = (   0.2146040   0.1662380   0.6982140  )
        21           Si  tau(  21) = (   0.3616720   0.1853340   0.2348380  )
        22           Si  tau(  22) = (   0.7297960   0.4934480   0.1331030  )
        23           Si  tau(  23) = (   0.2679600   0.4450050   0.0444799  )
        24           Si  tau(  24) = (   0.4132270   0.5799360   0.1371750  )
        25           Si  tau(  25) = (   0.9949690   0.0067586   0.3495240  )
        26           Si  tau(  26) = (   0.5289420   0.0943873   0.6990120  )
        27           Si  tau(  27) = (   0.7591910   0.0935409   0.0232955  )
        28           Si  tau(  28) = (   0.7626000   0.2449210   0.2286790  )
        29           Si  tau(  29) = (   0.4943230   0.4405270   0.8143980  )
        30           Si  tau(  30) = (   0.6489460   0.7468310   0.2272940  )
        31           Si  tau(  31) = (   0.6289460   0.0654825   0.3185470  )
        32           Si  tau(  32) = (   0.1135480   0.5542490   0.8453860  )
        33           Si  tau(  33) = (   0.5897060   0.9406990   0.9941370  )
        34           Si  tau(  34) = (   0.1089870   0.7030670   0.3251460  )
        35           Si  tau(  35) = (   0.3293070   0.5575130   0.4267540  )
        36           Si  tau(  36) = (   0.0027636   0.7824020   0.6656680  )
        37           Si  tau(  37) = (   0.1669890   0.8665820   0.4863060  )
        38           Si  tau(  38) = (   0.9697330   0.9805880   0.9374280  )
        39           Si  tau(  39) = (   0.1004680   0.4262870   0.5955970  )
        40           Si  tau(  40) = (   0.1497950   0.8935080   0.1874980  )
        41           Si  tau(  41) = (   0.0704333   0.5907120   0.1251880  )
        42           Si  tau(  42) = (   0.4595690   0.9755280   0.2095910  )
        43           Si  tau(  43) = (   0.6924840   0.3638730   0.9121080  )
        44           Si  tau(  44) = (   0.1655750   0.9449550   0.7808340  )
        45           Si  tau(  45) = (   0.8961300   0.6333960   0.8381310  )
        46           Si  tau(  46) = (   0.1180910   0.2900680   0.8482700  )
        47           Si  tau(  47) = (   0.5804410   0.2830420   0.4353790  )
        48           Si  tau(  48) = (   0.2085930   0.4196360   0.2748200  )
        49           Si  tau(  49) = (   0.1772170   0.2613920   0.4370680  )
        50           Si  tau(  50) = (   0.7397600   0.1667370   0.7895750  )
        51           Si  tau(  51) = (   0.8839550   0.0190192   0.7105490  )
        52           Si  tau(  52) = (   0.4005400   0.7653360   0.5037520  )
        53           Si  tau(  53) = (   0.6504900   0.7791340   0.8563060  )
        54           Si  tau(  54) = (   0.1771170   0.6421780   0.6672460  )
        55           Si  tau(  55) = (   0.6583760   0.5742340   0.4013030  )
        56           Si  tau(  56) = (   0.2399220   0.7353140   0.9811450  )
        57           Si  tau(  57) = (   0.8198120   0.9095550   0.2938490  )
        58           Si  tau(  58) = (   0.5574920   0.9599000   0.5268810  )
        59           Si  tau(  59) = (   0.3740610   0.2917880   0.9494940  )
        60           Si  tau(  60) = (   0.7788050   0.7002220   0.0121721  )
        61           Si  tau(  61) = (   0.5168000   0.4612240   0.2773630  )
        62           Si  tau(  62) = (   0.3891910   0.2113500   0.5459360  )
        63           Si  tau(  63) = (   0.6003300   0.6173130   0.5913050  )
        64           Si  tau(  64) = (   0.3238200   0.0397343   0.4287330  )

     number of k points=     1
                       cart. coord. in units 2pi/alat
        k(    1) = (   0.0000000   0.0000000   0.0000000), wk =   2.0000000

     Dense  grid:    91434 G-vectors     FFT dimensions: (  72,  72,  72)

     Estimated max dynamical RAM per process >     134.62 MB

     Estimated total dynamical RAM >     516.16 MB

     Initial potential from superposition of free atoms

     starting charge     255.9608, renormalised to     256.0000
     Starting wfcs are  256 randomized atomic wfcs

     total cpu time spent up to now is        4.2 secs

     Self-consistent Calculation

     iteration #  1     ecut=    30.00 Ry     beta= 0.50
     Davidson diagonalization with overlap
     ethr =  1.00E-02,  avg # of iterations =  2.0

     Threshold (ethr) on eigenvalues was too large:
     Diagonalizing with lowered threshold

     Davidson diagonalization with overlap
     ethr =  3.49E-04,  avg # of iterations =  6.0

     total cpu time spent up to now is        4.4 secs

     total energy              =    -501.23061613 Ry
     estimated scf accuracy    <       1.10403908 Ry

     iteration #  2     ecut=    30.00 Ry     beta= 0.50
     Davidson diagonalization with overlap
     ethr =  4.31E-04,  avg # of iterations =  4.0

     total cpu time spent up to now is        4.5 secs

     total energy              =    -501.18245331 Ry
     estimated scf accuracy    <       1.16980628 Ry

     iteration #  3     ecut=    30.00 Ry     beta= 0.50
     Davidson diagonalization with overlap
     ethr =  4.31E-04,  avg # of iterations =  7.0

     total cpu time spent up to now is        4.6 secs

     total energy              =    -501.24862618 Ry
     estimated scf accuracy    <       1.41627866 Ry

     iteration #  4     ecut=    30.00 Ry     beta= 0.50
     Davidson diagonalization with overlap
     ethr =  4.31E-04,  avg # of iterations =  6.0

     total cpu time spent up to now is        4.7 secs

     total energy              =    -501.39061801 Ry
     estimated scf accuracy    <       0.25224685 Ry

     iteration #  5     ecut=    30.00 Ry     beta= 0.50
     Davidson diagonalization with overlap
     ethr =  9.85E-05,  avg # of iterations =  7.0

     total cpu time spent up to now is        4.8 secs

     total energy              =    -501.42043072 Ry
     estimated scf accuracy    <       0.06291254 Ry

     iteration #  6     ecut=    30.00 Ry     beta= 0.50
     Davidson diagonalization with overlap
     ethr =  2.46E-05,  avg # of iterations = 14.0

     total cpu time spent up to now is        4.9 secs

     total energy              =    -501.42169284 Ry
     estimated scf accuracy    <       0.13557541 Ry

     iteration #  7     ecut=    30.00 Ry     beta= 0.50
     Davidson diagonalization with overlap
     ethr =  2.46E-05,  avg # of iterations =  8.0

     total cpu time spent up to now is        5.1 secs

     total energy              =    -501.43177444 Ry
     estimated scf accuracy    <       0.00573392 Ry

     iteration #  8     ecut=    30.00 Ry     beta= 0.50
     Davidson diagonalization with overlap
     ethr =  2.24E-06,  avg # of iterations = 13.0

     total cpu time spent up to now is        5.2 secs

     total energy              =    -501.43311851 Ry
     estimated scf accuracy    <       0.01450937 Ry

     iteration #  9     ecut=    30.00 Ry     beta= 0.50
     Davidson diagonalization with overlap
     ethr =  2.24E-06,  avg # of iterations =  6.0

     total cpu time spent up to now is        5.3 secs

     total energy              =    -501.43349295 Ry
     estimated scf accuracy    <       0.00577001 Ry

     iteration # 10     ecut=    30.00 Ry     beta= 0.50
     Davidson diagonalization with overlap
     ethr =  2.24E-06,  avg # of iterations =  3.0

     total cpu time spent up to now is        5.4 secs

     total energy              =    -501.43347620 Ry
     estimated scf accuracy    <       0.00203218 Ry

     iteration # 11     ecut=    30.00 Ry     beta= 0.50
     Davidson diagonalization with overlap
     ethr =  7.94E-07,  avg # of iterations = 13.0

     total cpu time spent up to now is        5.5 secs

     total energy              =    -501.43386079 Ry
     estimated scf accuracy    <       0.00089973 Ry

     iteration # 12     ecut=    30.00 Ry     beta= 0.50
     Davidson diagonalization with overlap
     ethr =  3.51E-07,  avg # of iterations =  3.0

     total cpu time spent up to now is        5.6 secs

     total energy              =    -501.43385378 Ry
     estimated scf accuracy    <       0.00057541 Ry

     iteration # 13     ecut=    30.00 Ry     beta= 0.50
     Davidson diagonalization with overlap
     ethr =  2.25E-07,  avg # of iterations =  8.0

     total cpu time spent up to now is        5.7 secs

     total energy              =    -501.43387159 Ry
     estimated scf accuracy    <       0.00014662 Ry

     iteration # 14     ecut=    30.00 Ry     beta= 0.50
     Davidson diagonalization with overlap
     ethr =  5.73E-08,  avg # of iterations = 11.0

     total cpu time spent up to now is        5.8 secs

     total energy              =    -501.43389619 Ry
     estimated scf accuracy    <       0.00009506 Ry

     iteration # 15     ecut=    30.00 Ry     beta= 0.50
     Davidson diagonalization with overlap
     ethr =  3.71E-08,  avg # of iterations =  3.0

     total cpu time spent up to now is        5.9 secs

     total energy              =    -501.43389935 Ry
     estimated scf accuracy    <       0.00004501 Ry

     iteration # 16     ecut=    30.00 Ry     beta= 0.50
     Davidson diagonalization with overlap
     ethr =  1.76E-08,  avg # of iterations =  8.0

     total cpu time spent up to now is        6.0 secs

     total energy              =    -501.43390260 Ry
     estimated scf accuracy    <       0.00000487 Ry

     iteration # 17     ecut=    30.00 Ry     beta= 0.50
     Davidson diagonalization with overlap
     ethr =  1.90E-09,  avg # of iterations = 12.0

     total cpu time spent up to now is        6.1 secs

     total energy              =    -501.43390425 Ry
     estimated scf accuracy    <       0.00001830 Ry

     iteration # 18     ecut=    30.00 Ry     beta= 0.50
     Davidson diagonalization with overlap
     ethr =  1.90E-09,  avg # of iterations =  7.0

     total cpu time spent up to now is        6.2 secs

     total energy              =    -501.43390467 Ry
     estimated scf accuracy    <       0.00000703 Ry

     iteration # 19     ecut=    30.00 Ry     beta= 0.50
     Davidson diagonalization with overlap
     ethr =  1.90E-09,  avg # of iterations =  2.0

     total cpu time spent up to now is        6.3 secs

     total energy              =    -501.43390463 Ry
     estimated scf accuracy    <       0.00000293 Ry

     iteration # 20     ecut=    30.00 Ry     beta= 0.50
     Davidson diagonalization with overlap
     ethr =  1.15E-09,  avg # of iterations =  8.0

     total cpu time spent up to now is        6.4 secs

     End of self-consistent calculation

          k = 0.0000 0.0000 0.0000 ( 11492 PWs)   bands (ev):

    -5.3937  -4.5011  -4.3948  -4.1758  -4.1677  -4.0922  -3.9594  -3.5700
    -3.3796  -3.2339  -3.1525  -3.1172  -3.0800  -2.9694  -2.8626  -2.8022
    -2.7202  -2.6151  -2.5437  -2.2226  -2.0879  -2.0030  -1.8770  -1.8087
    -1.7083  -1.5884  -1.4104  -1.0973  -0.9677  -0.7506  -0.5791  -0.4911
    -0.3956  -0.2231  -0.1983  -0.1108  -0.0490   0.0915   0.1699   0.2271
     0.3080   0.3845   0.4273   0.5187   0.5973   0.6372   0.7699   0.7840
     0.8330   0.9872   1.0742   1.1399   1.1930   1.3603   1.4127   1.5987
     1.6561   1.8035   1.8330   1.9028   2.0925   2.1256   2.2467   2.3351
     2.3763   2.5522   2.6244   2.6861   2.7261   2.7831   2.8431   2.8856
     3.0042   3.0656   3.2053   3.2389   3.2967   3.4310   3.4805   3.6446
     3.8735   4.0240   4.1755   4.2349   4.3638   4.5229   4.5438   4.5773
     4.6853   4.7130   4.7664   4.7963   4.8649   4.9713   4.9925   5.0431
     5.1104   5.1933   5.2621   5.2974   5.4311   5.4790   5.4912   5.5079
     5.5632   5.6109   5.6668   5.7358   5.7953   5.8244   5.8965   5.9638
     5.9990   6.0694   6.1018   6.2132   6.2721   6.3064   6.4280   6.5283
     6.5569   6.5834   6.6789   6.6880   6.7809   6.8380   6.8623   6.8921

     highest occupied level (ev):     6.8921

!    total energy              =    -501.43390417 Ry
     estimated scf accuracy    <       0.00000086 Ry

     The total energy is the sum of the following terms:
     one-electron contribution =     186.95832707 Ry
     hartree contribution      =      23.38482439 Ry
     xc contribution           =    -150.41692892 Ry
     ewald contribution        =    -561.36012671 Ry

     convergence has been achieved in  20 iterations

     Forces acting on atoms (cartesian axes, Ry/au):

     atom    1 type  1   force =    -0.02781742   -0.01377169    0.01829813
     atom    2 type  1   force =     0.02131697    0.02441265    0.01761210
     atom    3 type  1   force =     0.01126878    0.01126905   -0.00002871
     atom    4 type  1   force =     0.01138895    0.01814855    0.01027427
     atom    5 type  1   force =    -0.01972095   -0.00554649   -0.00148925
     atom    6 type  1   force =     0.01135705   -0.02257901   -0.03310318
     atom    7 type  1   force =    -0.01750252   -0.01902597   -0.00040986
     atom    8 type  1   force =     0.00362317   -0.00030523    0.00373192
     atom    9 type  1   force =     0.02383155    0.06208218    0.02262244
     atom   10 type  1   force =    -0.03817859    0.02195735    0.00789982
     atom   11 type  1   force =     0.00867060    0.00984327    0.00184731
     atom   12 type  1   force =    -0.02160985    0.02753387   -0.02757348
     atom   13 type  1   force =     0.02167758    0.00760346   -0.00629290
     atom   14 type  1   force =     0.02284140   -0.04016855   -0.02397737
     atom   15 type  1   force =    -0.02515797    0.01045025    0.02309389
     atom   16 type  1   force =     0.04700099    0.01178821   -0.06227401
     atom   17 type  1   force =    -0.01677468   -0.02134590    0.01428128
     atom   18 type  1   force =    -0.00058520   -0.00061820   -0.01010183
     atom   19 type  1   force =    -0.00747966    0.03881713    0.03511586
     atom   20 type  1   force =     0.00147020   -0.03453453   -0.01834276
     atom   21 type  1   force =    -0.01740682   -0.01554327   -0.01455380
     atom   22 type  1   force =     0.01372145   -0.01724512   -0.00562633
     atom   23 type  1   force =    -0.06397845    0.04270911    0.04328316
     atom   24 type  1   force =     0.00189687    0.04434824   -0.06662431
     atom   25 type  1   force =     0.06269730    0.04822707    0.03200954
     atom   26 type  1   force =    -0.00047588    0.04265956    0.00307461
     atom   27 type  1   force =    -0.00662595    0.01807109   -0.02005785
     atom   28 type  1   force =     0.00230254   -0.02728061   -0.02429429
     atom   29 type  1   force =    -0.00377376   -0.03314064   -0.03251576
     atom   30 type  1   force =     0.00047339    0.00252224    0.00008164
     atom   31 type  1   force =     0.02352431   -0.00288979    0.04269993
     atom   32 type  1   force =    -0.01595939   -0.05394009    0.08687152
     atom   33 type  1   force =    -0.03252039    0.01030713    0.03177431
     atom   34 type  1   force =     0.01991944   -0.01362367    0.01930523
     atom   35 type  1   force =    -0.01542740    0.00254153   -0.00514910
     atom   36 type  1   force =    -0.01605634    0.01632110    0.01312437
     atom   37 type  1   force =     0.01430072    0.01816766   -0.00541319
     atom   38 type  1   force =     0.00370511    0.04956505   -0.02427162
     atom   39 type  1   force =    -0.01115534    0.00698462   -0.01222667
     atom   40 type  1   force =     0.02280489   -0.00264666    0.00537194
     atom   41 type  1   force =    -0.00199095   -0.01226613   -0.01179831
     atom   42 type  1   force =     0.00029208   -0.02652486   -0.03530767
     atom   43 type  1   force =     0.00555626    0.00311344   -0.01120083
     atom   44 type  1   force =     0.00781716   -0.00480780    0.00956015
     atom   45 type  1   force =     0.02185203    0.00643482   -0.01825261
     atom   46 type  1   force =    -0.01479705    0.04399732    0.01786125
     atom   47 type  1   force =     0.00258382   -0.00394682   -0.03285959
     atom   48 type  1   force =     0.01381444   -0.00377532   -0.01430619
     atom   49 type  1   force =    -0.00236879    0.00471805    0.00635612
     atom   50 type  1   force =    -0.03240423    0.00846459    0.03484691
     atom   51 type  1   force =    -0.03786043   -0.06388540    0.05229889
     atom   52 type  1   force =     0.01793309    0.00399044   -0.00624619
     atom   53 type  1   force =    -0.04388772   -0.00907510   -0.01392676
     atom   54 type  1   force =     0.02949968   -0.02195345   -0.06190850
     atom   55 type  1   force =     0.06585794   -0.00062291   -0.08023735
     atom   56 type  1   force =    -0.01476514   -0.01491015    0.01655680
     atom   57 type  1   force =    -0.05696658   -0.03217310   -0.02192957
     atom   58 type  1   force =     0.00224808   -0.01742927   -0.01537443
     atom   59 type  1   force =     0.02598127   -0.04839234   -0.01304950
     atom   60 type  1   force =     0.02280216   -0.03305601    0.04489321
     atom   61 type  1   force =     0.03141268   -0.05304155    0.02841394
     atom   62 type  1   force =     0.00737163    0.02968782    0.05028367
     atom   63 type  1   force =    -0.02924894    0.03201896    0.08781489
     atom   64 type  1   force =    -0.01231916   -0.00869018   -0.05053534

     Total force =     0.389925     Total SCF correction =     0.001842


     Computing stress (Cartesian axis) and pressure

          total   stress  (Ry/bohr**3)                   (kbar)     P=      -36.57
  -0.00022170  -0.00006509  -0.00000302          -32.61       -9.57       -0.44
  -0.00006509  -0.00018941   0.00007117           -9.57      -27.86       10.47
  -0.00000302   0.00007117  -0.00033468           -0.44       10.47      -49.23

 
     init_run     :      1.11s CPU      4.18s WALL (       1 calls)
     electrons    :      1.99s CPU      2.16s WALL (       1 calls)
     forces       :      0.03s CPU      0.03s WALL (       1 calls)
     stress       :      0.12s CPU      0.13s WALL (       1 calls)

     Called by init_run:
     wfcinit      :      0.60s CPU      3.52s WALL (       1 calls)
                                        3.52s GPU  (       1 calls)
     potinit      :      0.04s CPU      0.12s WALL (       1 calls)
     hinit0       :      0.45s CPU      0.48s WALL (       1 calls)

     Called by electrons:
     c_bands      :      1.39s CPU      1.47s WALL (      21 calls)
     sum_band     :      0.29s CPU      0.34s WALL (      21 calls)
     v_of_rho     :      0.14s CPU      0.23s WALL (      21 calls)
     mix_rho      :      0.15s CPU      0.17s WALL (      21 calls)

     Called by c_bands:
     init_us_2    :      0.05s CPU      0.06s WALL (      43 calls)
     init_us_2:gp :      0.05s CPU      0.06s WALL (      43 calls)
     regterg      :      1.24s CPU      1.31s WALL (      21 calls)

     Called by *egterg:
     rdiaghg      :      0.61s CPU      1.21s WALL (     171 calls)
                                        1.19s GPU  (     171 calls)
     h_psi        :      1.03s CPU      3.40s WALL (     173 calls)
                                        3.40s GPU  (     173 calls)
     g_psi        :      0.00s CPU      0.00s WALL (     151 calls)
                                        0.00s GPU  (     151 calls)

     Called by h_psi:
     h_psi:calbec :      0.59s CPU      2.88s WALL (     173 calls)
                                        2.88s GPU  (     173 calls)
     vloc_psi     :      0.35s CPU      0.43s WALL (     173 calls)
                                        0.42s GPU  (     173 calls)
     add_vuspsi   :      0.06s CPU      0.08s WALL (     173 calls)
                                        0.08s GPU  (     173 calls)

     General routines
     calbec       :      0.60s CPU      2.88s WALL (     178 calls)
     fft          :      0.56s CPU      0.68s WALL (     175 calls)
                                        0.12s GPU  (     111 calls)
     ffts         :      0.03s CPU      0.04s WALL (      21 calls)
     fftw         :      0.42s CPU      0.56s WALL (    2014 calls)
                                        0.49s GPU  (    2014 calls)
 
     Parallel routines
 
     PWSCF        :      3.29s CPU      6.57s WALL

 
   This run was terminated on:  15:19:57   9May2023            

=------------------------------------------------------------------------------=
   JOB DONE.
=------------------------------------------------------------------------------=
