An instance of this daemon is already running

     Program PWSCF v.7.1 starts on  9May2023 at 15:20:44 

     This program is part of the open-source Quantum ESPRESSO suite
     for quantum simulation of materials; please cite
         "P. Giannozzi et al., J. Phys.:Condens. Matter 21 395502 (2009);
         "P. Giannozzi et al., J. Phys.:Condens. Matter 29 465901 (2017);
         "P. Giannozzi et al., J. Chem. Phys. 152 154105 (2020);
          URL http://www.quantum-espresso.org", 
     in publications or presentations arising from this work. More details at
     http://www.quantum-espresso.org/quote

     Parallel version (MPI & OpenMP), running on       4 processor cores
     Number of MPI processes:                 4
     Threads/MPI process:                     1

     MPI processes distributed on     1 nodes
     51274 MiB available memory on the printing compute node when the environment starts
 
     Reading input from pw-si-75.in
Warning: card &CELL ignored
Warning: card / ignored

     Current dimensions of program PWSCF are:
     Max number of different atomic species (ntypx) = 10
     Max number of k-points (npk) =  40000
     Max angular momentum in pseudopotentials (lmaxx) =  4

     IMPORTANT: XC functional enforced from input :
     Exchange-correlation= PBE
                           (   1   4   3   4   0   0   0)
     Any further DFT definition will be discarded
     Please, verify this is what you really want


     gamma-point specific algorithms are used
 
     K-points division:     npool     =       2
     R & G space division:  proc/nbgrp/npool/nimage =       2
     Subspace diagonalization in iterative solution of the eigenvalue problem:
     a serial algorithm will be used

     Message from routine divide_et_impera:
     suboptimal parallelization: some nodes have no k-points
 
     Parallelization info
     --------------------
     sticks:   dense  smooth     PW     G-vecs:    dense   smooth      PW
     Min        1997    1997    524                95411    95411   12860
     Max        2004    2004    525                95412    95412   12865
     Sum        4001    4001   1049               190823   190823   25725
 
     Using Slab Decomposition
 


     bravais-lattice index     =            0
     lattice parameter (alat)  =      20.4732  a.u.
     unit-cell volume          =    8581.4245 (a.u.)^3
     number of atoms/cell      =           64
     number of atomic types    =            1
     number of electrons       =       256.00
     number of Kohn-Sham states=          128
     kinetic-energy cutoff     =      30.0000  Ry
     charge density cutoff     =     120.0000  Ry
     scf convergence threshold =      1.0E-06
     mixing beta               =       0.5000
     number of iterations used =            8  plain     mixing
     Exchange-correlation= PBE
                           (   1   4   3   4   0   0   0)

     GPU acceleration is ACTIVE.
     GPU-aware MPI enabled

     Message from routine print_cuda_info:
     High GPU oversubscription detected. Are you sure this is what you want?

     celldm(1)=  20.473235  celldm(2)=   0.000000  celldm(3)=   0.000000
     celldm(4)=   0.000000  celldm(5)=   0.000000  celldm(6)=   0.000000

     crystal axes: (cart. coord. in units of alat)
               a(1) = (   1.000000   0.000000   0.000000 )  
               a(2) = (   0.000000   1.000000   0.000000 )  
               a(3) = (   0.000000   0.000000   1.000000 )  

     reciprocal axes: (cart. coord. in units 2 pi/alat)
               b(1) = (  1.000000  0.000000  0.000000 )  
               b(2) = (  0.000000  1.000000  0.000000 )  
               b(3) = (  0.000000  0.000000  1.000000 )  


     PseudoPot. # 1 for Si read from file:
     /home/ppiaggi/pseudos/Si_ONCV_PBE_sr.upf
     MD5 check sum: 8553c464762ac42b85b1eed164b4d029
     Pseudo is Norm-conserving, Zval =  4.0
     Generated using ONCVPSP code by D. R. Hamann
     Using radial grid of 1510 points,  4 beta functions with: 
                l(1) =   0
                l(2) =   0
                l(3) =   1
                l(4) =   1

     atomic species   valence    mass     pseudopotential
        Si             4.00    28.08500     Si( 1.00)

     No symmetry found



   Cartesian axes

     site n.     atom                  positions (alat units)
         1           Si  tau(   1) = (   0.5634990   0.7680820   0.7706790  )
         2           Si  tau(   2) = (   0.9687160   0.9182460   0.6551460  )
         3           Si  tau(   3) = (   0.5813830   0.6836210   0.2089420  )
         4           Si  tau(   4) = (   0.0557284   0.6030280   0.2941750  )
         5           Si  tau(   5) = (   0.2333030   0.8278770   0.6047190  )
         6           Si  tau(   6) = (   0.8723480   0.4689340   0.3350610  )
         7           Si  tau(   7) = (   0.1841930   0.8270270   0.0516483  )
         8           Si  tau(   8) = (   0.2573880   0.3787400   0.6651840  )
         9           Si  tau(   9) = (   0.3259750   0.4745430   0.0902789  )
        10           Si  tau(  10) = (   0.6486710   0.3697780   0.0936828  )
        11           Si  tau(  11) = (   0.1757670   0.6113120   0.5014870  )
        12           Si  tau(  12) = (   0.7173840   0.9793160   0.4154180  )
        13           Si  tau(  13) = (   0.4920550   0.4755850   0.2211310  )
        14           Si  tau(  14) = (   0.8816030   0.7223360   0.6304840  )
        15           Si  tau(  15) = (   0.4597820   0.7913550   0.5261850  )
        16           Si  tau(  16) = (   0.0478482   0.5701030   0.6872310  )
        17           Si  tau(  17) = (   0.1462300   0.3832180   0.2951350  )
        18           Si  tau(  18) = (   0.6821940   0.8865440   0.9182930  )
        19           Si  tau(  19) = (   0.8508290   0.7604230   0.3854430  )
        20           Si  tau(  20) = (   0.7510140   0.7221380   0.0493476  )
        21           Si  tau(  21) = (   0.4027680   0.6915770   0.8866380  )
        22           Si  tau(  22) = (   0.9481040   0.5364320   0.0105856  )
        23           Si  tau(  23) = (   0.7494260   0.2737760   0.3274770  )
        24           Si  tau(  24) = (   0.0968554   0.2010420   0.1507600  )
        25           Si  tau(  25) = (   0.0006054   0.3848140   0.5301270  )
        26           Si  tau(  26) = (   0.0519917   0.8928070   0.4132510  )
        27           Si  tau(  27) = (   0.9646000   0.1442860   0.5877770  )
        28           Si  tau(  28) = (   0.4606630   0.3924710   0.7347700  )
        29           Si  tau(  29) = (   0.2566480   0.2774890   0.4841210  )
        30           Si  tau(  30) = (   0.9546470   0.1071240   0.9242740  )
        31           Si  tau(  31) = (   0.1675550   0.0052640   0.2360600  )
        32           Si  tau(  32) = (   0.4900390   0.5022060   0.9252820  )
        33           Si  tau(  33) = (   0.8189400   0.9900070   0.7785660  )
        34           Si  tau(  34) = (   0.1945090   0.7225220   0.8253800  )
        35           Si  tau(  35) = (   0.6511990   0.0732348   0.6107970  )
        36           Si  tau(  36) = (   0.3338330   0.2268900   0.0470867  )
        37           Si  tau(  37) = (   0.4598930   0.1942980   0.2186940  )
        38           Si  tau(  38) = (   0.4829730   0.9537330   0.6958560  )
        39           Si  tau(  39) = (   0.9144020   0.1008310   0.3751190  )
        40           Si  tau(  40) = (   0.6766130   0.6296200   0.5972870  )
        41           Si  tau(  41) = (   0.7002930   0.5737590   0.3856130  )
        42           Si  tau(  42) = (   0.5202300   0.0001455   0.9988410  )
        43           Si  tau(  43) = (   0.3657660   0.0386604   0.3410020  )
        44           Si  tau(  44) = (   0.7021430   0.2088120   0.8166620  )
        45           Si  tau(  45) = (   0.4847330   0.1523140   0.8465560  )
        46           Si  tau(  46) = (   0.9289330   0.7735920   0.1753700  )
        47           Si  tau(  47) = (   0.4090310   0.8237980   0.0924653  )
        48           Si  tau(  48) = (   0.4621000   0.3592550   0.4216240  )
        49           Si  tau(  49) = (   0.1148890   0.9397690   0.8553060  )
        50           Si  tau(  50) = (   0.9253810   0.0001327   0.1478850  )
        51           Si  tau(  51) = (   0.3923040   0.5747180   0.5258010  )
        52           Si  tau(  52) = (   0.8934060   0.4687620   0.7814640  )
        53           Si  tau(  53) = (   0.2677430   0.0724856   0.7728930  )
        54           Si  tau(  54) = (   0.1339850   0.6138720   0.1014230  )
        55           Si  tau(  55) = (   0.6818080   0.4210770   0.6661040  )
        56           Si  tau(  56) = (   0.5130530   0.8660910   0.3371450  )
        57           Si  tau(  57) = (   0.1742480   0.2495850   0.8386730  )
        58           Si  tau(  58) = (   0.6331070   0.2815410   0.5247970  )
        59           Si  tau(  59) = (   0.6307150   0.0881174   0.2149620  )
        60           Si  tau(  60) = (   0.9099930   0.3512210   0.1370990  )
        61           Si  tau(  61) = (   0.7654610   0.1740490   0.0526211  )
        62           Si  tau(  62) = (   0.6971890   0.5767750   0.9114590  )
        63           Si  tau(  63) = (   0.1982220   0.0579180   0.5433220  )
        64           Si  tau(  64) = (   0.9553190   0.2698320   0.7692280  )

     number of k points=     1
                       cart. coord. in units 2pi/alat
        k(    1) = (   0.0000000   0.0000000   0.0000000), wk =   2.0000000

     Dense  grid:    95412 G-vectors     FFT dimensions: (  72,  72,  72)

     Estimated max dynamical RAM per process >     139.54 MB

     Estimated total dynamical RAM >     534.89 MB

     Initial potential from superposition of free atoms

     starting charge     255.9608, renormalised to     256.0000
     Starting wfcs are  256 randomized atomic wfcs

     total cpu time spent up to now is        4.2 secs

     Self-consistent Calculation

     iteration #  1     ecut=    30.00 Ry     beta= 0.50
     Davidson diagonalization with overlap
     ethr =  1.00E-02,  avg # of iterations =  2.0

     Threshold (ethr) on eigenvalues was too large:
     Diagonalizing with lowered threshold

     Davidson diagonalization with overlap
     ethr =  4.34E-04,  avg # of iterations =  4.0

     total cpu time spent up to now is        4.4 secs

     total energy              =    -501.29411597 Ry
     estimated scf accuracy    <       1.33520290 Ry

     iteration #  2     ecut=    30.00 Ry     beta= 0.50
     Davidson diagonalization with overlap
     ethr =  5.22E-04,  avg # of iterations = 15.0

     total cpu time spent up to now is        4.5 secs

     total energy              =    -501.01552105 Ry
     estimated scf accuracy    <       2.97512690 Ry

     iteration #  3     ecut=    30.00 Ry     beta= 0.50
     Davidson diagonalization with overlap
     ethr =  5.22E-04,  avg # of iterations = 14.0

     total cpu time spent up to now is        4.7 secs

     total energy              =    -501.33653592 Ry
     estimated scf accuracy    <       1.99680890 Ry

     iteration #  4     ecut=    30.00 Ry     beta= 0.50
     Davidson diagonalization with overlap
     ethr =  5.22E-04,  avg # of iterations =  6.0

     total cpu time spent up to now is        4.8 secs

     total energy              =    -501.47672078 Ry
     estimated scf accuracy    <       0.31632419 Ry

     iteration #  5     ecut=    30.00 Ry     beta= 0.50
     Davidson diagonalization with overlap
     ethr =  1.24E-04,  avg # of iterations =  8.0

     total cpu time spent up to now is        4.9 secs

     total energy              =    -501.51280010 Ry
     estimated scf accuracy    <       0.18268288 Ry

     iteration #  6     ecut=    30.00 Ry     beta= 0.50
     Davidson diagonalization with overlap
     ethr =  7.14E-05,  avg # of iterations = 14.0

     total cpu time spent up to now is        5.0 secs

     total energy              =    -501.53253789 Ry
     estimated scf accuracy    <       0.12375309 Ry

     iteration #  7     ecut=    30.00 Ry     beta= 0.50
     Davidson diagonalization with overlap
     ethr =  4.83E-05,  avg # of iterations =  8.0

     total cpu time spent up to now is        5.1 secs

     total energy              =    -501.53653771 Ry
     estimated scf accuracy    <       0.03409361 Ry

     iteration #  8     ecut=    30.00 Ry     beta= 0.50
     Davidson diagonalization with overlap
     ethr =  1.33E-05,  avg # of iterations = 16.0

     total cpu time spent up to now is        5.3 secs

     total energy              =    -501.54140513 Ry
     estimated scf accuracy    <       0.00838639 Ry

     iteration #  9     ecut=    30.00 Ry     beta= 0.50
     Davidson diagonalization with overlap
     ethr =  3.28E-06,  avg # of iterations = 18.0

     total cpu time spent up to now is        5.4 secs

     total energy              =    -501.54246041 Ry
     estimated scf accuracy    <       0.01148409 Ry

     iteration # 10     ecut=    30.00 Ry     beta= 0.50
     Davidson diagonalization with overlap
     ethr =  3.28E-06,  avg # of iterations =  2.0

     total cpu time spent up to now is        5.5 secs

     total energy              =    -501.54202469 Ry
     estimated scf accuracy    <       0.00635070 Ry

     iteration # 11     ecut=    30.00 Ry     beta= 0.50
     Davidson diagonalization with overlap
     c_bands:  1 eigenvalues not converged
     ethr =  2.48E-06,  avg # of iterations = 20.0

     total cpu time spent up to now is        5.7 secs

     total energy              =    -501.54242246 Ry
     estimated scf accuracy    <       0.00168252 Ry

     iteration # 12     ecut=    30.00 Ry     beta= 0.50
     Davidson diagonalization with overlap
     ethr =  6.57E-07,  avg # of iterations = 18.0

     total cpu time spent up to now is        5.8 secs

     total energy              =    -501.54267459 Ry
     estimated scf accuracy    <       0.00182339 Ry

     iteration # 13     ecut=    30.00 Ry     beta= 0.50
     Davidson diagonalization with overlap
     ethr =  6.57E-07,  avg # of iterations =  2.0

     total cpu time spent up to now is        5.9 secs

     total energy              =    -501.54266123 Ry
     estimated scf accuracy    <       0.00081854 Ry

     iteration # 14     ecut=    30.00 Ry     beta= 0.50
     Davidson diagonalization with overlap
     c_bands:  1 eigenvalues not converged
     ethr =  3.20E-07,  avg # of iterations = 20.0

     total cpu time spent up to now is        6.1 secs

     total energy              =    -501.54275457 Ry
     estimated scf accuracy    <       0.00047990 Ry

     iteration # 15     ecut=    30.00 Ry     beta= 0.50
     Davidson diagonalization with overlap
     ethr =  1.87E-07,  avg # of iterations =  3.0

     total cpu time spent up to now is        6.1 secs

     total energy              =    -501.54276073 Ry
     estimated scf accuracy    <       0.00026295 Ry

     iteration # 16     ecut=    30.00 Ry     beta= 0.50
     Davidson diagonalization with overlap
     ethr =  1.03E-07,  avg # of iterations = 19.0

     total cpu time spent up to now is        6.3 secs

     total energy              =    -501.54279088 Ry
     estimated scf accuracy    <       0.00002672 Ry

     iteration # 17     ecut=    30.00 Ry     beta= 0.50
     Davidson diagonalization with overlap
     ethr =  1.04E-08,  avg # of iterations = 14.0

     total cpu time spent up to now is        6.4 secs

     total energy              =    -501.54279665 Ry
     estimated scf accuracy    <       0.00006141 Ry

     iteration # 18     ecut=    30.00 Ry     beta= 0.50
     Davidson diagonalization with overlap
     ethr =  1.04E-08,  avg # of iterations = 10.0

     total cpu time spent up to now is        6.5 secs

     total energy              =    -501.54279714 Ry
     estimated scf accuracy    <       0.00002532 Ry

     iteration # 19     ecut=    30.00 Ry     beta= 0.50
     Davidson diagonalization with overlap
     ethr =  9.89E-09,  avg # of iterations =  3.0

     total cpu time spent up to now is        6.6 secs

     total energy              =    -501.54279705 Ry
     estimated scf accuracy    <       0.00001303 Ry

     iteration # 20     ecut=    30.00 Ry     beta= 0.50
     Davidson diagonalization with overlap
     c_bands:  1 eigenvalues not converged
     ethr =  5.09E-09,  avg # of iterations = 20.0

     total cpu time spent up to now is        6.8 secs

     total energy              =    -501.54279923 Ry
     estimated scf accuracy    <       0.00000994 Ry

     iteration # 21     ecut=    30.00 Ry     beta= 0.50
     Davidson diagonalization with overlap
     ethr =  3.88E-09,  avg # of iterations = 18.0

     total cpu time spent up to now is        6.9 secs

     total energy              =    -501.54279961 Ry
     estimated scf accuracy    <       0.00000861 Ry

     iteration # 22     ecut=    30.00 Ry     beta= 0.50
     Davidson diagonalization with overlap
     ethr =  3.36E-09,  avg # of iterations =  1.0

     total cpu time spent up to now is        7.0 secs

     total energy              =    -501.54279949 Ry
     estimated scf accuracy    <       0.00000831 Ry

     iteration # 23     ecut=    30.00 Ry     beta= 0.50
     Davidson diagonalization with overlap
     ethr =  3.24E-09,  avg # of iterations =  2.0

     total cpu time spent up to now is        7.1 secs

     total energy              =    -501.54279918 Ry
     estimated scf accuracy    <       0.00000850 Ry

     iteration # 24     ecut=    30.00 Ry     beta= 0.50
     Davidson diagonalization with overlap
     ethr =  3.24E-09,  avg # of iterations =  3.0

     total cpu time spent up to now is        7.1 secs

     total energy              =    -501.54279915 Ry
     estimated scf accuracy    <       0.00001031 Ry

     iteration # 25     ecut=    30.00 Ry     beta= 0.50
     Davidson diagonalization with overlap
     ethr =  3.24E-09,  avg # of iterations =  2.0

     total cpu time spent up to now is        7.2 secs

     total energy              =    -501.54279833 Ry
     estimated scf accuracy    <       0.00001019 Ry

     iteration # 26     ecut=    30.00 Ry     beta= 0.50
     Davidson diagonalization with overlap
     c_bands:  1 eigenvalues not converged
     ethr =  3.24E-09,  avg # of iterations = 20.0

     total cpu time spent up to now is        7.4 secs

     total energy              =    -501.54280004 Ry
     estimated scf accuracy    <       0.00005527 Ry

     iteration # 27     ecut=    30.00 Ry     beta= 0.50
     Davidson diagonalization with overlap
     c_bands:  1 eigenvalues not converged
     ethr =  3.24E-09,  avg # of iterations = 20.0

     total cpu time spent up to now is        7.5 secs

     total energy              =    -501.54279806 Ry
     estimated scf accuracy    <       0.00004303 Ry

     iteration # 28     ecut=    30.00 Ry     beta= 0.50
     Davidson diagonalization with overlap
     ethr =  3.24E-09,  avg # of iterations =  3.0

     total cpu time spent up to now is        7.6 secs

     total energy              =    -501.54279623 Ry
     estimated scf accuracy    <       0.00003217 Ry

     iteration # 29     ecut=    30.00 Ry     beta= 0.50
     Davidson diagonalization with overlap
     c_bands:  1 eigenvalues not converged
     ethr =  3.24E-09,  avg # of iterations = 20.0

     total cpu time spent up to now is        7.7 secs

     total energy              =    -501.54279878 Ry
     estimated scf accuracy    <       0.00000135 Ry

     iteration # 30     ecut=    30.00 Ry     beta= 0.50
     Davidson diagonalization with overlap
     c_bands:  1 eigenvalues not converged
     ethr =  5.27E-10,  avg # of iterations = 20.0

     total cpu time spent up to now is        7.9 secs

     total energy              =    -501.54279919 Ry
     estimated scf accuracy    <       0.00000320 Ry

     iteration # 31     ecut=    30.00 Ry     beta= 0.50
     Davidson diagonalization with overlap
     ethr =  5.27E-10,  avg # of iterations =  2.0

     total cpu time spent up to now is        8.0 secs

     total energy              =    -501.54279903 Ry
     estimated scf accuracy    <       0.00000211 Ry

     iteration # 32     ecut=    30.00 Ry     beta= 0.50
     Davidson diagonalization with overlap
     ethr =  5.27E-10,  avg # of iterations =  3.0

     total cpu time spent up to now is        8.1 secs

     total energy              =    -501.54279907 Ry
     estimated scf accuracy    <       0.00000123 Ry

     iteration # 33     ecut=    30.00 Ry     beta= 0.50
     Davidson diagonalization with overlap
     ethr =  4.81E-10,  avg # of iterations =  1.0

     total cpu time spent up to now is        8.1 secs

     End of self-consistent calculation

          k = 0.0000 0.0000 0.0000 ( 11924 PWs)   bands (ev):

    -5.7298  -4.9188  -4.8021  -4.6784  -4.6093  -4.4239  -4.3413  -3.9936
    -3.8538  -3.7228  -3.6705  -3.6117  -3.5325  -3.4162  -3.3629  -3.2863
    -3.1919  -3.0889  -2.9227  -2.7868  -2.6414  -2.4920  -2.3428  -2.0662
    -1.9562  -1.8073  -1.6399  -1.6344  -1.4767  -1.3074  -1.2800  -1.0511
    -0.9095  -0.8390  -0.7286  -0.6658  -0.4629  -0.4172  -0.3574  -0.2498
    -0.1936  -0.1193  -0.1018   0.0205   0.1248   0.1740   0.2559   0.3456
     0.3967   0.4392   0.5780   0.6640   0.8448   0.9087   1.0078   1.1897
     1.2888   1.3922   1.4914   1.5892   1.7957   1.8505   1.9281   2.0035
     2.0596   2.1506   2.2288   2.2801   2.4236   2.4960   2.5503   2.6114
     2.6633   2.7256   2.7878   2.9225   3.0356   3.0804   3.1713   3.2153
     3.3242   3.4238   3.6062   3.6838   3.7880   3.8649   3.9151   4.0073
     4.0753   4.1336   4.1610   4.2579   4.3346   4.4091   4.4791   4.5615
     4.5858   4.6440   4.7207   4.8031   4.8203   4.8458   4.8794   5.0493
     5.1033   5.1520   5.1984   5.2257   5.3090   5.3612   5.4183   5.4808
     5.5179   5.5674   5.6435   5.6856   5.7497   5.8145   5.9238   5.9949
     6.1022   6.1436   6.1851   6.2669   6.3245   6.4040   6.4257   6.5036

     highest occupied level (ev):     6.5036

!    total energy              =    -501.54279837 Ry
     estimated scf accuracy    <       0.00000098 Ry

     The total energy is the sum of the following terms:
     one-electron contribution =     159.90620696 Ry
     hartree contribution      =      32.59589688 Ry
     xc contribution           =    -150.47568050 Ry
     ewald contribution        =    -543.56922171 Ry

     convergence has been achieved in  33 iterations

     Forces acting on atoms (cartesian axes, Ry/au):

     atom    1 type  1   force =     0.03251376   -0.01802229   -0.01194140
     atom    2 type  1   force =     0.05251734    0.00010402   -0.00268470
     atom    3 type  1   force =    -0.00086419    0.02231683    0.01983556
     atom    4 type  1   force =    -0.01492441   -0.02896856    0.08348499
     atom    5 type  1   force =     0.00557444   -0.02350751   -0.01265888
     atom    6 type  1   force =     0.07241522   -0.03039810    0.00585446
     atom    7 type  1   force =     0.01487957    0.02610768    0.00870497
     atom    8 type  1   force =    -0.01049840    0.03191650    0.04631364
     atom    9 type  1   force =    -0.02766231   -0.02798925   -0.01782238
     atom   10 type  1   force =     0.00716977    0.01927504   -0.00518874
     atom   11 type  1   force =    -0.01589728    0.01712033   -0.00671969
     atom   12 type  1   force =    -0.00301146   -0.02145954   -0.02255429
     atom   13 type  1   force =     0.03961002   -0.00313726    0.04207719
     atom   14 type  1   force =    -0.01152773   -0.03486117   -0.04306057
     atom   15 type  1   force =    -0.03118995   -0.02163099    0.04741619
     atom   16 type  1   force =     0.03613802    0.04009885   -0.02934018
     atom   17 type  1   force =     0.00314466   -0.02221044    0.02516464
     atom   18 type  1   force =     0.02169638   -0.03114189   -0.01121318
     atom   19 type  1   force =     0.00903911    0.01833202    0.01730538
     atom   20 type  1   force =     0.00062234    0.03616081    0.04753160
     atom   21 type  1   force =    -0.02051066    0.02441043    0.01529462
     atom   22 type  1   force =    -0.02262616   -0.02560236   -0.03198420
     atom   23 type  1   force =     0.02705996   -0.03587562   -0.00324606
     atom   24 type  1   force =     0.01804765    0.02769014   -0.00966193
     atom   25 type  1   force =     0.02058547   -0.01400385   -0.02633995
     atom   26 type  1   force =     0.00755679    0.01989362   -0.00127361
     atom   27 type  1   force =     0.05472161    0.00899581   -0.02439038
     atom   28 type  1   force =     0.03414841    0.00592902    0.00964577
     atom   29 type  1   force =    -0.01235176   -0.01501500   -0.07035494
     atom   30 type  1   force =    -0.00400212   -0.01878286    0.02769791
     atom   31 type  1   force =    -0.01322732   -0.04305327   -0.00310121
     atom   32 type  1   force =    -0.02225464   -0.02713823    0.01170259
     atom   33 type  1   force =    -0.05870884    0.04162211    0.03883296
     atom   34 type  1   force =     0.00432294   -0.00679771   -0.03859857
     atom   35 type  1   force =    -0.00163505   -0.00143451   -0.00071841
     atom   36 type  1   force =    -0.05602639    0.03322028   -0.02983434
     atom   37 type  1   force =    -0.05836612    0.03938233    0.05091706
     atom   38 type  1   force =    -0.03056861    0.01839022   -0.02773065
     atom   39 type  1   force =    -0.03614033   -0.00411999   -0.02007374
     atom   40 type  1   force =     0.00140255    0.02684180    0.03606324
     atom   41 type  1   force =    -0.04120521    0.05559398   -0.03043263
     atom   42 type  1   force =    -0.00854508   -0.00195225    0.03799128
     atom   43 type  1   force =    -0.03606880   -0.00802700    0.00862211
     atom   44 type  1   force =     0.02739239   -0.00888487    0.00851492
     atom   45 type  1   force =    -0.02943520    0.01138417    0.00313281
     atom   46 type  1   force =    -0.00118467    0.02474336    0.00092910
     atom   47 type  1   force =    -0.02111537    0.00101106   -0.05238068
     atom   48 type  1   force =    -0.04284673    0.01011431   -0.03357968
     atom   49 type  1   force =    -0.01973007   -0.01229737    0.01270583
     atom   50 type  1   force =     0.01299758    0.00388702    0.01803587
     atom   51 type  1   force =     0.00758037   -0.02276139   -0.00155066
     atom   52 type  1   force =    -0.05917158    0.02466068    0.06481915
     atom   53 type  1   force =     0.05091725   -0.03098865   -0.05208608
     atom   54 type  1   force =     0.03605954    0.01906688   -0.04096741
     atom   55 type  1   force =    -0.00108666    0.02997362    0.06674303
     atom   56 type  1   force =     0.03573829    0.00588236   -0.01499559
     atom   57 type  1   force =    -0.03185224    0.05058476    0.01337277
     atom   58 type  1   force =    -0.00173511   -0.05405810   -0.04140484
     atom   59 type  1   force =     0.08753949   -0.02316395   -0.01563963
     atom   60 type  1   force =    -0.00814101   -0.01240628    0.00417700
     atom   61 type  1   force =     0.00326634    0.02404349   -0.00778629
     atom   62 type  1   force =     0.00960650   -0.06609343   -0.03003351
     atom   63 type  1   force =    -0.00391249    0.02646075   -0.00424468
     atom   64 type  1   force =     0.02376018   -0.04943058    0.00270705

     Total force =     0.412514     Total SCF correction =     0.001371


     Computing stress (Cartesian axis) and pressure

          total   stress  (Ry/bohr**3)                   (kbar)     P=      -32.44
  -0.00017718   0.00001245  -0.00005285          -26.06        1.83       -7.77
   0.00001245  -0.00022845   0.00002867            1.83      -33.61        4.22
  -0.00005285   0.00002867  -0.00025594           -7.77        4.22      -37.65

 
     init_run     :      1.17s CPU      4.15s WALL (       1 calls)
     electrons    :      3.61s CPU      3.92s WALL (       1 calls)
     forces       :      0.03s CPU      0.03s WALL (       1 calls)
     stress       :      0.12s CPU      0.13s WALL (       1 calls)

     Called by init_run:
     wfcinit      :      0.64s CPU      3.49s WALL (       1 calls)
                                        3.49s GPU  (       1 calls)
     potinit      :      0.06s CPU      0.13s WALL (       1 calls)
     hinit0       :      0.45s CPU      0.48s WALL (       1 calls)

     Called by electrons:
     c_bands      :      2.59s CPU      2.77s WALL (      34 calls)
     sum_band     :      0.49s CPU      0.55s WALL (      34 calls)
     v_of_rho     :      0.22s CPU      0.31s WALL (      34 calls)
     mix_rho      :      0.28s CPU      0.31s WALL (      34 calls)

     Called by c_bands:
     init_us_2    :      0.08s CPU      0.09s WALL (      69 calls)
     init_us_2:gp :      0.08s CPU      0.09s WALL (      69 calls)
     regterg      :      2.35s CPU      2.52s WALL (      34 calls)

     Called by *egterg:
     rdiaghg      :      1.21s CPU      1.89s WALL (     384 calls)
                                        1.84s GPU  (     384 calls)
     h_psi        :      1.41s CPU      3.71s WALL (     386 calls)
                                        3.71s GPU  (     386 calls)
     g_psi        :      0.00s CPU      0.01s WALL (     351 calls)
                                        0.01s GPU  (     351 calls)

     Called by h_psi:
     h_psi:calbec :      0.68s CPU      2.88s WALL (     386 calls)
                                        2.88s GPU  (     386 calls)
     vloc_psi     :      0.54s CPU      0.63s WALL (     386 calls)
                                        0.62s GPU  (     386 calls)
     add_vuspsi   :      0.15s CPU      0.19s WALL (     386 calls)
                                        0.18s GPU  (     386 calls)

     General routines
     calbec       :      0.68s CPU      2.88s WALL (     391 calls)
     fft          :      0.62s CPU      0.74s WALL (     279 calls)
                                        0.12s GPU  (     176 calls)
     ffts         :      0.06s CPU      0.07s WALL (      34 calls)
     fftw         :      0.64s CPU      0.85s WALL (    3416 calls)
                                        0.74s GPU  (    3416 calls)
 
     Parallel routines
 
     PWSCF        :      4.97s CPU      8.31s WALL

 
   This run was terminated on:  15:20:53   9May2023            

=------------------------------------------------------------------------------=
   JOB DONE.
=------------------------------------------------------------------------------=
