An instance of this daemon is already running

     Program PWSCF v.7.1 starts on  9May2023 at 15:24: 7 

     This program is part of the open-source Quantum ESPRESSO suite
     for quantum simulation of materials; please cite
         "P. Giannozzi et al., J. Phys.:Condens. Matter 21 395502 (2009);
         "P. Giannozzi et al., J. Phys.:Condens. Matter 29 465901 (2017);
         "P. Giannozzi et al., J. Chem. Phys. 152 154105 (2020);
          URL http://www.quantum-espresso.org", 
     in publications or presentations arising from this work. More details at
     http://www.quantum-espresso.org/quote

     Parallel version (MPI & OpenMP), running on       4 processor cores
     Number of MPI processes:                 4
     Threads/MPI process:                     1

     MPI processes distributed on     1 nodes
     46652 MiB available memory on the printing compute node when the environment starts
 
     Reading input from pw-si-92.in
Warning: card &CELL ignored
Warning: card / ignored

     Current dimensions of program PWSCF are:
     Max number of different atomic species (ntypx) = 10
     Max number of k-points (npk) =  40000
     Max angular momentum in pseudopotentials (lmaxx) =  4

     IMPORTANT: XC functional enforced from input :
     Exchange-correlation= PBE
                           (   1   4   3   4   0   0   0)
     Any further DFT definition will be discarded
     Please, verify this is what you really want


     gamma-point specific algorithms are used
 
     K-points division:     npool     =       2
     R & G space division:  proc/nbgrp/npool/nimage =       2
     Subspace diagonalization in iterative solution of the eigenvalue problem:
     a serial algorithm will be used

     Message from routine divide_et_impera:
     suboptimal parallelization: some nodes have no k-points
 
     Parallelization info
     --------------------
     sticks:   dense  smooth     PW     G-vecs:    dense   smooth      PW
     Min        1933    1933    515                90543    90543   12286
     Max        1936    1936    518                90548    90548   12287
     Sum        3869    3869   1033               181091   181091   24573
 
     Using Slab Decomposition
 


     bravais-lattice index     =            0
     lattice parameter (alat)  =      20.1324  a.u.
     unit-cell volume          =    8159.8986 (a.u.)^3
     number of atoms/cell      =           64
     number of atomic types    =            1
     number of electrons       =       256.00
     number of Kohn-Sham states=          128
     kinetic-energy cutoff     =      30.0000  Ry
     charge density cutoff     =     120.0000  Ry
     scf convergence threshold =      1.0E-06
     mixing beta               =       0.5000
     number of iterations used =            8  plain     mixing
     Exchange-correlation= PBE
                           (   1   4   3   4   0   0   0)

     GPU acceleration is ACTIVE.
     GPU-aware MPI enabled

     Message from routine print_cuda_info:
     High GPU oversubscription detected. Are you sure this is what you want?

     celldm(1)=  20.132371  celldm(2)=   0.000000  celldm(3)=   0.000000
     celldm(4)=   0.000000  celldm(5)=   0.000000  celldm(6)=   0.000000

     crystal axes: (cart. coord. in units of alat)
               a(1) = (   1.000000   0.000000   0.000000 )  
               a(2) = (   0.000000   1.000000   0.000000 )  
               a(3) = (   0.000000   0.000000   1.000000 )  

     reciprocal axes: (cart. coord. in units 2 pi/alat)
               b(1) = (  1.000000  0.000000  0.000000 )  
               b(2) = (  0.000000  1.000000  0.000000 )  
               b(3) = (  0.000000  0.000000  1.000000 )  


     PseudoPot. # 1 for Si read from file:
     /home/ppiaggi/pseudos/Si_ONCV_PBE_sr.upf
     MD5 check sum: 8553c464762ac42b85b1eed164b4d029
     Pseudo is Norm-conserving, Zval =  4.0
     Generated using ONCVPSP code by D. R. Hamann
     Using radial grid of 1510 points,  4 beta functions with: 
                l(1) =   0
                l(2) =   0
                l(3) =   1
                l(4) =   1

     atomic species   valence    mass     pseudopotential
        Si             4.00    28.08500     Si( 1.00)

     No symmetry found



   Cartesian axes

     site n.     atom                  positions (alat units)
         1           Si  tau(   1) = (   0.7250750   0.2670670   0.5110460  )
         2           Si  tau(   2) = (   0.4874800   0.6655160   0.9730660  )
         3           Si  tau(   3) = (   0.2560210   0.9253990   0.5693380  )
         4           Si  tau(   4) = (   0.6573320   0.4711890   0.7516990  )
         5           Si  tau(   5) = (   0.0991069   0.5712980   0.5051230  )
         6           Si  tau(   6) = (   0.9597670   0.7093170   0.6072450  )
         7           Si  tau(   7) = (   0.3233210   0.1600420   0.4216820  )
         8           Si  tau(   8) = (   0.7581070   0.5991100   0.5720420  )
         9           Si  tau(   9) = (   0.0345714   0.9246900   0.5478880  )
        10           Si  tau(  10) = (   0.0460156   0.1020450   0.7044790  )
        11           Si  tau(  11) = (   0.6663080   0.6958470   0.8226960  )
        12           Si  tau(  12) = (   0.0172723   0.7317440   0.0970401  )
        13           Si  tau(  13) = (   0.4968400   0.8340090   0.7479540  )
        14           Si  tau(  14) = (   0.2991050   0.9666100   0.8450310  )
        15           Si  tau(  15) = (   0.2614300   0.4466600   0.7401140  )
        16           Si  tau(  16) = (   0.6363500   0.0480740   0.7866030  )
        17           Si  tau(  17) = (   0.2842760   0.7276890   0.6735030  )
        18           Si  tau(  18) = (   0.3756460   0.1684290   0.0405049  )
        19           Si  tau(  19) = (   0.8520370   0.1689510   0.7882110  )
        20           Si  tau(  20) = (   0.4496340   0.9886170   0.4429480  )
        21           Si  tau(  21) = (   0.2588180   0.4673190   0.0593549  )
        22           Si  tau(  22) = (   0.8775440   0.4019500   0.0273023  )
        23           Si  tau(  23) = (   0.1504810   0.1512620   0.2883200  )
        24           Si  tau(  24) = (   0.7766630   0.3273710   0.2588680  )
        25           Si  tau(  25) = (   0.8219490   0.8734660   0.7360090  )
        26           Si  tau(  26) = (   0.5608290   0.5058190   0.1536770  )
        27           Si  tau(  27) = (   0.4004110   0.3479640   0.2119370  )
        28           Si  tau(  28) = (   0.7055940   0.8745160   0.0025669  )
        29           Si  tau(  29) = (   0.8551230   0.7173000   0.3600170  )
        30           Si  tau(  30) = (   0.0546662   0.9509460   0.3072950  )
        31           Si  tau(  31) = (   0.0118455   0.4381990   0.8268410  )
        32           Si  tau(  32) = (   0.6215860   0.4652080   0.4054260  )
        33           Si  tau(  33) = (   0.8498940   0.6324310   0.9621740  )
        34           Si  tau(  34) = (   0.8634100   0.1027120   0.4879840  )
        35           Si  tau(  35) = (   0.5214500   0.7616190   0.2372020  )
        36           Si  tau(  36) = (   0.2516630   0.6511730   0.9625900  )
        37           Si  tau(  37) = (   0.5143080   0.0277411   0.2119790  )
        38           Si  tau(  38) = (   0.4932360   0.3216850   0.6742070  )
        39           Si  tau(  39) = (   0.7379000   0.1211640   0.1567330  )
        40           Si  tau(  40) = (   0.2942020   0.7935610   0.3450890  )
        41           Si  tau(  41) = (   0.7369610   0.6756640   0.1626130  )
        42           Si  tau(  42) = (   0.5665480   0.7382480   0.4980700  )
        43           Si  tau(  43) = (   0.4154120   0.3962140   0.4395450  )
        44           Si  tau(  44) = (   0.8104890   0.9580920   0.3164240  )
        45           Si  tau(  45) = (   0.6243150   0.1924730   0.9705660  )
        46           Si  tau(  46) = (   0.2243430   0.2202690   0.6183750  )
        47           Si  tau(  47) = (   0.9868280   0.3067340   0.3274730  )
        48           Si  tau(  48) = (   0.0777962   0.6791040   0.8104110  )
        49           Si  tau(  49) = (   0.7096980   0.8953650   0.5356160  )
        50           Si  tau(  50) = (   0.1674020   0.2808750   0.9118060  )
        51           Si  tau(  51) = (   0.3772610   0.1729070   0.8043790  )
        52           Si  tau(  52) = (   0.5805340   0.0953312   0.5645610  )
        53           Si  tau(  53) = (   0.9311860   0.9403620   0.0523228  )
        54           Si  tau(  54) = (   0.6720040   0.4070910   0.9718450  )
        55           Si  tau(  55) = (   0.0822951   0.6881350   0.3123010  )
        56           Si  tau(  56) = (   0.4466780   0.8936890   0.0354194  )
        57           Si  tau(  57) = (   0.9473400   0.1750560   0.9944760  )
        58           Si  tau(  58) = (   0.0473611   0.3598060   0.5289560  )
        59           Si  tau(  59) = (   0.0504876   0.4915430   0.1572320  )
        60           Si  tau(  60) = (   0.2423610   0.8481200   0.1151560  )
        61           Si  tau(  61) = (   0.3051970   0.5882250   0.4763010  )
        62           Si  tau(  62) = (   0.1840010   0.0747620   0.0784793  )
        63           Si  tau(  63) = (   0.8732030   0.3655750   0.6602740  )
        64           Si  tau(  64) = (   0.0652580   0.9095640   0.8515090  )

     number of k points=     1
                       cart. coord. in units 2pi/alat
        k(    1) = (   0.0000000   0.0000000   0.0000000), wk =   2.0000000

     Dense  grid:    90546 G-vectors     FFT dimensions: (  72,  72,  72)

     Estimated max dynamical RAM per process >     133.38 MB

     Estimated total dynamical RAM >     511.42 MB

     Initial potential from superposition of free atoms

     starting charge     255.9608, renormalised to     256.0000
     Starting wfcs are  256 randomized atomic wfcs

     total cpu time spent up to now is        4.3 secs

     Self-consistent Calculation

     iteration #  1     ecut=    30.00 Ry     beta= 0.50
     Davidson diagonalization with overlap
     ethr =  1.00E-02,  avg # of iterations =  2.0

     Threshold (ethr) on eigenvalues was too large:
     Diagonalizing with lowered threshold

     Davidson diagonalization with overlap
     ethr =  3.72E-04,  avg # of iterations =  6.0

     total cpu time spent up to now is        4.5 secs

     total energy              =    -501.28728257 Ry
     estimated scf accuracy    <       1.21291896 Ry

     iteration #  2     ecut=    30.00 Ry     beta= 0.50
     Davidson diagonalization with overlap
     ethr =  4.74E-04,  avg # of iterations =  9.0

     total cpu time spent up to now is        4.6 secs

     total energy              =    -500.88273788 Ry
     estimated scf accuracy    <       4.79798456 Ry

     iteration #  3     ecut=    30.00 Ry     beta= 0.50
     Davidson diagonalization with overlap
     ethr =  4.74E-04,  avg # of iterations =  9.0

     total cpu time spent up to now is        4.7 secs

     total energy              =    -501.38809790 Ry
     estimated scf accuracy    <       1.44577349 Ry

     iteration #  4     ecut=    30.00 Ry     beta= 0.50
     Davidson diagonalization with overlap
     ethr =  4.74E-04,  avg # of iterations =  6.0

     total cpu time spent up to now is        4.8 secs

     total energy              =    -501.49929623 Ry
     estimated scf accuracy    <       0.27895793 Ry

     iteration #  5     ecut=    30.00 Ry     beta= 0.50
     Davidson diagonalization with overlap
     ethr =  1.09E-04,  avg # of iterations =  8.0

     total cpu time spent up to now is        4.9 secs

     total energy              =    -501.53321263 Ry
     estimated scf accuracy    <       0.10425819 Ry

     iteration #  6     ecut=    30.00 Ry     beta= 0.50
     Davidson diagonalization with overlap
     ethr =  4.07E-05,  avg # of iterations = 14.0

     total cpu time spent up to now is        5.1 secs

     total energy              =    -501.53999393 Ry
     estimated scf accuracy    <       0.15902015 Ry

     iteration #  7     ecut=    30.00 Ry     beta= 0.50
     Davidson diagonalization with overlap
     ethr =  4.07E-05,  avg # of iterations =  3.0

     total cpu time spent up to now is        5.1 secs

     total energy              =    -501.54365138 Ry
     estimated scf accuracy    <       0.03694307 Ry

     iteration #  8     ecut=    30.00 Ry     beta= 0.50
     Davidson diagonalization with overlap
     ethr =  1.44E-05,  avg # of iterations = 16.0

     total cpu time spent up to now is        5.3 secs

     total energy              =    -501.55090485 Ry
     estimated scf accuracy    <       0.02066872 Ry

     iteration #  9     ecut=    30.00 Ry     beta= 0.50
     Davidson diagonalization with overlap
     ethr =  8.07E-06,  avg # of iterations =  3.0

     total cpu time spent up to now is        5.4 secs

     total energy              =    -501.55049053 Ry
     estimated scf accuracy    <       0.01404282 Ry

     iteration # 10     ecut=    30.00 Ry     beta= 0.50
     Davidson diagonalization with overlap
     ethr =  5.49E-06,  avg # of iterations = 18.0

     total cpu time spent up to now is        5.5 secs

     total energy              =    -501.55103827 Ry
     estimated scf accuracy    <       0.00307502 Ry

     iteration # 11     ecut=    30.00 Ry     beta= 0.50
     Davidson diagonalization with overlap
     ethr =  1.20E-06,  avg # of iterations =  8.0

     total cpu time spent up to now is        5.6 secs

     total energy              =    -501.55145806 Ry
     estimated scf accuracy    <       0.00117182 Ry

     iteration # 12     ecut=    30.00 Ry     beta= 0.50
     Davidson diagonalization with overlap
     ethr =  4.58E-07,  avg # of iterations = 12.0

     total cpu time spent up to now is        5.7 secs

     total energy              =    -501.55151750 Ry
     estimated scf accuracy    <       0.00081144 Ry

     iteration # 13     ecut=    30.00 Ry     beta= 0.50
     Davidson diagonalization with overlap
     ethr =  3.17E-07,  avg # of iterations =  3.0

     total cpu time spent up to now is        5.8 secs

     total energy              =    -501.55151922 Ry
     estimated scf accuracy    <       0.00035877 Ry

     iteration # 14     ecut=    30.00 Ry     beta= 0.50
     Davidson diagonalization with overlap
     ethr =  1.40E-07,  avg # of iterations = 10.0

     total cpu time spent up to now is        5.9 secs

     total energy              =    -501.55155586 Ry
     estimated scf accuracy    <       0.00009575 Ry

     iteration # 15     ecut=    30.00 Ry     beta= 0.50
     Davidson diagonalization with overlap
     ethr =  3.74E-08,  avg # of iterations = 17.0

     total cpu time spent up to now is        6.1 secs

     total energy              =    -501.55155938 Ry
     estimated scf accuracy    <       0.00010370 Ry

     iteration # 16     ecut=    30.00 Ry     beta= 0.50
     Davidson diagonalization with overlap
     ethr =  3.74E-08,  avg # of iterations =  3.0

     total cpu time spent up to now is        6.2 secs

     total energy              =    -501.55156622 Ry
     estimated scf accuracy    <       0.00001856 Ry

     iteration # 17     ecut=    30.00 Ry     beta= 0.50
     Davidson diagonalization with overlap
     ethr =  7.25E-09,  avg # of iterations = 10.0

     total cpu time spent up to now is        6.3 secs

     total energy              =    -501.55156818 Ry
     estimated scf accuracy    <       0.00002262 Ry

     iteration # 18     ecut=    30.00 Ry     beta= 0.50
     Davidson diagonalization with overlap
     ethr =  7.25E-09,  avg # of iterations =  3.0

     total cpu time spent up to now is        6.4 secs

     total energy              =    -501.55156919 Ry
     estimated scf accuracy    <       0.00000579 Ry

     iteration # 19     ecut=    30.00 Ry     beta= 0.50
     Davidson diagonalization with overlap
     ethr =  2.26E-09,  avg # of iterations = 19.0

     total cpu time spent up to now is        6.6 secs

     total energy              =    -501.55156986 Ry
     estimated scf accuracy    <       0.00000186 Ry

     iteration # 20     ecut=    30.00 Ry     beta= 0.50
     Davidson diagonalization with overlap
     c_bands:  1 eigenvalues not converged
     ethr =  7.27E-10,  avg # of iterations = 20.0

     total cpu time spent up to now is        6.7 secs

     total energy              =    -501.55156990 Ry
     estimated scf accuracy    <       0.00000473 Ry

     iteration # 21     ecut=    30.00 Ry     beta= 0.50
     Davidson diagonalization with overlap
     ethr =  7.27E-10,  avg # of iterations = 16.0

     total cpu time spent up to now is        6.9 secs

     End of self-consistent calculation

          k = 0.0000 0.0000 0.0000 ( 11372 PWs)   bands (ev):

    -5.3670  -4.4372  -4.3235  -4.2965  -4.1735  -3.9114  -3.8983  -3.4369
    -3.3552  -3.2422  -3.1656  -3.0626  -3.0048  -2.8607  -2.8308  -2.7972
    -2.6513  -2.5524  -2.4428  -2.2488  -1.9938  -1.9819  -1.8179  -1.7335
    -1.6722  -1.3977  -1.0912  -0.9499  -0.8467  -0.6588  -0.5339  -0.4848
    -0.4135  -0.2050  -0.1379  -0.0653   0.0326   0.1323   0.2118   0.3205
     0.3697   0.3980   0.5096   0.6337   0.7031   0.8145   0.8480   0.9368
     1.0100   1.0879   1.2470   1.2715   1.3787   1.3835   1.4779   1.5862
     1.6378   1.7840   1.9292   1.9876   2.1167   2.2590   2.2723   2.5028
     2.5488   2.6259   2.6319   2.7384   2.7622   2.8279   2.8993   2.9861
     3.0888   3.1851   3.1891   3.2902   3.4304   3.5509   3.7507   3.7827
     3.8990   4.0157   4.1420   4.3325   4.3647   4.4224   4.5225   4.6170
     4.6792   4.7338   4.8776   4.9274   5.0196   5.0433   5.1236   5.2051
     5.2663   5.3197   5.3520   5.3791   5.4294   5.5178   5.5403   5.6241
     5.6324   5.7300   5.8029   5.8669   5.9199   5.9741   6.0653   6.1384
     6.1535   6.2358   6.3140   6.3332   6.3825   6.4154   6.4977   6.5074
     6.6665   6.7310   6.7510   6.8219   6.8410   6.9582   7.0038   7.1189

     highest occupied level (ev):     7.1189

!    total energy              =    -501.55156938 Ry
     estimated scf accuracy    <       0.00000095 Ry

     The total energy is the sum of the following terms:
     one-electron contribution =     183.96097173 Ry
     hartree contribution      =      25.98448116 Ry
     xc contribution           =    -150.92113270 Ry
     ewald contribution        =    -560.57588956 Ry

     convergence has been achieved in  21 iterations

     Forces acting on atoms (cartesian axes, Ry/au):

     atom    1 type  1   force =    -0.02416252    0.02861628   -0.01382012
     atom    2 type  1   force =    -0.00786668    0.01939544    0.02035123
     atom    3 type  1   force =     0.01290620   -0.01757957   -0.01858078
     atom    4 type  1   force =     0.01317164   -0.00937013    0.00593804
     atom    5 type  1   force =    -0.02270042   -0.03346860    0.00669686
     atom    6 type  1   force =    -0.01216922    0.01633374    0.01065568
     atom    7 type  1   force =    -0.02006854    0.06525878    0.01338606
     atom    8 type  1   force =    -0.02787228    0.00108464   -0.01750197
     atom    9 type  1   force =    -0.01642743    0.01575701   -0.02037492
     atom   10 type  1   force =     0.00553086   -0.02562874   -0.01114995
     atom   11 type  1   force =     0.00512582    0.00633327    0.01053485
     atom   12 type  1   force =     0.03431865   -0.00166630    0.00614745
     atom   13 type  1   force =    -0.01485826   -0.01491212   -0.01196188
     atom   14 type  1   force =     0.01126761   -0.02410223    0.00807036
     atom   15 type  1   force =    -0.01481818   -0.03771801   -0.00007710
     atom   16 type  1   force =     0.02827470   -0.00918371   -0.00515969
     atom   17 type  1   force =     0.01127886   -0.01360978   -0.01354869
     atom   18 type  1   force =     0.06219990    0.02170224    0.02840356
     atom   19 type  1   force =    -0.00484729    0.00332996   -0.01589208
     atom   20 type  1   force =    -0.03528790   -0.05735367   -0.05179910
     atom   21 type  1   force =    -0.03498590   -0.09607303    0.04149753
     atom   22 type  1   force =     0.04743443   -0.00247025    0.00562673
     atom   23 type  1   force =    -0.02422712    0.01468552   -0.02686428
     atom   24 type  1   force =    -0.01932195   -0.02106506    0.01092097
     atom   25 type  1   force =    -0.02257363    0.01244511    0.00070286
     atom   26 type  1   force =     0.01033584    0.04207663   -0.01114730
     atom   27 type  1   force =    -0.01199068    0.01118575   -0.03318621
     atom   28 type  1   force =     0.01352074   -0.02471393   -0.00948734
     atom   29 type  1   force =    -0.00581727    0.03073505   -0.00692902
     atom   30 type  1   force =    -0.01304387   -0.02179731    0.02022227
     atom   31 type  1   force =     0.01226575    0.02541606    0.01297196
     atom   32 type  1   force =     0.05053435   -0.01212948   -0.01518578
     atom   33 type  1   force =    -0.00409844   -0.01672076    0.01070033
     atom   34 type  1   force =     0.04510019   -0.05407383   -0.01235963
     atom   35 type  1   force =     0.00236788   -0.00151979   -0.00010739
     atom   36 type  1   force =    -0.01215519    0.06213080   -0.03241668
     atom   37 type  1   force =     0.01205556    0.00311947   -0.00006214
     atom   38 type  1   force =    -0.01069108    0.01287826   -0.01146064
     atom   39 type  1   force =    -0.01328143   -0.01368317    0.02822451
     atom   40 type  1   force =    -0.00902850   -0.01358683   -0.00703951
     atom   41 type  1   force =    -0.02094925    0.00280310    0.00531124
     atom   42 type  1   force =    -0.00173707   -0.00706565    0.00351985
     atom   43 type  1   force =    -0.01734675   -0.04273370    0.01539273
     atom   44 type  1   force =     0.02625705   -0.00249266    0.00820791
     atom   45 type  1   force =    -0.02744636   -0.03196124   -0.00981164
     atom   46 type  1   force =    -0.02785701    0.01702396    0.00981800
     atom   47 type  1   force =     0.02793205    0.00152948   -0.02620533
     atom   48 type  1   force =     0.02498569   -0.00703203   -0.00013074
     atom   49 type  1   force =     0.02783675    0.04680533    0.00064153
     atom   50 type  1   force =     0.01051731    0.03289449   -0.01159340
     atom   51 type  1   force =    -0.02314866    0.03911173   -0.00693769
     atom   52 type  1   force =     0.06044541    0.04950556    0.06547259
     atom   53 type  1   force =    -0.00348455    0.00755327   -0.01658904
     atom   54 type  1   force =    -0.02584235    0.00672600   -0.02554304
     atom   55 type  1   force =    -0.00380962    0.01966910   -0.03177813
     atom   56 type  1   force =     0.01984793   -0.00782899   -0.02006473
     atom   57 type  1   force =     0.03071440    0.01927920    0.00015691
     atom   58 type  1   force =     0.02365348   -0.01753437    0.01024867
     atom   59 type  1   force =     0.00140222   -0.00225359    0.02230199
     atom   60 type  1   force =    -0.04396474   -0.01873511    0.03109975
     atom   61 type  1   force =     0.03363456    0.03077298    0.01968855
     atom   62 type  1   force =    -0.04294191   -0.00937959    0.00847276
     atom   63 type  1   force =    -0.03887904   -0.00654636    0.04468268
     atom   64 type  1   force =    -0.00521476    0.00983137    0.00869953

     Total force =     0.340930     Total SCF correction =     0.001909


     Computing stress (Cartesian axis) and pressure

          total   stress  (Ry/bohr**3)                   (kbar)     P=      -32.75
  -0.00021872   0.00000474   0.00000026          -32.17        0.70        0.04
   0.00000474  -0.00024842  -0.00003389            0.70      -36.54       -4.98
   0.00000026  -0.00003389  -0.00020079            0.04       -4.98      -29.54

 
     init_run     :      0.96s CPU      4.22s WALL (       1 calls)
     electrons    :      2.41s CPU      2.58s WALL (       1 calls)
     forces       :      0.03s CPU      0.03s WALL (       1 calls)
     stress       :      0.12s CPU      0.13s WALL (       1 calls)

     Called by init_run:
     wfcinit      :      0.45s CPU      3.56s WALL (       1 calls)
                                        3.56s GPU  (       1 calls)
     potinit      :      0.04s CPU      0.13s WALL (       1 calls)
     hinit0       :      0.45s CPU      0.47s WALL (       1 calls)

     Called by electrons:
     c_bands      :      1.77s CPU      1.87s WALL (      22 calls)
     sum_band     :      0.31s CPU      0.36s WALL (      22 calls)
     v_of_rho     :      0.14s CPU      0.23s WALL (      22 calls)
     mix_rho      :      0.16s CPU      0.17s WALL (      22 calls)

     Called by c_bands:
     init_us_2    :      0.05s CPU      0.06s WALL (      45 calls)
     init_us_2:gp :      0.05s CPU      0.06s WALL (      45 calls)
     regterg      :      1.61s CPU      1.70s WALL (      22 calls)

     Called by *egterg:
     rdiaghg      :      0.86s CPU      1.54s WALL (     236 calls)
                                        1.50s GPU  (     236 calls)
     h_psi        :      0.95s CPU      3.46s WALL (     238 calls)
                                        3.45s GPU  (     238 calls)
     g_psi        :      0.00s CPU      0.01s WALL (     215 calls)
                                        0.00s GPU  (     215 calls)

     Called by h_psi:
     h_psi:calbec :      0.44s CPU      2.87s WALL (     238 calls)
                                        2.87s GPU  (     238 calls)
     vloc_psi     :      0.39s CPU      0.46s WALL (     238 calls)
                                        0.45s GPU  (     238 calls)
     add_vuspsi   :      0.09s CPU      0.12s WALL (     238 calls)
                                        0.11s GPU  (     238 calls)

     General routines
     calbec       :      0.45s CPU      2.87s WALL (     243 calls)
     fft          :      0.56s CPU      0.67s WALL (     183 calls)
                                        0.12s GPU  (     116 calls)
     ffts         :      0.04s CPU      0.04s WALL (      22 calls)
     fftw         :      0.45s CPU      0.59s WALL (    2222 calls)
                                        0.52s GPU  (    2222 calls)
 
     Parallel routines
 
     PWSCF        :      3.56s CPU      7.03s WALL

 
   This run was terminated on:  15:24:14   9May2023            

=------------------------------------------------------------------------------=
   JOB DONE.
=------------------------------------------------------------------------------=
