An instance of this daemon is already running

     Program PWSCF v.7.1 starts on  9May2023 at 15: 5: 3 

     This program is part of the open-source Quantum ESPRESSO suite
     for quantum simulation of materials; please cite
         "P. Giannozzi et al., J. Phys.:Condens. Matter 21 395502 (2009);
         "P. Giannozzi et al., J. Phys.:Condens. Matter 29 465901 (2017);
         "P. Giannozzi et al., J. Chem. Phys. 152 154105 (2020);
          URL http://www.quantum-espresso.org", 
     in publications or presentations arising from this work. More details at
     http://www.quantum-espresso.org/quote

     Parallel version (MPI & OpenMP), running on       4 processor cores
     Number of MPI processes:                 4
     Threads/MPI process:                     1

     MPI processes distributed on     1 nodes
     79034 MiB available memory on the printing compute node when the environment starts
 
     Reading input from pw-si-4.in
Warning: card &CELL ignored
Warning: card / ignored

     Current dimensions of program PWSCF are:
     Max number of different atomic species (ntypx) = 10
     Max number of k-points (npk) =  40000
     Max angular momentum in pseudopotentials (lmaxx) =  4

     IMPORTANT: XC functional enforced from input :
     Exchange-correlation= PBE
                           (   1   4   3   4   0   0   0)
     Any further DFT definition will be discarded
     Please, verify this is what you really want


     gamma-point specific algorithms are used
 
     K-points division:     npool     =       2
     R & G space division:  proc/nbgrp/npool/nimage =       2
     Subspace diagonalization in iterative solution of the eigenvalue problem:
     a serial algorithm will be used

     Message from routine divide_et_impera:
     suboptimal parallelization: some nodes have no k-points
 
     Parallelization info
     --------------------
     sticks:   dense  smooth     PW     G-vecs:    dense   smooth      PW
     Min        1930    1930    504                90041    90041   12201
     Max        1931    1931    505                90042    90042   12204
     Sum        3861    3861   1009               180083   180083   24405
 
     Using Slab Decomposition
 


     bravais-lattice index     =            0
     lattice parameter (alat)  =      20.0894  a.u.
     unit-cell volume          =    8107.7299 (a.u.)^3
     number of atoms/cell      =           64
     number of atomic types    =            1
     number of electrons       =       256.00
     number of Kohn-Sham states=          128
     kinetic-energy cutoff     =      30.0000  Ry
     charge density cutoff     =     120.0000  Ry
     scf convergence threshold =      1.0E-06
     mixing beta               =       0.5000
     number of iterations used =            8  plain     mixing
     Exchange-correlation= PBE
                           (   1   4   3   4   0   0   0)

     GPU acceleration is ACTIVE.
     GPU-aware MPI enabled

     Message from routine print_cuda_info:
     High GPU oversubscription detected. Are you sure this is what you want?

     celldm(1)=  20.089375  celldm(2)=   0.000000  celldm(3)=   0.000000
     celldm(4)=   0.000000  celldm(5)=   0.000000  celldm(6)=   0.000000

     crystal axes: (cart. coord. in units of alat)
               a(1) = (   1.000000   0.000000   0.000000 )  
               a(2) = (   0.000000   1.000000   0.000000 )  
               a(3) = (   0.000000   0.000000   1.000000 )  

     reciprocal axes: (cart. coord. in units 2 pi/alat)
               b(1) = (  1.000000  0.000000  0.000000 )  
               b(2) = (  0.000000  1.000000  0.000000 )  
               b(3) = (  0.000000  0.000000  1.000000 )  


     PseudoPot. # 1 for Si read from file:
     /home/ppiaggi/pseudos/Si_ONCV_PBE_sr.upf
     MD5 check sum: 8553c464762ac42b85b1eed164b4d029
     Pseudo is Norm-conserving, Zval =  4.0
     Generated using ONCVPSP code by D. R. Hamann
     Using radial grid of 1510 points,  4 beta functions with: 
                l(1) =   0
                l(2) =   0
                l(3) =   1
                l(4) =   1

     atomic species   valence    mass     pseudopotential
        Si             4.00    28.08500     Si( 1.00)

     No symmetry found



   Cartesian axes

     site n.     atom                  positions (alat units)
         1           Si  tau(   1) = (   0.9397770   0.4394400   0.9952210  )
         2           Si  tau(   2) = (   0.7756560   0.0692532   0.2087710  )
         3           Si  tau(   3) = (   0.5212650   0.4864130   0.4453360  )
         4           Si  tau(   4) = (   0.3730570   0.7264730   0.2718500  )
         5           Si  tau(   5) = (   0.8266860   0.7529060   0.1072620  )
         6           Si  tau(   6) = (   0.6575220   0.2502420   0.9398510  )
         7           Si  tau(   7) = (   0.5704620   0.7203290   0.7389080  )
         8           Si  tau(   8) = (   0.0437196   0.1243560   0.9465920  )
         9           Si  tau(   9) = (   0.7847420   0.6927460   0.6803800  )
        10           Si  tau(  10) = (   0.4325950   0.1532550   0.9588860  )
        11           Si  tau(  11) = (   0.2501630   0.4936930   0.3987960  )
        12           Si  tau(  12) = (   0.1335150   0.2130360   0.1330970  )
        13           Si  tau(  13) = (   0.2926220   0.1258500   0.7828650  )
        14           Si  tau(  14) = (   0.0978584   0.9935010   0.5854520  )
        15           Si  tau(  15) = (   0.1374120   0.4473000   0.8730700  )
        16           Si  tau(  16) = (   0.4626440   0.7328470   0.5147330  )
        17           Si  tau(  17) = (   0.8475380   0.2625880   0.7659520  )
        18           Si  tau(  18) = (   0.7608220   0.6039850   0.3189620  )
        19           Si  tau(  19) = (   0.1239490   0.2667940   0.5103730  )
        20           Si  tau(  20) = (   0.2015590   0.7904730   0.1005800  )
        21           Si  tau(  21) = (   0.8711670   0.4766010   0.7160770  )
        22           Si  tau(  22) = (   0.5286810   0.8896580   0.2803300  )
        23           Si  tau(  23) = (   0.1056100   0.2389180   0.7393550  )
        24           Si  tau(  24) = (   0.0007267   0.6592750   0.3538140  )
        25           Si  tau(  25) = (   0.2083790   0.5390720   0.1480440  )
        26           Si  tau(  26) = (   0.7949410   0.3820000   0.3681320  )
        27           Si  tau(  27) = (   0.6447580   0.1347880   0.4612480  )
        28           Si  tau(  28) = (   0.2998440   0.3260550   0.0241015  )
        29           Si  tau(  29) = (   0.9925410   0.4547720   0.5213540  )
        30           Si  tau(  30) = (   0.8910420   0.0598272   0.6914740  )
        31           Si  tau(  31) = (   0.0000164   0.8456850   0.2090490  )
        32           Si  tau(  32) = (   0.2119730   0.9620780   0.3569480  )
        33           Si  tau(  33) = (   0.4732310   0.7243820   0.0270383  )
        34           Si  tau(  34) = (   0.6784200   0.9105240   0.1144510  )
        35           Si  tau(  35) = (   0.2036550   0.7462700   0.4569150  )
        36           Si  tau(  36) = (   0.1806760   0.8341690   0.7459940  )
        37           Si  tau(  37) = (   0.4778650   0.9137650   0.9282300  )
        38           Si  tau(  38) = (   0.6001460   0.4813130   0.9756650  )
        39           Si  tau(  39) = (   0.2960820   0.0278352   0.0970014  )
        40           Si  tau(  40) = (   0.5828720   0.0987877   0.7114920  )
        41           Si  tau(  41) = (   0.6703530   0.7851200   0.4463110  )
        42           Si  tau(  42) = (   0.7016730   0.0041555   0.9170950  )
        43           Si  tau(  43) = (   0.6632260   0.2793600   0.2332110  )
        44           Si  tau(  44) = (   0.8006610   0.9795300   0.4711240  )
        45           Si  tau(  45) = (   0.8446070   0.8394830   0.8442520  )
        46           Si  tau(  46) = (   0.3493050   0.2650280   0.4813150  )
        47           Si  tau(  47) = (   0.3905130   0.9178620   0.7096080  )
        48           Si  tau(  48) = (   0.4647400   0.2937680   0.6918720  )
        49           Si  tau(  49) = (   0.4601330   0.5201320   0.8069320  )
        50           Si  tau(  50) = (   0.6872430   0.3288850   0.5591530  )
        51           Si  tau(  51) = (   0.8551990   0.2288410   0.0339711  )
        52           Si  tau(  52) = (   0.4088520   0.0420464   0.4844740  )
        53           Si  tau(  53) = (   0.0183433   0.5095600   0.1982570  )
        54           Si  tau(  54) = (   0.9540980   0.8193780   0.5509430  )
        55           Si  tau(  55) = (   0.7851820   0.6082420   0.9376950  )
        56           Si  tau(  56) = (   0.9664160   0.0219717   0.3293430  )
        57           Si  tau(  57) = (   0.2734930   0.6600000   0.9218750  )
        58           Si  tau(  58) = (   0.3161690   0.5332840   0.6189430  )
        59           Si  tau(  59) = (   0.9886150   0.2625240   0.3002750  )
        60           Si  tau(  60) = (   0.5432380   0.5412100   0.1967700  )
        61           Si  tau(  61) = (   0.3930430   0.3555820   0.2127900  )
        62           Si  tau(  62) = (   0.1159110   0.5999260   0.6975470  )
        63           Si  tau(  63) = (   0.0591979   0.9088150   0.9284190  )
        64           Si  tau(  64) = (   0.4458300   0.1029590   0.2420700  )

     number of k points=     1
                       cart. coord. in units 2pi/alat
        k(    1) = (   0.0000000   0.0000000   0.0000000), wk =   2.0000000

     Dense  grid:    90042 G-vectors     FFT dimensions: (  72,  72,  72)

     Estimated max dynamical RAM per process >     132.65 MB

     Estimated total dynamical RAM >     508.60 MB

     Initial potential from superposition of free atoms

     starting charge     255.9608, renormalised to     256.0000
     Starting wfcs are  256 randomized atomic wfcs

     total cpu time spent up to now is        4.0 secs

     Self-consistent Calculation

     iteration #  1     ecut=    30.00 Ry     beta= 0.50
     Davidson diagonalization with overlap
     ethr =  1.00E-02,  avg # of iterations =  2.0

     Threshold (ethr) on eigenvalues was too large:
     Diagonalizing with lowered threshold

     Davidson diagonalization with overlap
     ethr =  4.07E-04,  avg # of iterations =  6.0

     total cpu time spent up to now is        4.2 secs

     total energy              =    -501.13667248 Ry
     estimated scf accuracy    <       1.29003437 Ry

     iteration #  2     ecut=    30.00 Ry     beta= 0.50
     Davidson diagonalization with overlap
     ethr =  5.04E-04,  avg # of iterations = 12.0

     total cpu time spent up to now is        4.4 secs

     total energy              =    -500.57222460 Ry
     estimated scf accuracy    <       7.34130588 Ry

     iteration #  3     ecut=    30.00 Ry     beta= 0.50
     Davidson diagonalization with overlap
     ethr =  5.04E-04,  avg # of iterations = 11.0

     total cpu time spent up to now is        4.5 secs

     total energy              =    -501.25915779 Ry
     estimated scf accuracy    <       1.56530697 Ry

     iteration #  4     ecut=    30.00 Ry     beta= 0.50
     Davidson diagonalization with overlap
     ethr =  5.04E-04,  avg # of iterations =  6.0

     total cpu time spent up to now is        4.6 secs

     total energy              =    -501.38393883 Ry
     estimated scf accuracy    <       0.40369461 Ry

     iteration #  5     ecut=    30.00 Ry     beta= 0.50
     Davidson diagonalization with overlap
     ethr =  1.58E-04,  avg # of iterations =  7.0

     total cpu time spent up to now is        4.7 secs

     total energy              =    -501.41435444 Ry
     estimated scf accuracy    <       0.19206551 Ry

     iteration #  6     ecut=    30.00 Ry     beta= 0.50
     Davidson diagonalization with overlap
     ethr =  7.50E-05,  avg # of iterations =  8.0

     total cpu time spent up to now is        4.8 secs

     total energy              =    -501.44032147 Ry
     estimated scf accuracy    <       0.05957593 Ry

     iteration #  7     ecut=    30.00 Ry     beta= 0.50
     Davidson diagonalization with overlap
     ethr =  2.33E-05,  avg # of iterations =  7.0

     total cpu time spent up to now is        4.9 secs

     total energy              =    -501.44448590 Ry
     estimated scf accuracy    <       0.01448142 Ry

     iteration #  8     ecut=    30.00 Ry     beta= 0.50
     Davidson diagonalization with overlap
     c_bands:  1 eigenvalues not converged
     ethr =  5.66E-06,  avg # of iterations = 20.0

     total cpu time spent up to now is        5.0 secs

     total energy              =    -501.44700131 Ry
     estimated scf accuracy    <       0.04867374 Ry

     iteration #  9     ecut=    30.00 Ry     beta= 0.50
     Davidson diagonalization with overlap
     ethr =  5.66E-06,  avg # of iterations = 18.0

     total cpu time spent up to now is        5.2 secs

     total energy              =    -501.44879100 Ry
     estimated scf accuracy    <       0.01897701 Ry

     iteration # 10     ecut=    30.00 Ry     beta= 0.50
     Davidson diagonalization with overlap
     ethr =  5.66E-06,  avg # of iterations =  1.0

     total cpu time spent up to now is        5.3 secs

     total energy              =    -501.44805244 Ry
     estimated scf accuracy    <       0.01563447 Ry

     iteration # 11     ecut=    30.00 Ry     beta= 0.50
     Davidson diagonalization with overlap
     ethr =  5.66E-06,  avg # of iterations =  1.0

     total cpu time spent up to now is        5.3 secs

     total energy              =    -501.44610512 Ry
     estimated scf accuracy    <       0.01229425 Ry

     iteration # 12     ecut=    30.00 Ry     beta= 0.50
     Davidson diagonalization with overlap
     c_bands:  1 eigenvalues not converged
     ethr =  4.80E-06,  avg # of iterations = 20.0

     total cpu time spent up to now is        5.5 secs

     total energy              =    -501.44806612 Ry
     estimated scf accuracy    <       0.01051647 Ry

     iteration # 13     ecut=    30.00 Ry     beta= 0.50
     Davidson diagonalization with overlap
     ethr =  4.11E-06,  avg # of iterations = 17.0

     total cpu time spent up to now is        5.6 secs

     total energy              =    -501.44806092 Ry
     estimated scf accuracy    <       0.00707467 Ry

     iteration # 14     ecut=    30.00 Ry     beta= 0.50
     Davidson diagonalization with overlap
     ethr =  2.76E-06,  avg # of iterations =  2.0

     total cpu time spent up to now is        5.7 secs

     total energy              =    -501.44761722 Ry
     estimated scf accuracy    <       0.00470335 Ry

     iteration # 15     ecut=    30.00 Ry     beta= 0.50
     Davidson diagonalization with overlap
     c_bands:  1 eigenvalues not converged
     ethr =  1.84E-06,  avg # of iterations = 20.0

     total cpu time spent up to now is        5.8 secs

     total energy              =    -501.44844460 Ry
     estimated scf accuracy    <       0.00634990 Ry

     iteration # 16     ecut=    30.00 Ry     beta= 0.50
     Davidson diagonalization with overlap
     ethr =  1.84E-06,  avg # of iterations = 17.0

     total cpu time spent up to now is        5.9 secs

     total energy              =    -501.44859476 Ry
     estimated scf accuracy    <       0.00518202 Ry

     iteration # 17     ecut=    30.00 Ry     beta= 0.50
     Davidson diagonalization with overlap
     ethr =  1.84E-06,  avg # of iterations =  1.0

     total cpu time spent up to now is        6.0 secs

     total energy              =    -501.44805240 Ry
     estimated scf accuracy    <       0.00439445 Ry

     iteration # 18     ecut=    30.00 Ry     beta= 0.50
     Davidson diagonalization with overlap
     ethr =  1.72E-06,  avg # of iterations =  2.0

     total cpu time spent up to now is        6.1 secs

     total energy              =    -501.44799298 Ry
     estimated scf accuracy    <       0.00249357 Ry

     iteration # 19     ecut=    30.00 Ry     beta= 0.50
     Davidson diagonalization with overlap
     c_bands:  1 eigenvalues not converged
     ethr =  9.74E-07,  avg # of iterations = 20.0

     total cpu time spent up to now is        6.2 secs

     total energy              =    -501.44835246 Ry
     estimated scf accuracy    <       0.00142094 Ry

     iteration # 20     ecut=    30.00 Ry     beta= 0.50
     Davidson diagonalization with overlap
     c_bands:  1 eigenvalues not converged
     ethr =  5.55E-07,  avg # of iterations = 20.0

     total cpu time spent up to now is        6.4 secs

     total energy              =    -501.44878282 Ry
     estimated scf accuracy    <       0.00174350 Ry

     iteration # 21     ecut=    30.00 Ry     beta= 0.50
     Davidson diagonalization with overlap
     c_bands:  1 eigenvalues not converged
     ethr =  5.55E-07,  avg # of iterations = 20.0

     total cpu time spent up to now is        6.5 secs

     total energy              =    -501.44924047 Ry
     estimated scf accuracy    <       0.01033010 Ry

     iteration # 22     ecut=    30.00 Ry     beta= 0.50
     Davidson diagonalization with overlap
     ethr =  5.55E-07,  avg # of iterations = 16.0

     total cpu time spent up to now is        6.7 secs

     total energy              =    -501.44873717 Ry
     estimated scf accuracy    <       0.01038086 Ry

     iteration # 23     ecut=    30.00 Ry     beta= 0.50
     Davidson diagonalization with overlap
     ethr =  5.55E-07,  avg # of iterations =  2.0

     total cpu time spent up to now is        6.7 secs

     total energy              =    -501.44816208 Ry
     estimated scf accuracy    <       0.00777634 Ry

     iteration # 24     ecut=    30.00 Ry     beta= 0.50
     Davidson diagonalization with overlap
     c_bands:  1 eigenvalues not converged
     ethr =  5.55E-07,  avg # of iterations = 20.0

     total cpu time spent up to now is        6.9 secs

     total energy              =    -501.44818713 Ry
     estimated scf accuracy    <       0.00321682 Ry

     iteration # 25     ecut=    30.00 Ry     beta= 0.50
     Davidson diagonalization with overlap
     c_bands:  1 eigenvalues not converged
     ethr =  5.55E-07,  avg # of iterations = 20.0

     total cpu time spent up to now is        7.0 secs

     total energy              =    -501.44833839 Ry
     estimated scf accuracy    <       0.00221131 Ry

     iteration # 26     ecut=    30.00 Ry     beta= 0.50
     Davidson diagonalization with overlap
     ethr =  5.55E-07,  avg # of iterations = 19.0

     total cpu time spent up to now is        7.2 secs

     total energy              =    -501.44837691 Ry
     estimated scf accuracy    <       0.00180713 Ry

     iteration # 27     ecut=    30.00 Ry     beta= 0.50
     Davidson diagonalization with overlap
     ethr =  5.55E-07,  avg # of iterations =  1.0

     total cpu time spent up to now is        7.2 secs

     total energy              =    -501.44801110 Ry
     estimated scf accuracy    <       0.00175130 Ry

     iteration # 28     ecut=    30.00 Ry     beta= 0.50
     Davidson diagonalization with overlap
     c_bands:  1 eigenvalues not converged
     ethr =  5.55E-07,  avg # of iterations = 20.0

     total cpu time spent up to now is        7.4 secs

     total energy              =    -501.44656332 Ry
     estimated scf accuracy    <       0.02496713 Ry

     iteration # 29     ecut=    30.00 Ry     beta= 0.50
     Davidson diagonalization with overlap
     ethr =  5.55E-07,  avg # of iterations = 17.0

     total cpu time spent up to now is        7.5 secs

     total energy              =    -501.44789974 Ry
     estimated scf accuracy    <       0.02176244 Ry

     iteration # 30     ecut=    30.00 Ry     beta= 0.50
     Davidson diagonalization with overlap
     ethr =  5.55E-07,  avg # of iterations = 14.0

     total cpu time spent up to now is        7.7 secs

     total energy              =    -501.44822930 Ry
     estimated scf accuracy    <       0.01140811 Ry

     iteration # 31     ecut=    30.00 Ry     beta= 0.50
     Davidson diagonalization with overlap
     ethr =  5.55E-07,  avg # of iterations =  2.0

     total cpu time spent up to now is        7.8 secs

     total energy              =    -501.44823610 Ry
     estimated scf accuracy    <       0.01094134 Ry

     iteration # 32     ecut=    30.00 Ry     beta= 0.50
     Davidson diagonalization with overlap
     ethr =  5.55E-07,  avg # of iterations =  1.0

     total cpu time spent up to now is        7.8 secs

     total energy              =    -501.44822190 Ry
     estimated scf accuracy    <       0.01079443 Ry

     iteration # 33     ecut=    30.00 Ry     beta= 0.50
     Davidson diagonalization with overlap
     ethr =  5.55E-07,  avg # of iterations =  1.0

     total cpu time spent up to now is        7.9 secs

     total energy              =    -501.44826828 Ry
     estimated scf accuracy    <       0.01064564 Ry

     iteration # 34     ecut=    30.00 Ry     beta= 0.50
     Davidson diagonalization with overlap
     ethr =  5.55E-07,  avg # of iterations =  1.0

     total cpu time spent up to now is        8.0 secs

     total energy              =    -501.44835003 Ry
     estimated scf accuracy    <       0.01070762 Ry

     iteration # 35     ecut=    30.00 Ry     beta= 0.50
     Davidson diagonalization with overlap
     ethr =  5.55E-07,  avg # of iterations =  1.0

     total cpu time spent up to now is        8.0 secs

     total energy              =    -501.44841288 Ry
     estimated scf accuracy    <       0.01094565 Ry

     iteration # 36     ecut=    30.00 Ry     beta= 0.50
     Davidson diagonalization with overlap
     ethr =  5.55E-07,  avg # of iterations =  1.0

     total cpu time spent up to now is        8.1 secs

     total energy              =    -501.44415347 Ry
     estimated scf accuracy    <       0.01118689 Ry

     iteration # 37     ecut=    30.00 Ry     beta= 0.50
     Davidson diagonalization with overlap
     c_bands:  4 eigenvalues not converged
     ethr =  5.55E-07,  avg # of iterations = 20.0

     total cpu time spent up to now is        8.3 secs

     total energy              =    -501.44909113 Ry
     estimated scf accuracy    <       0.16481989 Ry

     iteration # 38     ecut=    30.00 Ry     beta= 0.50
     Davidson diagonalization with overlap
     c_bands:  1 eigenvalues not converged
     ethr =  5.55E-07,  avg # of iterations = 20.0

     total cpu time spent up to now is        8.5 secs

     total energy              =    -501.44842298 Ry
     estimated scf accuracy    <       0.05948031 Ry

     iteration # 39     ecut=    30.00 Ry     beta= 0.50
     Davidson diagonalization with overlap
     ethr =  5.55E-07,  avg # of iterations = 12.0

     total cpu time spent up to now is        8.6 secs

     total energy              =    -501.44950484 Ry
     estimated scf accuracy    <       0.01521369 Ry

     iteration # 40     ecut=    30.00 Ry     beta= 0.50
     Davidson diagonalization with overlap
     ethr =  5.55E-07,  avg # of iterations =  3.0

     total cpu time spent up to now is        8.7 secs

     total energy              =    -501.44883821 Ry
     estimated scf accuracy    <       0.01184933 Ry

     iteration # 41     ecut=    30.00 Ry     beta= 0.50
     Davidson diagonalization with overlap
     ethr =  5.55E-07,  avg # of iterations = 12.0

     total cpu time spent up to now is        8.8 secs

     total energy              =    -501.44835463 Ry
     estimated scf accuracy    <       0.00735877 Ry

     iteration # 42     ecut=    30.00 Ry     beta= 0.50
     Davidson diagonalization with overlap
     c_bands:  1 eigenvalues not converged
     ethr =  5.55E-07,  avg # of iterations = 20.0

     total cpu time spent up to now is        8.9 secs

     total energy              =    -501.44850683 Ry
     estimated scf accuracy    <       0.00244671 Ry

     iteration # 43     ecut=    30.00 Ry     beta= 0.50
     Davidson diagonalization with overlap
     ethr =  5.55E-07,  avg # of iterations =  2.0

     total cpu time spent up to now is        9.0 secs

     total energy              =    -501.44847328 Ry
     estimated scf accuracy    <       0.00206498 Ry

     iteration # 44     ecut=    30.00 Ry     beta= 0.50
     Davidson diagonalization with overlap
     ethr =  5.55E-07,  avg # of iterations =  1.0

     total cpu time spent up to now is        9.1 secs

     total energy              =    -501.44843039 Ry
     estimated scf accuracy    <       0.00180772 Ry

     iteration # 45     ecut=    30.00 Ry     beta= 0.50
     Davidson diagonalization with overlap
     ethr =  5.55E-07,  avg # of iterations =  1.0

     total cpu time spent up to now is        9.2 secs

     total energy              =    -501.44806589 Ry
     estimated scf accuracy    <       0.00155236 Ry

     iteration # 46     ecut=    30.00 Ry     beta= 0.50
     Davidson diagonalization with overlap
     ethr =  5.55E-07,  avg # of iterations = 11.0

     total cpu time spent up to now is        9.3 secs

     total energy              =    -501.44815511 Ry
     estimated scf accuracy    <       0.00250233 Ry

     iteration # 47     ecut=    30.00 Ry     beta= 0.50
     Davidson diagonalization with overlap
     ethr =  5.55E-07,  avg # of iterations =  3.0

     total cpu time spent up to now is        9.4 secs

     total energy              =    -501.44796314 Ry
     estimated scf accuracy    <       0.00125398 Ry

     iteration # 48     ecut=    30.00 Ry     beta= 0.50
     Davidson diagonalization with overlap
     c_bands:  1 eigenvalues not converged
     ethr =  4.90E-07,  avg # of iterations = 20.0

     total cpu time spent up to now is        9.5 secs

     total energy              =    -501.44805205 Ry
     estimated scf accuracy    <       0.03534639 Ry

     iteration # 49     ecut=    30.00 Ry     beta= 0.50
     Davidson diagonalization with overlap
     ethr =  4.90E-07,  avg # of iterations = 19.0

     total cpu time spent up to now is        9.7 secs

     total energy              =    -501.44817817 Ry
     estimated scf accuracy    <       0.02795223 Ry

     iteration # 50     ecut=    30.00 Ry     beta= 0.50
     Davidson diagonalization with overlap
     ethr =  4.90E-07,  avg # of iterations =  2.0

     total cpu time spent up to now is        9.8 secs

     total energy              =    -501.44687783 Ry
     estimated scf accuracy    <       0.02492868 Ry

     iteration # 51     ecut=    30.00 Ry     beta= 0.50
     Davidson diagonalization with overlap
     c_bands:  1 eigenvalues not converged
     ethr =  4.90E-07,  avg # of iterations = 20.0

     total cpu time spent up to now is        9.9 secs

     total energy              =    -501.44829251 Ry
     estimated scf accuracy    <       0.00261243 Ry

     iteration # 52     ecut=    30.00 Ry     beta= 0.50
     Davidson diagonalization with overlap
     ethr =  4.90E-07,  avg # of iterations = 18.0

     total cpu time spent up to now is       10.1 secs

     total energy              =    -501.44844992 Ry
     estimated scf accuracy    <       0.00165425 Ry

     iteration # 53     ecut=    30.00 Ry     beta= 0.50
     Davidson diagonalization with overlap
     ethr =  4.90E-07,  avg # of iterations =  1.0

     total cpu time spent up to now is       10.1 secs

     total energy              =    -501.44835421 Ry
     estimated scf accuracy    <       0.00115307 Ry

     iteration # 54     ecut=    30.00 Ry     beta= 0.50
     Davidson diagonalization with overlap
     ethr =  4.50E-07,  avg # of iterations =  1.0

     total cpu time spent up to now is       10.2 secs

     total energy              =    -501.44824067 Ry
     estimated scf accuracy    <       0.00067919 Ry

     iteration # 55     ecut=    30.00 Ry     beta= 0.50
     Davidson diagonalization with overlap
     ethr =  2.65E-07,  avg # of iterations =  8.0

     total cpu time spent up to now is       10.3 secs

     total energy              =    -501.44827686 Ry
     estimated scf accuracy    <       0.00023704 Ry

     iteration # 56     ecut=    30.00 Ry     beta= 0.50
     Davidson diagonalization with overlap
     c_bands:  1 eigenvalues not converged
     ethr =  9.26E-08,  avg # of iterations = 20.0

     total cpu time spent up to now is       10.4 secs

     total energy              =    -501.44888946 Ry
     estimated scf accuracy    <       0.03077254 Ry

     iteration # 57     ecut=    30.00 Ry     beta= 0.50
     Davidson diagonalization with overlap
     c_bands:  1 eigenvalues not converged
     ethr =  9.26E-08,  avg # of iterations = 20.0

     total cpu time spent up to now is       10.6 secs

     total energy              =    -501.44916258 Ry
     estimated scf accuracy    <       0.03061094 Ry

     iteration # 58     ecut=    30.00 Ry     beta= 0.50
     Davidson diagonalization with overlap
     c_bands:  1 eigenvalues not converged
     ethr =  9.26E-08,  avg # of iterations = 20.0

     total cpu time spent up to now is       10.7 secs

     total energy              =    -501.44859365 Ry
     estimated scf accuracy    <       0.03440223 Ry

     iteration # 59     ecut=    30.00 Ry     beta= 0.50
     Davidson diagonalization with overlap
     ethr =  9.26E-08,  avg # of iterations = 17.0

     total cpu time spent up to now is       10.9 secs

     total energy              =    -501.44830408 Ry
     estimated scf accuracy    <       0.03177331 Ry

     iteration # 60     ecut=    30.00 Ry     beta= 0.50
     Davidson diagonalization with overlap
     ethr =  9.26E-08,  avg # of iterations =  1.0

     total cpu time spent up to now is       10.9 secs

     total energy              =    -501.44822834 Ry
     estimated scf accuracy    <       0.03022859 Ry

     iteration # 61     ecut=    30.00 Ry     beta= 0.50
     Davidson diagonalization with overlap
     ethr =  9.26E-08,  avg # of iterations =  1.0

     total cpu time spent up to now is       11.0 secs

     total energy              =    -501.44822459 Ry
     estimated scf accuracy    <       0.02979205 Ry

     iteration # 62     ecut=    30.00 Ry     beta= 0.50
     Davidson diagonalization with overlap
     ethr =  9.26E-08,  avg # of iterations =  1.0

     total cpu time spent up to now is       11.1 secs

     total energy              =    -501.44830334 Ry
     estimated scf accuracy    <       0.02951635 Ry

     iteration # 63     ecut=    30.00 Ry     beta= 0.50
     Davidson diagonalization with overlap
     ethr =  9.26E-08,  avg # of iterations =  1.0

     total cpu time spent up to now is       11.1 secs

     total energy              =    -501.44801911 Ry
     estimated scf accuracy    <       0.02958540 Ry

     iteration # 64     ecut=    30.00 Ry     beta= 0.50
     Davidson diagonalization with overlap
     c_bands:  1 eigenvalues not converged
     ethr =  9.26E-08,  avg # of iterations = 20.0

     total cpu time spent up to now is       11.3 secs

     total energy              =    -501.44919094 Ry
     estimated scf accuracy    <       0.00484189 Ry

     iteration # 65     ecut=    30.00 Ry     beta= 0.50
     Davidson diagonalization with overlap
     c_bands:  5 eigenvalues not converged
     ethr =  9.26E-08,  avg # of iterations = 20.0

     total cpu time spent up to now is       11.5 secs

     total energy              =    -501.45616212 Ry
     estimated scf accuracy    <       0.13772889 Ry

     iteration # 66     ecut=    30.00 Ry     beta= 0.50
     Davidson diagonalization with overlap
     c_bands:  1 eigenvalues not converged
     ethr =  9.26E-08,  avg # of iterations = 20.0

     total cpu time spent up to now is       11.7 secs

     total energy              =    -501.45445522 Ry
     estimated scf accuracy    <       0.06811959 Ry

     iteration # 67     ecut=    30.00 Ry     beta= 0.50
     Davidson diagonalization with overlap
     ethr =  9.26E-08,  avg # of iterations = 18.0

     total cpu time spent up to now is       11.9 secs

     total energy              =    -501.45307624 Ry
     estimated scf accuracy    <       0.05655850 Ry

     iteration # 68     ecut=    30.00 Ry     beta= 0.50
     Davidson diagonalization with overlap
     ethr =  9.26E-08,  avg # of iterations = 18.0

     total cpu time spent up to now is       12.1 secs

     total energy              =    -501.45205903 Ry
     estimated scf accuracy    <       0.03657868 Ry

     iteration # 69     ecut=    30.00 Ry     beta= 0.50
     Davidson diagonalization with overlap
     ethr =  9.26E-08,  avg # of iterations = 12.0

     total cpu time spent up to now is       12.2 secs

     total energy              =    -501.45118140 Ry
     estimated scf accuracy    <       0.02641483 Ry

     iteration # 70     ecut=    30.00 Ry     beta= 0.50
     Davidson diagonalization with overlap
     ethr =  9.26E-08,  avg # of iterations =  6.0

     total cpu time spent up to now is       12.3 secs

     total energy              =    -501.45209311 Ry
     estimated scf accuracy    <       0.02028515 Ry

     iteration # 71     ecut=    30.00 Ry     beta= 0.50
     Davidson diagonalization with overlap
     ethr =  9.26E-08,  avg # of iterations = 11.0

     total cpu time spent up to now is       12.4 secs

     total energy              =    -501.44557383 Ry
     estimated scf accuracy    <       0.02544179 Ry

     iteration # 72     ecut=    30.00 Ry     beta= 0.50
     Davidson diagonalization with overlap
     c_bands:  1 eigenvalues not converged
     ethr =  9.26E-08,  avg # of iterations = 20.0

     total cpu time spent up to now is       12.6 secs

     total energy              =    -501.44804342 Ry
     estimated scf accuracy    <       0.00237574 Ry

     iteration # 73     ecut=    30.00 Ry     beta= 0.50
     Davidson diagonalization with overlap
     c_bands:  1 eigenvalues not converged
     ethr =  9.26E-08,  avg # of iterations = 20.0

     total cpu time spent up to now is       12.8 secs

     total energy              =    -501.44853801 Ry
     estimated scf accuracy    <       0.03809850 Ry

     iteration # 74     ecut=    30.00 Ry     beta= 0.50
     Davidson diagonalization with overlap
     c_bands:  1 eigenvalues not converged
     ethr =  9.26E-08,  avg # of iterations = 20.0

     total cpu time spent up to now is       13.0 secs

     total energy              =    -501.44775359 Ry
     estimated scf accuracy    <       0.03232114 Ry

     iteration # 75     ecut=    30.00 Ry     beta= 0.50
     Davidson diagonalization with overlap
     c_bands:  1 eigenvalues not converged
     ethr =  9.26E-08,  avg # of iterations = 20.0

     total cpu time spent up to now is       13.1 secs

     total energy              =    -501.44832023 Ry
     estimated scf accuracy    <       0.00211929 Ry

     iteration # 76     ecut=    30.00 Ry     beta= 0.50
     Davidson diagonalization with overlap
     ethr =  9.26E-08,  avg # of iterations = 14.0

     total cpu time spent up to now is       13.3 secs

     total energy              =    -501.44839597 Ry
     estimated scf accuracy    <       0.00112633 Ry

     iteration # 77     ecut=    30.00 Ry     beta= 0.50
     Davidson diagonalization with overlap
     ethr =  9.26E-08,  avg # of iterations =  8.0

     total cpu time spent up to now is       13.4 secs

     total energy              =    -501.44842312 Ry
     estimated scf accuracy    <       0.00092318 Ry

     iteration # 78     ecut=    30.00 Ry     beta= 0.50
     Davidson diagonalization with overlap
     c_bands:  1 eigenvalues not converged
     ethr =  9.26E-08,  avg # of iterations = 20.0

     total cpu time spent up to now is       13.6 secs

     total energy              =    -501.44845802 Ry
     estimated scf accuracy    <       0.00152693 Ry

     iteration # 79     ecut=    30.00 Ry     beta= 0.50
     Davidson diagonalization with overlap
     ethr =  9.26E-08,  avg # of iterations = 19.0

     total cpu time spent up to now is       13.7 secs

     total energy              =    -501.44845993 Ry
     estimated scf accuracy    <       0.00141892 Ry

     iteration # 80     ecut=    30.00 Ry     beta= 0.50
     Davidson diagonalization with overlap
     ethr =  9.26E-08,  avg # of iterations =  3.0

     total cpu time spent up to now is       13.8 secs

     total energy              =    -501.44840374 Ry
     estimated scf accuracy    <       0.00123730 Ry

     iteration # 81     ecut=    30.00 Ry     beta= 0.50
     Davidson diagonalization with overlap
     ethr =  9.26E-08,  avg # of iterations =  2.0

     total cpu time spent up to now is       13.9 secs

     total energy              =    -501.44839241 Ry
     estimated scf accuracy    <       0.00105482 Ry

     iteration # 82     ecut=    30.00 Ry     beta= 0.50
     Davidson diagonalization with overlap
     ethr =  9.26E-08,  avg # of iterations =  2.0

     total cpu time spent up to now is       13.9 secs

     total energy              =    -501.44839460 Ry
     estimated scf accuracy    <       0.00092283 Ry

     iteration # 83     ecut=    30.00 Ry     beta= 0.50
     Davidson diagonalization with overlap
     ethr =  9.26E-08,  avg # of iterations =  1.0

     total cpu time spent up to now is       14.0 secs

     total energy              =    -501.44807962 Ry
     estimated scf accuracy    <       0.00088080 Ry

     iteration # 84     ecut=    30.00 Ry     beta= 0.50
     Davidson diagonalization with overlap
     c_bands:  1 eigenvalues not converged
     ethr =  9.26E-08,  avg # of iterations = 20.0

     total cpu time spent up to now is       14.2 secs

     total energy              =    -501.44788791 Ry
     estimated scf accuracy    <       0.00499243 Ry

     iteration # 85     ecut=    30.00 Ry     beta= 0.50
     Davidson diagonalization with overlap
     c_bands:  1 eigenvalues not converged
     ethr =  9.26E-08,  avg # of iterations = 20.0

     total cpu time spent up to now is       14.4 secs

     total energy              =    -501.44837998 Ry
     estimated scf accuracy    <       0.00789822 Ry

     iteration # 86     ecut=    30.00 Ry     beta= 0.50
     Davidson diagonalization with overlap
     c_bands:  1 eigenvalues not converged
     ethr =  9.26E-08,  avg # of iterations = 20.0

     total cpu time spent up to now is       14.5 secs

     total energy              =    -501.44875069 Ry
     estimated scf accuracy    <       0.01014380 Ry

     iteration # 87     ecut=    30.00 Ry     beta= 0.50
     Davidson diagonalization with overlap
     c_bands:  1 eigenvalues not converged
     ethr =  9.26E-08,  avg # of iterations = 20.0

     total cpu time spent up to now is       14.7 secs

     total energy              =    -501.44821763 Ry
     estimated scf accuracy    <       0.01825479 Ry

     iteration # 88     ecut=    30.00 Ry     beta= 0.50
     Davidson diagonalization with overlap
     ethr =  9.26E-08,  avg # of iterations = 18.0

     total cpu time spent up to now is       14.8 secs

     total energy              =    -501.44831080 Ry
     estimated scf accuracy    <       0.01543831 Ry

     iteration # 89     ecut=    30.00 Ry     beta= 0.50
     Davidson diagonalization with overlap
     ethr =  9.26E-08,  avg # of iterations =  1.0

     total cpu time spent up to now is       14.9 secs

     total energy              =    -501.44850319 Ry
     estimated scf accuracy    <       0.01502394 Ry

     iteration # 90     ecut=    30.00 Ry     beta= 0.50
     Davidson diagonalization with overlap
     ethr =  9.26E-08,  avg # of iterations =  1.0

     total cpu time spent up to now is       15.0 secs

     total energy              =    -501.44825802 Ry
     estimated scf accuracy    <       0.01548557 Ry

     iteration # 91     ecut=    30.00 Ry     beta= 0.50
     Davidson diagonalization with overlap
     ethr =  9.26E-08,  avg # of iterations =  2.0

     total cpu time spent up to now is       15.0 secs

     total energy              =    -501.44824312 Ry
     estimated scf accuracy    <       0.01455155 Ry

     iteration # 92     ecut=    30.00 Ry     beta= 0.50
     Davidson diagonalization with overlap
     ethr =  9.26E-08,  avg # of iterations =  1.0

     total cpu time spent up to now is       15.1 secs

     total energy              =    -501.46130252 Ry
     estimated scf accuracy    <       0.01437952 Ry

     iteration # 93     ecut=    30.00 Ry     beta= 0.50
     Davidson diagonalization with overlap
     c_bands:  1 eigenvalues not converged
     ethr =  9.26E-08,  avg # of iterations = 40.0

     total cpu time spent up to now is       15.4 secs

     total energy              =    -501.44375429 Ry
     estimated scf accuracy    <       0.20177225 Ry

     iteration # 94     ecut=    30.00 Ry     beta= 0.50
     Davidson diagonalization with overlap
     c_bands:  5 eigenvalues not converged
     ethr =  9.26E-08,  avg # of iterations = 20.0

     total cpu time spent up to now is       15.6 secs

     total energy              =    -501.44161736 Ry
     estimated scf accuracy    <       0.12192520 Ry

     iteration # 95     ecut=    30.00 Ry     beta= 0.50
     Davidson diagonalization with overlap
     c_bands:  5 eigenvalues not converged
     ethr =  9.26E-08,  avg # of iterations = 20.0

     total cpu time spent up to now is       15.8 secs

     total energy              =    -501.44631522 Ry
     estimated scf accuracy    <       0.09404781 Ry

     iteration # 96     ecut=    30.00 Ry     beta= 0.50
     Davidson diagonalization with overlap
     c_bands:  5 eigenvalues not converged
     ethr =  9.26E-08,  avg # of iterations = 20.0

     total cpu time spent up to now is       16.0 secs

     total energy              =    -501.44558380 Ry
     estimated scf accuracy    <       0.04346966 Ry

     iteration # 97     ecut=    30.00 Ry     beta= 0.50
     Davidson diagonalization with overlap
     c_bands:  4 eigenvalues not converged
     ethr =  9.26E-08,  avg # of iterations = 20.0

     total cpu time spent up to now is       16.2 secs

     total energy              =    -501.44731978 Ry
     estimated scf accuracy    <       0.02763566 Ry

     iteration # 98     ecut=    30.00 Ry     beta= 0.50
     Davidson diagonalization with overlap
     c_bands:  1 eigenvalues not converged
     ethr =  9.26E-08,  avg # of iterations = 20.0

     total cpu time spent up to now is       16.4 secs

     total energy              =    -501.44904322 Ry
     estimated scf accuracy    <       0.00853307 Ry

     iteration # 99     ecut=    30.00 Ry     beta= 0.50
     Davidson diagonalization with overlap
     c_bands:  1 eigenvalues not converged
     ethr =  9.26E-08,  avg # of iterations = 20.0

     total cpu time spent up to now is       16.6 secs

     total energy              =    -501.44881482 Ry
     estimated scf accuracy    <       0.00726934 Ry

     iteration #100     ecut=    30.00 Ry     beta= 0.50
     Davidson diagonalization with overlap
     ethr =  9.26E-08,  avg # of iterations =  8.0

     total cpu time spent up to now is       16.7 secs

     total energy              =    -501.44876667 Ry
     estimated scf accuracy    <       0.00434396 Ry

     End of self-consistent calculation

     convergence NOT achieved after 100 iterations: stopping

     Writing config to output data dir ./pwscf.save/
     Message from routine punch:
     wavefunctions written to file
 
     init_run     :      0.94s CPU      3.99s WALL (       1 calls)
     electrons    :     12.02s CPU     12.65s WALL (       1 calls)

     Called by init_run:
     wfcinit      :      0.43s CPU      3.35s WALL (       1 calls)
                                        3.35s GPU  (       1 calls)
     potinit      :      0.04s CPU      0.11s WALL (       1 calls)
     hinit0       :      0.45s CPU      0.47s WALL (       1 calls)

     Called by electrons:
     c_bands      :      8.98s CPU      9.34s WALL (     101 calls)
     sum_band     :      1.39s CPU      1.59s WALL (     101 calls)
     v_of_rho     :      0.57s CPU      0.67s WALL (     101 calls)
     mix_rho      :      0.86s CPU      0.90s WALL (     101 calls)

     Called by c_bands:
     init_us_2    :      0.24s CPU      0.27s WALL (     203 calls)
     init_us_2:gp :      0.24s CPU      0.26s WALL (     203 calls)
     regterg      :      8.26s CPU      8.58s WALL (     102 calls)

     Called by *egterg:
     rdiaghg      :      4.14s CPU      4.85s WALL (    1295 calls)
                                        4.65s GPU  (    1295 calls)
     h_psi        :      3.35s CPU      5.84s WALL (    1297 calls)
                                        5.82s GPU  (    1297 calls)
     g_psi        :      0.00s CPU      0.03s WALL (    1194 calls)
                                        0.02s GPU  (    1194 calls)

     Called by h_psi:
     h_psi:calbec :      0.72s CPU      3.04s WALL (    1297 calls)
                                        3.03s GPU  (    1297 calls)
     vloc_psi     :      1.96s CPU      2.12s WALL (    1297 calls)
                                        2.09s GPU  (    1297 calls)
     add_vuspsi   :      0.51s CPU      0.62s WALL (    1297 calls)
                                        0.61s GPU  (    1297 calls)

     General routines
     calbec       :      0.71s CPU      3.02s WALL (    1297 calls)
     fft          :      0.91s CPU      1.05s WALL (     809 calls)
                                        0.17s GPU  (     505 calls)
     ffts         :      0.14s CPU      0.15s WALL (     101 calls)
     fftw         :      2.22s CPU      2.75s WALL (   10736 calls)
                                        2.39s GPU  (   10736 calls)
     davcio       :      0.00s CPU      0.01s WALL (      19 calls)
 
     Parallel routines
 
     PWSCF        :     13.00s CPU     16.78s WALL

 
   This run was terminated on:  15: 5:19   9May2023            

=------------------------------------------------------------------------------=
   JOB DONE.
=------------------------------------------------------------------------------=
