An instance of this daemon is already running
An instance of this daemon is already running

     Program PWSCF v.7.1 starts on  9May2023 at 15: 8:56 

     This program is part of the open-source Quantum ESPRESSO suite
     for quantum simulation of materials; please cite
         "P. Giannozzi et al., J. Phys.:Condens. Matter 21 395502 (2009);
         "P. Giannozzi et al., J. Phys.:Condens. Matter 29 465901 (2017);
         "P. Giannozzi et al., J. Chem. Phys. 152 154105 (2020);
          URL http://www.quantum-espresso.org", 
     in publications or presentations arising from this work. More details at
     http://www.quantum-espresso.org/quote

     Parallel version (MPI & OpenMP), running on       4 processor cores
     Number of MPI processes:                 4
     Threads/MPI process:                     1

     MPI processes distributed on     1 nodes
     74267 MiB available memory on the printing compute node when the environment starts
 
     Reading input from pw-si-21.in
Warning: card &CELL ignored
Warning: card / ignored

     Current dimensions of program PWSCF are:
     Max number of different atomic species (ntypx) = 10
     Max number of k-points (npk) =  40000
     Max angular momentum in pseudopotentials (lmaxx) =  4

     IMPORTANT: XC functional enforced from input :
     Exchange-correlation= PBE
                           (   1   4   3   4   0   0   0)
     Any further DFT definition will be discarded
     Please, verify this is what you really want


     gamma-point specific algorithms are used
 
     K-points division:     npool     =       2
     R & G space division:  proc/nbgrp/npool/nimage =       2
     Subspace diagonalization in iterative solution of the eigenvalue problem:
     a serial algorithm will be used

     Message from routine divide_et_impera:
     suboptimal parallelization: some nodes have no k-points
 
     Parallelization info
     --------------------
     sticks:   dense  smooth     PW     G-vecs:    dense   smooth      PW
     Min        1955    1955    520                92369    92369   12632
     Max        1962    1962    521                92370    92370   12637
     Sum        3917    3917   1041               184739   184739   25269
 
     Using Slab Decomposition
 


     bravais-lattice index     =            0
     lattice parameter (alat)  =      20.2728  a.u.
     unit-cell volume          =    8331.9059 (a.u.)^3
     number of atoms/cell      =           64
     number of atomic types    =            1
     number of electrons       =       256.00
     number of Kohn-Sham states=          128
     kinetic-energy cutoff     =      30.0000  Ry
     charge density cutoff     =     120.0000  Ry
     scf convergence threshold =      1.0E-06
     mixing beta               =       0.5000
     number of iterations used =            8  plain     mixing
     Exchange-correlation= PBE
                           (   1   4   3   4   0   0   0)

     GPU acceleration is ACTIVE.
     GPU-aware MPI enabled

     Message from routine print_cuda_info:
     High GPU oversubscription detected. Are you sure this is what you want?

     celldm(1)=  20.272849  celldm(2)=   0.000000  celldm(3)=   0.000000
     celldm(4)=   0.000000  celldm(5)=   0.000000  celldm(6)=   0.000000

     crystal axes: (cart. coord. in units of alat)
               a(1) = (   1.000000   0.000000   0.000000 )  
               a(2) = (   0.000000   1.000000   0.000000 )  
               a(3) = (   0.000000   0.000000   1.000000 )  

     reciprocal axes: (cart. coord. in units 2 pi/alat)
               b(1) = (  1.000000  0.000000  0.000000 )  
               b(2) = (  0.000000  1.000000  0.000000 )  
               b(3) = (  0.000000  0.000000  1.000000 )  


     PseudoPot. # 1 for Si read from file:
     /home/ppiaggi/pseudos/Si_ONCV_PBE_sr.upf
     MD5 check sum: 8553c464762ac42b85b1eed164b4d029
     Pseudo is Norm-conserving, Zval =  4.0
     Generated using ONCVPSP code by D. R. Hamann
     Using radial grid of 1510 points,  4 beta functions with: 
                l(1) =   0
                l(2) =   0
                l(3) =   1
                l(4) =   1

     atomic species   valence    mass     pseudopotential
        Si             4.00    28.08500     Si( 1.00)

     No symmetry found



   Cartesian axes

     site n.     atom                  positions (alat units)
         1           Si  tau(   1) = (   0.1711170   0.2137560   0.7124940  )
         2           Si  tau(   2) = (   0.0197307   0.1115660   0.2252420  )
         3           Si  tau(   3) = (   0.9922320   0.6818890   0.2032000  )
         4           Si  tau(   4) = (   0.8913990   0.6070980   0.6544700  )
         5           Si  tau(   5) = (   0.0114083   0.0659339   0.0183373  )
         6           Si  tau(   6) = (   0.3186200   0.0214030   0.2208210  )
         7           Si  tau(   7) = (   0.4501990   0.3556230   0.2345460  )
         8           Si  tau(   8) = (   0.5120150   0.5680970   0.6550440  )
         9           Si  tau(   9) = (   0.5498270   0.4468970   0.0458685  )
        10           Si  tau(  10) = (   0.9012150   0.0899042   0.7643620  )
        11           Si  tau(  11) = (   0.5074580   0.8427780   0.3718970  )
        12           Si  tau(  12) = (   0.6647710   0.3201940   0.6071450  )
        13           Si  tau(  13) = (   0.6518880   0.3779840   0.8355140  )
        14           Si  tau(  14) = (   0.0587475   0.7913740   0.5180300  )
        15           Si  tau(  15) = (   0.0384952   0.7144550   0.9847110  )
        16           Si  tau(  16) = (   0.6621650   0.9875360   0.7290110  )
        17           Si  tau(  17) = (   0.7986400   0.1631430   0.2650570  )
        18           Si  tau(  18) = (   0.1314580   0.0097777   0.6128050  )
        19           Si  tau(  19) = (   0.4636390   0.9318900   0.6215140  )
        20           Si  tau(  20) = (   0.3388510   0.7771690   0.1822750  )
        21           Si  tau(  21) = (   0.3626200   0.7603310   0.7610440  )
        22           Si  tau(  22) = (   0.8885820   0.3317860   0.7141640  )
        23           Si  tau(  23) = (   0.5851560   0.0409485   0.1921700  )
        24           Si  tau(  24) = (   0.8490800   0.3005780   0.9955320  )
        25           Si  tau(  25) = (   0.6109750   0.1486750   0.8864950  )
        26           Si  tau(  26) = (   0.3674950   0.6393990   0.3936410  )
        27           Si  tau(  27) = (   0.6899300   0.6153510   0.3282490  )
        28           Si  tau(  28) = (   0.3847050   0.5629190   0.9160140  )
        29           Si  tau(  29) = (   0.2603620   0.7055440   0.5675220  )
        30           Si  tau(  30) = (   0.8361840   0.8562940   0.0205355  )
        31           Si  tau(  31) = (   0.8774150   0.3869700   0.4719700  )
        32           Si  tau(  32) = (   0.2307650   0.0897976   0.9111360  )
        33           Si  tau(  33) = (   0.7236170   0.8502270   0.2192520  )
        34           Si  tau(  34) = (   0.8461090   0.5621370   0.0015164  )
        35           Si  tau(  35) = (   0.3796000   0.1736510   0.4446930  )
        36           Si  tau(  36) = (   0.8288580   0.8448490   0.5977950  )
        37           Si  tau(  37) = (   0.6850080   0.7836010   0.8707420  )
        38           Si  tau(  38) = (   0.9733690   0.8401180   0.7936730  )
        39           Si  tau(  39) = (   0.2625830   0.4799970   0.2885340  )
        40           Si  tau(  40) = (   0.9381980   0.1323520   0.4962760  )
        41           Si  tau(  41) = (   0.0215411   0.5210710   0.8062570  )
        42           Si  tau(  42) = (   0.4260680   0.0451112   0.9915500  )
        43           Si  tau(  43) = (   0.2063920   0.5098570   0.6491380  )
        44           Si  tau(  44) = (   0.5853420   0.2267630   0.3579110  )
        45           Si  tau(  45) = (   0.3014520   0.9870730   0.4373980  )
        46           Si  tau(  46) = (   0.7570640   0.3862640   0.2012690  )
        47           Si  tau(  47) = (   0.2167560   0.3427280   0.4973060  )
        48           Si  tau(  48) = (   0.3649310   0.4154430   0.7370620  )
        49           Si  tau(  49) = (   0.0307602   0.4384830   0.1564630  )
        50           Si  tau(  50) = (   0.7016920   0.5754950   0.7541420  )
        51           Si  tau(  51) = (   0.8833940   0.6159340   0.4001160  )
        52           Si  tau(  52) = (   0.0837418   0.8864550   0.3084460  )
        53           Si  tau(  53) = (   0.7675760   0.0763022   0.0185322  )
        54           Si  tau(  54) = (   0.4275080   0.2072150   0.6689570  )
        55           Si  tau(  55) = (   0.5485120   0.4945320   0.4483090  )
        56           Si  tau(  56) = (   0.0363357   0.3280130   0.3275540  )
        57           Si  tau(  57) = (   0.2450730   0.2469200   0.1092460  )
        58           Si  tau(  58) = (   0.1959970   0.8895700   0.8040480  )
        59           Si  tau(  59) = (   0.0790719   0.3213170   0.9385850  )
        60           Si  tau(  60) = (   0.6283560   0.7588030   0.5107220  )
        61           Si  tau(  61) = (   0.6527520   0.6425750   0.0974162  )
        62           Si  tau(  62) = (   0.8598100   0.9405540   0.3941490  )
        63           Si  tau(  63) = (   0.2295110   0.6052540   0.0729551  )
        64           Si  tau(  64) = (   0.4681040   0.8131890   0.9970650  )

     number of k points=     1
                       cart. coord. in units 2pi/alat
        k(    1) = (   0.0000000   0.0000000   0.0000000), wk =   2.0000000

     Dense  grid:    92370 G-vectors     FFT dimensions: (  72,  72,  72)

     Estimated max dynamical RAM per process >     135.87 MB

     Estimated total dynamical RAM >     520.93 MB

     Initial potential from superposition of free atoms

     starting charge     255.9608, renormalised to     256.0000
     Starting wfcs are  256 randomized atomic wfcs

     total cpu time spent up to now is        4.1 secs

     Self-consistent Calculation

     iteration #  1     ecut=    30.00 Ry     beta= 0.50
     Davidson diagonalization with overlap
     ethr =  1.00E-02,  avg # of iterations =  2.0

     Threshold (ethr) on eigenvalues was too large:
     Diagonalizing with lowered threshold

     Davidson diagonalization with overlap
     ethr =  4.24E-04,  avg # of iterations =  6.0

     total cpu time spent up to now is        4.2 secs

     total energy              =    -500.94822456 Ry
     estimated scf accuracy    <       1.35850608 Ry

     iteration #  2     ecut=    30.00 Ry     beta= 0.50
     Davidson diagonalization with overlap
     ethr =  5.31E-04,  avg # of iterations = 11.0

     total cpu time spent up to now is        4.4 secs

     total energy              =    -500.31632573 Ry
     estimated scf accuracy    <       7.53859945 Ry

     iteration #  3     ecut=    30.00 Ry     beta= 0.50
     Davidson diagonalization with overlap
     ethr =  5.31E-04,  avg # of iterations =  9.0

     total cpu time spent up to now is        4.5 secs

     total energy              =    -501.02038341 Ry
     estimated scf accuracy    <       2.51721148 Ry

     iteration #  4     ecut=    30.00 Ry     beta= 0.50
     Davidson diagonalization with overlap
     ethr =  5.31E-04,  avg # of iterations =  8.0

     total cpu time spent up to now is        4.6 secs

     total energy              =    -501.21159399 Ry
     estimated scf accuracy    <       0.49709586 Ry

     iteration #  5     ecut=    30.00 Ry     beta= 0.50
     Davidson diagonalization with overlap
     ethr =  1.94E-04,  avg # of iterations =  6.0

     total cpu time spent up to now is        4.7 secs

     total energy              =    -501.24633764 Ry
     estimated scf accuracy    <       0.23472712 Ry

     iteration #  6     ecut=    30.00 Ry     beta= 0.50
     Davidson diagonalization with overlap
     ethr =  9.17E-05,  avg # of iterations =  6.0

     total cpu time spent up to now is        4.8 secs

     total energy              =    -501.27768640 Ry
     estimated scf accuracy    <       0.05268300 Ry

     iteration #  7     ecut=    30.00 Ry     beta= 0.50
     Davidson diagonalization with overlap
     ethr =  2.06E-05,  avg # of iterations =  6.0

     total cpu time spent up to now is        4.9 secs

     total energy              =    -501.28339754 Ry
     estimated scf accuracy    <       0.01353382 Ry

     iteration #  8     ecut=    30.00 Ry     beta= 0.50
     Davidson diagonalization with overlap
     ethr =  5.29E-06,  avg # of iterations =  9.0

     total cpu time spent up to now is        5.0 secs

     total energy              =    -501.28473883 Ry
     estimated scf accuracy    <       0.01482459 Ry

     iteration #  9     ecut=    30.00 Ry     beta= 0.50
     Davidson diagonalization with overlap
     ethr =  5.29E-06,  avg # of iterations =  3.0

     total cpu time spent up to now is        5.1 secs

     total energy              =    -501.28607294 Ry
     estimated scf accuracy    <       0.00164763 Ry

     iteration # 10     ecut=    30.00 Ry     beta= 0.50
     Davidson diagonalization with overlap
     c_bands:  1 eigenvalues not converged
     ethr =  6.44E-07,  avg # of iterations = 20.0

     total cpu time spent up to now is        5.2 secs

     total energy              =    -501.28636261 Ry
     estimated scf accuracy    <       0.00176748 Ry

     iteration # 11     ecut=    30.00 Ry     beta= 0.50
     Davidson diagonalization with overlap
     ethr =  6.44E-07,  avg # of iterations =  9.0

     total cpu time spent up to now is        5.3 secs

     total energy              =    -501.28634861 Ry
     estimated scf accuracy    <       0.00085386 Ry

     iteration # 12     ecut=    30.00 Ry     beta= 0.50
     Davidson diagonalization with overlap
     ethr =  3.34E-07,  avg # of iterations =  8.0

     total cpu time spent up to now is        5.5 secs

     total energy              =    -501.28646171 Ry
     estimated scf accuracy    <       0.00018053 Ry

     iteration # 13     ecut=    30.00 Ry     beta= 0.50
     Davidson diagonalization with overlap
     ethr =  7.05E-08,  avg # of iterations =  9.0

     total cpu time spent up to now is        5.6 secs

     total energy              =    -501.28647664 Ry
     estimated scf accuracy    <       0.00014061 Ry

     iteration # 14     ecut=    30.00 Ry     beta= 0.50
     Davidson diagonalization with overlap
     ethr =  5.49E-08,  avg # of iterations =  6.0

     total cpu time spent up to now is        5.7 secs

     total energy              =    -501.28648101 Ry
     estimated scf accuracy    <       0.00003158 Ry

     iteration # 15     ecut=    30.00 Ry     beta= 0.50
     Davidson diagonalization with overlap
     ethr =  1.23E-08,  avg # of iterations = 14.0

     total cpu time spent up to now is        5.8 secs

     total energy              =    -501.28648883 Ry
     estimated scf accuracy    <       0.00013298 Ry

     iteration # 16     ecut=    30.00 Ry     beta= 0.50
     Davidson diagonalization with overlap
     ethr =  1.23E-08,  avg # of iterations =  9.0

     total cpu time spent up to now is        5.9 secs

     total energy              =    -501.28648612 Ry
     estimated scf accuracy    <       0.00006794 Ry

     iteration # 17     ecut=    30.00 Ry     beta= 0.50
     Davidson diagonalization with overlap
     ethr =  1.23E-08,  avg # of iterations =  8.0

     total cpu time spent up to now is        6.0 secs

     total energy              =    -501.28648917 Ry
     estimated scf accuracy    <       0.00001596 Ry

     iteration # 18     ecut=    30.00 Ry     beta= 0.50
     Davidson diagonalization with overlap
     ethr =  6.24E-09,  avg # of iterations =  5.0

     total cpu time spent up to now is        6.1 secs

     total energy              =    -501.28649039 Ry
     estimated scf accuracy    <       0.00000227 Ry

     iteration # 19     ecut=    30.00 Ry     beta= 0.50
     Davidson diagonalization with overlap
     c_bands:  1 eigenvalues not converged
     ethr =  8.88E-10,  avg # of iterations = 20.0

     total cpu time spent up to now is        6.3 secs

     total energy              =    -501.28649110 Ry
     estimated scf accuracy    <       0.00000313 Ry

     iteration # 20     ecut=    30.00 Ry     beta= 0.50
     Davidson diagonalization with overlap
     c_bands:  1 eigenvalues not converged
     ethr =  8.88E-10,  avg # of iterations = 20.0

     total cpu time spent up to now is        6.4 secs

     total energy              =    -501.28649105 Ry
     estimated scf accuracy    <       0.00000360 Ry

     iteration # 21     ecut=    30.00 Ry     beta= 0.50
     Davidson diagonalization with overlap
     ethr =  8.88E-10,  avg # of iterations = 14.0

     total cpu time spent up to now is        6.6 secs

     total energy              =    -501.28649118 Ry
     estimated scf accuracy    <       0.00000134 Ry

     iteration # 22     ecut=    30.00 Ry     beta= 0.50
     Davidson diagonalization with overlap
     ethr =  5.22E-10,  avg # of iterations =  2.0

     total cpu time spent up to now is        6.6 secs

     End of self-consistent calculation

          k = 0.0000 0.0000 0.0000 ( 11516 PWs)   bands (ev):

    -5.5028  -4.6664  -4.4865  -4.3722  -4.2920  -4.1591  -4.0890  -3.6863
    -3.4994  -3.3616  -3.2702  -3.1933  -3.1080  -3.0700  -3.0233  -2.9800
    -2.8689  -2.7817  -2.7141  -2.3573  -2.1479  -2.0748  -1.9321  -1.8846
    -1.6125  -1.5212  -1.3266  -1.1247  -1.1102  -0.9067  -0.7752  -0.7067
    -0.4994  -0.3582  -0.3200  -0.2645  -0.2166  -0.1594   0.0582   0.0973
     0.1983   0.2861   0.3718   0.4449   0.5393   0.6217   0.6900   0.7208
     0.8027   0.8898   0.9432   1.1017   1.1210   1.2171   1.3075   1.4373
     1.5561   1.6762   1.7700   1.8532   2.0576   2.0809   2.1174   2.2166
     2.3312   2.4143   2.4912   2.5782   2.6912   2.7333   2.7758   2.8526
     2.8962   3.0248   3.1336   3.1704   3.2772   3.3545   3.3894   3.4986
     3.5501   3.8665   4.0342   4.0756   4.2034   4.2261   4.3600   4.4891
     4.5643   4.5863   4.6765   4.6963   4.7889   4.8419   4.9178   4.9388
     5.0158   5.1284   5.1318   5.1967   5.2431   5.3268   5.3499   5.4448
     5.5139   5.5431   5.6066   5.6265   5.7127   5.7562   5.8339   5.9250
     5.9739   6.0151   6.0666   6.0842   6.1978   6.2622   6.3169   6.4051
     6.4654   6.5536   6.5884   6.6567   6.6909   6.7268   6.7811   6.8282

     highest occupied level (ev):     6.8282

!    total energy              =    -501.28649067 Ry
     estimated scf accuracy    <       0.00000060 Ry

     The total energy is the sum of the following terms:
     one-electron contribution =     178.38879404 Ry
     hartree contribution      =      26.62961869 Ry
     xc contribution           =    -150.25282898 Ry
     ewald contribution        =    -556.05207442 Ry

     convergence has been achieved in  22 iterations

     Forces acting on atoms (cartesian axes, Ry/au):

     atom    1 type  1   force =     0.01951583   -0.01721881    0.03913913
     atom    2 type  1   force =     0.02578343    0.02491319    0.03469768
     atom    3 type  1   force =     0.00584719   -0.00590762    0.01282684
     atom    4 type  1   force =    -0.03897637    0.05102318   -0.02977167
     atom    5 type  1   force =     0.01648448    0.01666713   -0.03367011
     atom    6 type  1   force =     0.00183995   -0.02385796   -0.04919891
     atom    7 type  1   force =    -0.02845898    0.00809751   -0.03254846
     atom    8 type  1   force =    -0.01730280    0.01134569   -0.01573825
     atom    9 type  1   force =     0.00208784    0.00883572   -0.00566471
     atom   10 type  1   force =     0.00243019   -0.02298322   -0.02113370
     atom   11 type  1   force =    -0.06960275    0.03993165   -0.07315459
     atom   12 type  1   force =    -0.01634299   -0.00411575   -0.04209490
     atom   13 type  1   force =     0.01506765   -0.05066624    0.05617805
     atom   14 type  1   force =    -0.00064037    0.03799709   -0.01377907
     atom   15 type  1   force =     0.00599094   -0.03370159   -0.01067996
     atom   16 type  1   force =     0.01250701   -0.00906503    0.01116883
     atom   17 type  1   force =    -0.01683925    0.00770805   -0.01407225
     atom   18 type  1   force =    -0.02195263   -0.01392857   -0.01804034
     atom   19 type  1   force =     0.01647692   -0.01308511   -0.00500034
     atom   20 type  1   force =     0.00208890    0.02409787    0.00635054
     atom   21 type  1   force =     0.03289371   -0.02819862    0.00076418
     atom   22 type  1   force =    -0.00101273   -0.00946516   -0.00357604
     atom   23 type  1   force =    -0.00579053   -0.01528603   -0.00807238
     atom   24 type  1   force =     0.00218175    0.01660422    0.00167053
     atom   25 type  1   force =    -0.04182303   -0.00102600   -0.03513387
     atom   26 type  1   force =     0.04081973    0.02201670   -0.01869022
     atom   27 type  1   force =    -0.02982301    0.00005981   -0.01992800
     atom   28 type  1   force =     0.00537798   -0.01074264   -0.01620166
     atom   29 type  1   force =    -0.02809903   -0.00640599    0.02000978
     atom   30 type  1   force =    -0.00182912    0.01291324   -0.00623158
     atom   31 type  1   force =    -0.03398818    0.00484720    0.02147790
     atom   32 type  1   force =    -0.05554045    0.00769339   -0.02906254
     atom   33 type  1   force =    -0.01830869    0.01501234    0.00938082
     atom   34 type  1   force =    -0.00059624   -0.01384767    0.02027613
     atom   35 type  1   force =     0.04300521    0.10913232    0.04364995
     atom   36 type  1   force =    -0.00334694   -0.01748404    0.00427594
     atom   37 type  1   force =    -0.00852867   -0.00663304    0.01189665
     atom   38 type  1   force =     0.00391909    0.02074583    0.00452717
     atom   39 type  1   force =     0.00279526   -0.02830636   -0.01528045
     atom   40 type  1   force =     0.02293115   -0.00521266    0.01389505
     atom   41 type  1   force =     0.03594670   -0.02623617    0.02031158
     atom   42 type  1   force =     0.06450007   -0.02868473    0.03716608
     atom   43 type  1   force =    -0.06831827    0.01260217   -0.02090011
     atom   44 type  1   force =    -0.01471506   -0.01001585    0.00742047
     atom   45 type  1   force =    -0.04105300   -0.09088065    0.04585535
     atom   46 type  1   force =     0.02274431    0.01047862   -0.03410047
     atom   47 type  1   force =    -0.01216550   -0.00175602   -0.03523327
     atom   48 type  1   force =     0.05731665   -0.01403492    0.04104933
     atom   49 type  1   force =    -0.00442273    0.06639499   -0.09134855
     atom   50 type  1   force =     0.02292626    0.05776687    0.04610891
     atom   51 type  1   force =     0.06771692   -0.00581866    0.02356737
     atom   52 type  1   force =    -0.00678656   -0.00106640    0.00754304
     atom   53 type  1   force =     0.00765653    0.00465963    0.03696870
     atom   54 type  1   force =     0.00744841    0.00828137   -0.00205347
     atom   55 type  1   force =    -0.01578008   -0.00732418   -0.00389904
     atom   56 type  1   force =     0.03927115   -0.06904812    0.06905943
     atom   57 type  1   force =    -0.01834241   -0.02678912   -0.00104793
     atom   58 type  1   force =    -0.03963874    0.03427503   -0.00159224
     atom   59 type  1   force =    -0.01141537    0.00147287    0.02033083
     atom   60 type  1   force =     0.03320129   -0.04432122    0.06290056
     atom   61 type  1   force =     0.02234465    0.00761977   -0.00422251
     atom   62 type  1   force =     0.01330146    0.00710461   -0.02211291
     atom   63 type  1   force =    -0.02954427   -0.00338320    0.01327292
     atom   64 type  1   force =     0.02656613    0.01619926   -0.01050525

     Total force =     0.408965     Total SCF correction =     0.001499


     Computing stress (Cartesian axis) and pressure

          total   stress  (Ry/bohr**3)                   (kbar)     P=      -40.55
  -0.00020571   0.00001431   0.00005988          -30.26        2.10        8.81
   0.00001431  -0.00037356  -0.00005941            2.10      -54.95       -8.74
   0.00005988  -0.00005941  -0.00024763            8.81       -8.74      -36.43

 
     init_run     :      0.92s CPU      4.01s WALL (       1 calls)
     electrons    :      2.41s CPU      2.56s WALL (       1 calls)
     forces       :      0.03s CPU      0.03s WALL (       1 calls)
     stress       :      0.12s CPU      0.12s WALL (       1 calls)

     Called by init_run:
     wfcinit      :      0.42s CPU      3.36s WALL (       1 calls)
                                        3.36s GPU  (       1 calls)
     potinit      :      0.03s CPU      0.11s WALL (       1 calls)
     hinit0       :      0.45s CPU      0.47s WALL (       1 calls)

     Called by electrons:
     c_bands      :      1.77s CPU      1.83s WALL (      23 calls)
     sum_band     :      0.31s CPU      0.36s WALL (      23 calls)
     v_of_rho     :      0.14s CPU      0.23s WALL (      23 calls)
     mix_rho      :      0.16s CPU      0.18s WALL (      23 calls)

     Called by c_bands:
     init_us_2    :      0.06s CPU      0.06s WALL (      47 calls)
     init_us_2:gp :      0.06s CPU      0.06s WALL (      47 calls)
     regterg      :      1.61s CPU      1.67s WALL (      23 calls)

     Called by *egterg:
     rdiaghg      :      0.83s CPU      1.43s WALL (     232 calls)
                                        1.40s GPU  (     232 calls)
     h_psi        :      0.96s CPU      3.34s WALL (     234 calls)
                                        3.34s GPU  (     234 calls)
     g_psi        :      0.00s CPU      0.01s WALL (     210 calls)
                                        0.00s GPU  (     210 calls)

     Called by h_psi:
     h_psi:calbec :      0.42s CPU      2.74s WALL (     234 calls)
                                        2.74s GPU  (     234 calls)
     vloc_psi     :      0.42s CPU      0.48s WALL (     234 calls)
                                        0.48s GPU  (     234 calls)
     add_vuspsi   :      0.09s CPU      0.11s WALL (     234 calls)
                                        0.11s GPU  (     234 calls)

     General routines
     calbec       :      0.42s CPU      2.74s WALL (     239 calls)
     fft          :      0.55s CPU      0.66s WALL (     191 calls)
                                        0.11s GPU  (     121 calls)
     ffts         :      0.03s CPU      0.04s WALL (      23 calls)
     fftw         :      0.48s CPU      0.62s WALL (    2302 calls)
                                        0.55s GPU  (    2302 calls)
 
     Parallel routines
 
     PWSCF        :      3.52s CPU      6.80s WALL

 
   This run was terminated on:  15: 9: 3   9May2023            

=------------------------------------------------------------------------------=
   JOB DONE.
=------------------------------------------------------------------------------=
