An instance of this daemon is already running
An instance of this daemon is already running

     Program PWSCF v.7.1 starts on  9May2023 at 15:16:14 

     This program is part of the open-source Quantum ESPRESSO suite
     for quantum simulation of materials; please cite
         "P. Giannozzi et al., J. Phys.:Condens. Matter 21 395502 (2009);
         "P. Giannozzi et al., J. Phys.:Condens. Matter 29 465901 (2017);
         "P. Giannozzi et al., J. Chem. Phys. 152 154105 (2020);
          URL http://www.quantum-espresso.org", 
     in publications or presentations arising from this work. More details at
     http://www.quantum-espresso.org/quote

     Parallel version (MPI & OpenMP), running on       4 processor cores
     Number of MPI processes:                 4
     Threads/MPI process:                     1

     MPI processes distributed on     1 nodes
     58917 MiB available memory on the printing compute node when the environment starts
 
     Reading input from pw-si-55.in
Warning: card &CELL ignored
Warning: card / ignored

     Current dimensions of program PWSCF are:
     Max number of different atomic species (ntypx) = 10
     Max number of k-points (npk) =  40000
     Max angular momentum in pseudopotentials (lmaxx) =  4

     IMPORTANT: XC functional enforced from input :
     Exchange-correlation= PBE
                           (   1   4   3   4   0   0   0)
     Any further DFT definition will be discarded
     Please, verify this is what you really want


     gamma-point specific algorithms are used
 
     K-points division:     npool     =       2
     R & G space division:  proc/nbgrp/npool/nimage =       2
     Subspace diagonalization in iterative solution of the eigenvalue problem:
     a serial algorithm will be used

     Message from routine divide_et_impera:
     suboptimal parallelization: some nodes have no k-points
 
     Parallelization info
     --------------------
     sticks:   dense  smooth     PW     G-vecs:    dense   smooth      PW
     Min        1929    1929    504                90087    90087   12201
     Max        1932    1932    505                90092    90092   12204
     Sum        3861    3861   1009               180179   180179   24405
 
     Using Slab Decomposition
 


     bravais-lattice index     =            0
     lattice parameter (alat)  =      20.0919  a.u.
     unit-cell volume          =    8110.7856 (a.u.)^3
     number of atoms/cell      =           64
     number of atomic types    =            1
     number of electrons       =       256.00
     number of Kohn-Sham states=          128
     kinetic-energy cutoff     =      30.0000  Ry
     charge density cutoff     =     120.0000  Ry
     scf convergence threshold =      1.0E-06
     mixing beta               =       0.5000
     number of iterations used =            8  plain     mixing
     Exchange-correlation= PBE
                           (   1   4   3   4   0   0   0)

     GPU acceleration is ACTIVE.
     GPU-aware MPI enabled

     Message from routine print_cuda_info:
     High GPU oversubscription detected. Are you sure this is what you want?

     celldm(1)=  20.091898  celldm(2)=   0.000000  celldm(3)=   0.000000
     celldm(4)=   0.000000  celldm(5)=   0.000000  celldm(6)=   0.000000

     crystal axes: (cart. coord. in units of alat)
               a(1) = (   1.000000   0.000000   0.000000 )  
               a(2) = (   0.000000   1.000000   0.000000 )  
               a(3) = (   0.000000   0.000000   1.000000 )  

     reciprocal axes: (cart. coord. in units 2 pi/alat)
               b(1) = (  1.000000  0.000000  0.000000 )  
               b(2) = (  0.000000  1.000000  0.000000 )  
               b(3) = (  0.000000  0.000000  1.000000 )  


     PseudoPot. # 1 for Si read from file:
     /home/ppiaggi/pseudos/Si_ONCV_PBE_sr.upf
     MD5 check sum: 8553c464762ac42b85b1eed164b4d029
     Pseudo is Norm-conserving, Zval =  4.0
     Generated using ONCVPSP code by D. R. Hamann
     Using radial grid of 1510 points,  4 beta functions with: 
                l(1) =   0
                l(2) =   0
                l(3) =   1
                l(4) =   1

     atomic species   valence    mass     pseudopotential
        Si             4.00    28.08500     Si( 1.00)

     No symmetry found



   Cartesian axes

     site n.     atom                  positions (alat units)
         1           Si  tau(   1) = (   0.3504190   0.0558591   0.1722380  )
         2           Si  tau(   2) = (   0.5148650   0.4394920   0.4305740  )
         3           Si  tau(   3) = (   0.7060310   0.3277710   0.3821620  )
         4           Si  tau(   4) = (   0.4060650   0.5712460   0.9203600  )
         5           Si  tau(   5) = (   0.1988920   0.9687470   0.3306320  )
         6           Si  tau(   6) = (   0.9752090   0.2017330   0.8714110  )
         7           Si  tau(   7) = (   0.3875860   0.3527190   0.8360510  )
         8           Si  tau(   8) = (   0.7570830   0.7772870   0.7410760  )
         9           Si  tau(   9) = (   0.9609830   0.6216880   0.7001830  )
        10           Si  tau(  10) = (   0.8983980   0.2014650   0.6137520  )
        11           Si  tau(  11) = (   0.4953650   0.1647060   0.6813380  )
        12           Si  tau(  12) = (   0.1668420   0.2361100   0.3194690  )
        13           Si  tau(  13) = (   0.6053170   0.6644330   0.2854450  )
        14           Si  tau(  14) = (   0.0736176   0.4377520   0.3541880  )
        15           Si  tau(  15) = (   0.2450860   0.5675320   0.2359840  )
        16           Si  tau(  16) = (   0.6819300   0.1729270   0.5290180  )
        17           Si  tau(  17) = (   0.8786030   0.9635680   0.6503260  )
        18           Si  tau(  18) = (   0.0239611   0.7149730   0.4621960  )
        19           Si  tau(  19) = (   0.8303270   0.8603090   0.1557470  )
        20           Si  tau(  20) = (   0.4114230   0.6471640   0.3577540  )
        21           Si  tau(  21) = (   0.1039210   0.8386800   0.8364110  )
        22           Si  tau(  22) = (   0.9233520   0.4390370   0.9214650  )
        23           Si  tau(  23) = (   0.5680710   0.8256080   0.1201020  )
        24           Si  tau(  24) = (   0.5792240   0.0203795   0.2336460  )
        25           Si  tau(  25) = (   0.8759780   0.1111080   0.1509320  )
        26           Si  tau(  26) = (   0.2806010   0.6882440   0.5932990  )
        27           Si  tau(  27) = (   0.7682030   0.3864230   0.7692860  )
        28           Si  tau(  28) = (   0.0307426   0.8498960   0.2888910  )
        29           Si  tau(  29) = (   0.8226480   0.6628560   0.4527580  )
        30           Si  tau(  30) = (   0.2660480   0.9352830   0.9647370  )
        31           Si  tau(  31) = (   0.8712070   0.5696200   0.2472090  )
        32           Si  tau(  32) = (   0.1600200   0.5937780   0.8867180  )
        33           Si  tau(  33) = (   0.5584020   0.4628950   0.6563270  )
        34           Si  tau(  34) = (   0.6303020   0.9864700   0.8914460  )
        35           Si  tau(  35) = (   0.8796810   0.4374310   0.5268990  )
        36           Si  tau(  36) = (   0.1735200   0.3709550   0.0361736  )
        37           Si  tau(  37) = (   0.3246200   0.3272350   0.5710730  )
        38           Si  tau(  38) = (   0.2342310   0.1337170   0.8655030  )
        39           Si  tau(  39) = (   0.9156850   0.6463030   0.0262089  )
        40           Si  tau(  40) = (   0.0788052   0.8860380   0.6137590  )
        41           Si  tau(  41) = (   0.9264280   0.0551713   0.3751000  )
        42           Si  tau(  42) = (   0.6476580   0.4638080   0.1775940  )
        43           Si  tau(  43) = (   0.3541370   0.8741750   0.4938660  )
        44           Si  tau(  44) = (   0.4507280   0.0970889   0.4176880  )
        45           Si  tau(  45) = (   0.4230140   0.4201400   0.1337800  )
        46           Si  tau(  46) = (   0.3821440   0.2983700   0.3182010  )
        47           Si  tau(  47) = (   0.4453700   0.2147890   0.0391784  )
        48           Si  tau(  48) = (   0.3701740   0.7546330   0.0629981  )
        49           Si  tau(  49) = (   0.4969010   0.6705210   0.7229380  )
        50           Si  tau(  50) = (   0.1444900   0.3864990   0.7777220  )
        51           Si  tau(  51) = (   0.6328050   0.5180620   0.9380190  )
        52           Si  tau(  52) = (   0.6579020   0.2243120   0.8845050  )
        53           Si  tau(  53) = (   0.3170840   0.9903600   0.6720670  )
        54           Si  tau(  54) = (   0.7271610   0.9677390   0.4452980  )
        55           Si  tau(  55) = (   0.6506460   0.7653990   0.5596680  )
        56           Si  tau(  56) = (   0.4441550   0.8926220   0.8199720  )
        57           Si  tau(  57) = (   0.8971400   0.9560450   0.9381160  )
        58           Si  tau(  58) = (   0.9307040   0.3570120   0.1696810  )
        59           Si  tau(  59) = (   0.1304270   0.1573180   0.0986310  )
        60           Si  tau(  60) = (   0.1650270   0.4818530   0.5717240  )
        61           Si  tau(  61) = (   0.7094700   0.7237730   0.9411680  )
        62           Si  tau(  62) = (   0.1126920   0.1306370   0.5116140  )
        63           Si  tau(  63) = (   0.1346500   0.7203200   0.1195020  )
        64           Si  tau(  64) = (   0.6680570   0.2188300   0.1461170  )

     number of k points=     1
                       cart. coord. in units 2pi/alat
        k(    1) = (   0.0000000   0.0000000   0.0000000), wk =   2.0000000

     Dense  grid:    90090 G-vectors     FFT dimensions: (  72,  72,  72)

     Estimated max dynamical RAM per process >     132.69 MB

     Estimated total dynamical RAM >     508.77 MB

     Initial potential from superposition of free atoms

     starting charge     255.9608, renormalised to     256.0000
     Starting wfcs are  256 randomized atomic wfcs

     total cpu time spent up to now is        4.0 secs

     Self-consistent Calculation

     iteration #  1     ecut=    30.00 Ry     beta= 0.50
     Davidson diagonalization with overlap
     ethr =  1.00E-02,  avg # of iterations =  2.0

     Threshold (ethr) on eigenvalues was too large:
     Diagonalizing with lowered threshold

     Davidson diagonalization with overlap
     ethr =  4.40E-04,  avg # of iterations =  6.0

     total cpu time spent up to now is        4.2 secs

     total energy              =    -500.96136708 Ry
     estimated scf accuracy    <       1.42940687 Ry

     iteration #  2     ecut=    30.00 Ry     beta= 0.50
     Davidson diagonalization with overlap
     ethr =  5.58E-04,  avg # of iterations = 11.0

     total cpu time spent up to now is        4.3 secs

     total energy              =    -500.18102762 Ry
     estimated scf accuracy    <      11.10339248 Ry

     iteration #  3     ecut=    30.00 Ry     beta= 0.50
     Davidson diagonalization with overlap
     ethr =  5.58E-04,  avg # of iterations = 11.0

     total cpu time spent up to now is        4.5 secs

     total energy              =    -501.16098176 Ry
     estimated scf accuracy    <       1.47123127 Ry

     iteration #  4     ecut=    30.00 Ry     beta= 0.50
     Davidson diagonalization with overlap
     ethr =  5.58E-04,  avg # of iterations =  6.0

     total cpu time spent up to now is        4.6 secs

     total energy              =    -501.30274555 Ry
     estimated scf accuracy    <       0.35692932 Ry

     iteration #  5     ecut=    30.00 Ry     beta= 0.50
     Davidson diagonalization with overlap
     ethr =  1.39E-04,  avg # of iterations = 20.0

     total cpu time spent up to now is        4.7 secs

     total energy              =    -501.33250885 Ry
     estimated scf accuracy    <       0.29856420 Ry

     iteration #  6     ecut=    30.00 Ry     beta= 0.50
     Davidson diagonalization with overlap
     ethr =  1.17E-04,  avg # of iterations =  6.0

     total cpu time spent up to now is        4.8 secs

     total energy              =    -501.36391573 Ry
     estimated scf accuracy    <       0.04764498 Ry

     iteration #  7     ecut=    30.00 Ry     beta= 0.50
     Davidson diagonalization with overlap
     ethr =  1.86E-05,  avg # of iterations =  9.0

     total cpu time spent up to now is        4.9 secs

     total energy              =    -501.36843596 Ry
     estimated scf accuracy    <       0.02355815 Ry

     iteration #  8     ecut=    30.00 Ry     beta= 0.50
     Davidson diagonalization with overlap
     ethr =  9.20E-06,  avg # of iterations = 16.0

     total cpu time spent up to now is        5.1 secs

     total energy              =    -501.36880780 Ry
     estimated scf accuracy    <       0.02285577 Ry

     iteration #  9     ecut=    30.00 Ry     beta= 0.50
     Davidson diagonalization with overlap
     ethr =  8.93E-06,  avg # of iterations = 19.0

     total cpu time spent up to now is        5.3 secs

     total energy              =    -501.37096630 Ry
     estimated scf accuracy    <       0.00239253 Ry

     iteration # 10     ecut=    30.00 Ry     beta= 0.50
     Davidson diagonalization with overlap
     ethr =  9.35E-07,  avg # of iterations = 13.0

     total cpu time spent up to now is        5.4 secs

     total energy              =    -501.37130730 Ry
     estimated scf accuracy    <       0.00441212 Ry

     iteration # 11     ecut=    30.00 Ry     beta= 0.50
     Davidson diagonalization with overlap
     ethr =  9.35E-07,  avg # of iterations = 10.0

     total cpu time spent up to now is        5.5 secs

     total energy              =    -501.37142246 Ry
     estimated scf accuracy    <       0.00260241 Ry

     iteration # 12     ecut=    30.00 Ry     beta= 0.50
     Davidson diagonalization with overlap
     ethr =  9.35E-07,  avg # of iterations =  3.0

     total cpu time spent up to now is        5.6 secs

     total energy              =    -501.37157437 Ry
     estimated scf accuracy    <       0.00040984 Ry

     iteration # 13     ecut=    30.00 Ry     beta= 0.50
     Davidson diagonalization with overlap
     c_bands:  1 eigenvalues not converged
     ethr =  1.60E-07,  avg # of iterations = 20.0

     total cpu time spent up to now is        5.7 secs

     total energy              =    -501.37164443 Ry
     estimated scf accuracy    <       0.00080483 Ry

     iteration # 14     ecut=    30.00 Ry     beta= 0.50
     Davidson diagonalization with overlap
     ethr =  1.60E-07,  avg # of iterations =  8.0

     total cpu time spent up to now is        5.8 secs

     total energy              =    -501.37166028 Ry
     estimated scf accuracy    <       0.00041661 Ry

     iteration # 15     ecut=    30.00 Ry     beta= 0.50
     Davidson diagonalization with overlap
     ethr =  1.60E-07,  avg # of iterations =  2.0

     total cpu time spent up to now is        5.9 secs

     total energy              =    -501.37166195 Ry
     estimated scf accuracy    <       0.00018628 Ry

     iteration # 16     ecut=    30.00 Ry     beta= 0.50
     Davidson diagonalization with overlap
     c_bands:  1 eigenvalues not converged
     ethr =  7.28E-08,  avg # of iterations = 20.0

     total cpu time spent up to now is        6.1 secs

     total energy              =    -501.37167586 Ry
     estimated scf accuracy    <       0.00003291 Ry

     iteration # 17     ecut=    30.00 Ry     beta= 0.50
     Davidson diagonalization with overlap
     c_bands:  1 eigenvalues not converged
     ethr =  1.29E-08,  avg # of iterations = 20.0

     total cpu time spent up to now is        6.2 secs

     total energy              =    -501.37168002 Ry
     estimated scf accuracy    <       0.00004980 Ry

     iteration # 18     ecut=    30.00 Ry     beta= 0.50
     Davidson diagonalization with overlap
     ethr =  1.29E-08,  avg # of iterations =  8.0

     total cpu time spent up to now is        6.3 secs

     total energy              =    -501.37168382 Ry
     estimated scf accuracy    <       0.00002130 Ry

     iteration # 19     ecut=    30.00 Ry     beta= 0.50
     Davidson diagonalization with overlap
     ethr =  8.32E-09,  avg # of iterations =  8.0

     total cpu time spent up to now is        6.4 secs

     total energy              =    -501.37168377 Ry
     estimated scf accuracy    <       0.00001631 Ry

     iteration # 20     ecut=    30.00 Ry     beta= 0.50
     Davidson diagonalization with overlap
     ethr =  6.37E-09,  avg # of iterations =  2.0

     total cpu time spent up to now is        6.5 secs

     total energy              =    -501.37168341 Ry
     estimated scf accuracy    <       0.00000923 Ry

     iteration # 21     ecut=    30.00 Ry     beta= 0.50
     Davidson diagonalization with overlap
     ethr =  3.60E-09,  avg # of iterations =  5.0

     total cpu time spent up to now is        6.6 secs

     total energy              =    -501.37168402 Ry
     estimated scf accuracy    <       0.00000247 Ry

     iteration # 22     ecut=    30.00 Ry     beta= 0.50
     Davidson diagonalization with overlap
     ethr =  9.66E-10,  avg # of iterations = 12.0

     total cpu time spent up to now is        6.7 secs

     total energy              =    -501.37168419 Ry
     estimated scf accuracy    <       0.00000123 Ry

     iteration # 23     ecut=    30.00 Ry     beta= 0.50
     Davidson diagonalization with overlap
     ethr =  4.79E-10,  avg # of iterations = 11.0

     total cpu time spent up to now is        6.8 secs

     total energy              =    -501.37168413 Ry
     estimated scf accuracy    <       0.00000219 Ry

     iteration # 24     ecut=    30.00 Ry     beta= 0.50
     Davidson diagonalization with overlap
     ethr =  4.79E-10,  avg # of iterations =  7.0

     total cpu time spent up to now is        6.9 secs

     End of self-consistent calculation

          k = 0.0000 0.0000 0.0000 ( 11288 PWs)   bands (ev):

    -5.2925  -4.3574  -4.2544  -4.1868  -4.0283  -3.9184  -3.8555  -3.3247
    -3.2705  -3.1631  -3.0706  -2.9906  -2.9262  -2.8268  -2.7679  -2.6794
    -2.6203  -2.5163  -2.4431  -1.9693  -1.9167  -1.8050  -1.6990  -1.5777
    -1.4892  -1.4081  -1.2123  -0.9162  -0.8323  -0.7813  -0.5570  -0.3583
    -0.1274  -0.0687   0.0195   0.0874   0.2003   0.2443   0.3246   0.3855
     0.4698   0.5471   0.6831   0.7503   0.8392   0.9215   0.9976   1.0309
     1.0585   1.2077   1.2229   1.2870   1.4260   1.5659   1.6207   1.6278
     1.7714   1.8852   2.0122   2.0571   2.1457   2.3646   2.3863   2.5118
     2.6500   2.7158   2.8198   2.8302   2.9213   2.9720   2.9772   3.0807
     3.1797   3.2321   3.2719   3.3048   3.4817   3.4974   3.5706   3.6423
     3.7000   4.0817   4.3052   4.3168   4.4804   4.5219   4.5764   4.6696
     4.7531   4.8762   4.9251   5.0762   5.1298   5.1793   5.2851   5.2908
     5.4481   5.4824   5.5437   5.5738   5.6108   5.6424   5.7179   5.7418
     5.8101   5.8670   5.9415   5.9530   6.0133   6.0541   6.1394   6.2062
     6.2273   6.3167   6.3508   6.4484   6.4768   6.5203   6.5772   6.6379
     6.7350   6.8295   6.8712   6.9139   6.9300   7.0337   7.0702   7.1501

     highest occupied level (ev):     7.1501

!    total energy              =    -501.37168369 Ry
     estimated scf accuracy    <       0.00000079 Ry

     The total energy is the sum of the following terms:
     one-electron contribution =     193.86068704 Ry
     hartree contribution      =      21.70221964 Ry
     xc contribution           =    -150.66382259 Ry
     ewald contribution        =    -566.27076778 Ry

     convergence has been achieved in  24 iterations

     Forces acting on atoms (cartesian axes, Ry/au):

     atom    1 type  1   force =     0.00460092   -0.02154272    0.01204905
     atom    2 type  1   force =     0.00109234    0.02086814    0.03129758
     atom    3 type  1   force =     0.00627359    0.03553982   -0.02565940
     atom    4 type  1   force =     0.00720654    0.00611114    0.00968875
     atom    5 type  1   force =     0.07417473    0.03238467    0.05184173
     atom    6 type  1   force =     0.01928655    0.00101833   -0.01555813
     atom    7 type  1   force =    -0.00105411   -0.02969560   -0.02076371
     atom    8 type  1   force =     0.06952808    0.01960639    0.01323437
     atom    9 type  1   force =     0.01451101    0.00493716   -0.00983268
     atom   10 type  1   force =    -0.00175580    0.02126056    0.02567080
     atom   11 type  1   force =    -0.02357992    0.01391511   -0.01937451
     atom   12 type  1   force =     0.00332247    0.01512835   -0.01499358
     atom   13 type  1   force =     0.06736780    0.00828200   -0.01752998
     atom   14 type  1   force =    -0.01594489    0.02364703    0.01613436
     atom   15 type  1   force =     0.00143863   -0.03226424   -0.01522377
     atom   16 type  1   force =    -0.01926151   -0.04123911    0.02443135
     atom   17 type  1   force =    -0.01930665   -0.00310467    0.01487511
     atom   18 type  1   force =     0.06691750    0.01803385    0.03293719
     atom   19 type  1   force =     0.00646281    0.02018118   -0.00307335
     atom   20 type  1   force =    -0.04968615   -0.00969876    0.06461311
     atom   21 type  1   force =    -0.03600256   -0.03607858   -0.00159713
     atom   22 type  1   force =     0.04103340   -0.00621313    0.02541671
     atom   23 type  1   force =     0.05465312    0.02744407   -0.00785673
     atom   24 type  1   force =    -0.02575289   -0.00886571    0.01687360
     atom   25 type  1   force =     0.01542361    0.01464679    0.00457813
     atom   26 type  1   force =     0.01872471   -0.02833089    0.00196876
     atom   27 type  1   force =    -0.02441087    0.00373683   -0.02198288
     atom   28 type  1   force =    -0.04604330   -0.00973737   -0.04100500
     atom   29 type  1   force =    -0.06704764   -0.04590694   -0.00343381
     atom   30 type  1   force =     0.02512445    0.00230566    0.02551595
     atom   31 type  1   force =    -0.01903637   -0.02952748   -0.00369811
     atom   32 type  1   force =    -0.02093462    0.01361072   -0.00636824
     atom   33 type  1   force =    -0.00209679   -0.01035103    0.00086108
     atom   34 type  1   force =     0.02482769    0.00624795    0.03698840
     atom   35 type  1   force =    -0.00113082    0.00396309   -0.02007766
     atom   36 type  1   force =    -0.03163498    0.01640366   -0.00155193
     atom   37 type  1   force =     0.04755824   -0.03902866    0.01136843
     atom   38 type  1   force =    -0.00288768    0.01421165   -0.01138358
     atom   39 type  1   force =     0.00505402   -0.00445026    0.00373365
     atom   40 type  1   force =     0.03211078    0.00163654   -0.00329970
     atom   41 type  1   force =     0.00050723   -0.01414674   -0.00930208
     atom   42 type  1   force =     0.00784172    0.00297937   -0.02715466
     atom   43 type  1   force =    -0.01819664    0.00599571   -0.07724344
     atom   44 type  1   force =     0.01375238   -0.00290787   -0.01384777
     atom   45 type  1   force =    -0.01403029    0.03269679   -0.01689861
     atom   46 type  1   force =    -0.01283216   -0.03951221    0.02670727
     atom   47 type  1   force =     0.03030134    0.02018240   -0.04989020
     atom   48 type  1   force =    -0.02738107   -0.00912704   -0.03166601
     atom   49 type  1   force =    -0.03306844    0.01492860    0.00629324
     atom   50 type  1   force =    -0.00594814    0.00346909    0.01965158
     atom   51 type  1   force =    -0.01098136   -0.00790912    0.02543769
     atom   52 type  1   force =    -0.05269902   -0.03197760    0.02293526
     atom   53 type  1   force =    -0.01101457    0.05953604    0.03630353
     atom   54 type  1   force =    -0.01558930   -0.00061776    0.00163671
     atom   55 type  1   force =    -0.02831414    0.00971919   -0.05189886
     atom   56 type  1   force =     0.01030713   -0.04589865   -0.00706200
     atom   57 type  1   force =    -0.00640378    0.00383443   -0.00878279
     atom   58 type  1   force =     0.03178550   -0.00171746   -0.02342780
     atom   59 type  1   force =    -0.01528998    0.00928564    0.00029844
     atom   60 type  1   force =    -0.02390212    0.04372616   -0.00225223
     atom   61 type  1   force =     0.00755998    0.00380374    0.04928918
     atom   62 type  1   force =    -0.02747821   -0.03545778   -0.01091058
     atom   63 type  1   force =     0.00024028   -0.01236097   -0.00808716
     atom   64 type  1   force =     0.00170824    0.00239047   -0.00994296

     Total force =     0.357452     Total SCF correction =     0.001436


     Computing stress (Cartesian axis) and pressure

          total   stress  (Ry/bohr**3)                   (kbar)     P=      -37.49
  -0.00032468   0.00004157   0.00000489          -47.76        6.11        0.72
   0.00004157  -0.00017620   0.00000083            6.11      -25.92        0.12
   0.00000489   0.00000083  -0.00026377            0.72        0.12      -38.80

 
     init_run     :      0.96s CPU      3.95s WALL (       1 calls)
     electrons    :      2.75s CPU      2.92s WALL (       1 calls)
     forces       :      0.03s CPU      0.03s WALL (       1 calls)
     stress       :      0.12s CPU      0.12s WALL (       1 calls)

     Called by init_run:
     wfcinit      :      0.45s CPU      3.30s WALL (       1 calls)
                                        3.30s GPU  (       1 calls)
     potinit      :      0.04s CPU      0.12s WALL (       1 calls)
     hinit0       :      0.45s CPU      0.48s WALL (       1 calls)

     Called by electrons:
     c_bands      :      2.02s CPU      2.11s WALL (      25 calls)
     sum_band     :      0.35s CPU      0.41s WALL (      25 calls)
     v_of_rho     :      0.16s CPU      0.25s WALL (      25 calls)
     mix_rho      :      0.19s CPU      0.20s WALL (      25 calls)

     Called by c_bands:
     init_us_2    :      0.06s CPU      0.07s WALL (      51 calls)
     init_us_2:gp :      0.06s CPU      0.07s WALL (      51 calls)
     regterg      :      1.84s CPU      1.92s WALL (      25 calls)

     Called by *egterg:
     rdiaghg      :      0.96s CPU      1.57s WALL (     279 calls)
                                        1.53s GPU  (     279 calls)
     h_psi        :      1.04s CPU      3.34s WALL (     281 calls)
                                        3.33s GPU  (     281 calls)
     g_psi        :      0.00s CPU      0.01s WALL (     255 calls)
                                        0.00s GPU  (     255 calls)

     Called by h_psi:
     h_psi:calbec :      0.46s CPU      2.67s WALL (     281 calls)
                                        2.67s GPU  (     281 calls)
     vloc_psi     :      0.44s CPU      0.51s WALL (     281 calls)
                                        0.51s GPU  (     281 calls)
     add_vuspsi   :      0.11s CPU      0.14s WALL (     281 calls)
                                        0.14s GPU  (     281 calls)

     General routines
     calbec       :      0.46s CPU      2.67s WALL (     286 calls)
     fft          :      0.58s CPU      0.69s WALL (     207 calls)
                                        0.11s GPU  (     131 calls)
     ffts         :      0.04s CPU      0.05s WALL (      25 calls)
     fftw         :      0.51s CPU      0.66s WALL (    2546 calls)
                                        0.58s GPU  (    2546 calls)
 
     Parallel routines
 
     PWSCF        :      3.89s CPU      7.10s WALL

 
   This run was terminated on:  15:16:21   9May2023            

=------------------------------------------------------------------------------=
   JOB DONE.
=------------------------------------------------------------------------------=
