An instance of this daemon is already running
An instance of this daemon is already running

     Program PWSCF v.7.1 starts on  9May2023 at 15:13:27 

     This program is part of the open-source Quantum ESPRESSO suite
     for quantum simulation of materials; please cite
         "P. Giannozzi et al., J. Phys.:Condens. Matter 21 395502 (2009);
         "P. Giannozzi et al., J. Phys.:Condens. Matter 29 465901 (2017);
         "P. Giannozzi et al., J. Chem. Phys. 152 154105 (2020);
          URL http://www.quantum-espresso.org", 
     in publications or presentations arising from this work. More details at
     http://www.quantum-espresso.org/quote

     Parallel version (MPI & OpenMP), running on       4 processor cores
     Number of MPI processes:                 4
     Threads/MPI process:                     1

     MPI processes distributed on     1 nodes
     62384 MiB available memory on the printing compute node when the environment starts
 
     Reading input from pw-si-41.in
Warning: card &CELL ignored
Warning: card / ignored

     Current dimensions of program PWSCF are:
     Max number of different atomic species (ntypx) = 10
     Max number of k-points (npk) =  40000
     Max angular momentum in pseudopotentials (lmaxx) =  4

     IMPORTANT: XC functional enforced from input :
     Exchange-correlation= PBE
                           (   1   4   3   4   0   0   0)
     Any further DFT definition will be discarded
     Please, verify this is what you really want


     gamma-point specific algorithms are used
 
     K-points division:     npool     =       2
     R & G space division:  proc/nbgrp/npool/nimage =       2
     Subspace diagonalization in iterative solution of the eigenvalue problem:
     a serial algorithm will be used

     Message from routine divide_et_impera:
     suboptimal parallelization: some nodes have no k-points
 
     Parallelization info
     --------------------
     sticks:   dense  smooth     PW     G-vecs:    dense   smooth      PW
     Min        1954    1954    520                92054    92054   12584
     Max        1955    1955    521                92061    92061   12589
     Sum        3909    3909   1041               184115   184115   25173
 
     Using Slab Decomposition
 


     bravais-lattice index     =            0
     lattice parameter (alat)  =      20.2427  a.u.
     unit-cell volume          =    8294.7593 (a.u.)^3
     number of atoms/cell      =           64
     number of atomic types    =            1
     number of electrons       =       256.00
     number of Kohn-Sham states=          128
     kinetic-energy cutoff     =      30.0000  Ry
     charge density cutoff     =     120.0000  Ry
     scf convergence threshold =      1.0E-06
     mixing beta               =       0.5000
     number of iterations used =            8  plain     mixing
     Exchange-correlation= PBE
                           (   1   4   3   4   0   0   0)

     GPU acceleration is ACTIVE.
     GPU-aware MPI enabled

     Message from routine print_cuda_info:
     High GPU oversubscription detected. Are you sure this is what you want?

     celldm(1)=  20.242676  celldm(2)=   0.000000  celldm(3)=   0.000000
     celldm(4)=   0.000000  celldm(5)=   0.000000  celldm(6)=   0.000000

     crystal axes: (cart. coord. in units of alat)
               a(1) = (   1.000000   0.000000   0.000000 )  
               a(2) = (   0.000000   1.000000   0.000000 )  
               a(3) = (   0.000000   0.000000   1.000000 )  

     reciprocal axes: (cart. coord. in units 2 pi/alat)
               b(1) = (  1.000000  0.000000  0.000000 )  
               b(2) = (  0.000000  1.000000  0.000000 )  
               b(3) = (  0.000000  0.000000  1.000000 )  


     PseudoPot. # 1 for Si read from file:
     /home/ppiaggi/pseudos/Si_ONCV_PBE_sr.upf
     MD5 check sum: 8553c464762ac42b85b1eed164b4d029
     Pseudo is Norm-conserving, Zval =  4.0
     Generated using ONCVPSP code by D. R. Hamann
     Using radial grid of 1510 points,  4 beta functions with: 
                l(1) =   0
                l(2) =   0
                l(3) =   1
                l(4) =   1

     atomic species   valence    mass     pseudopotential
        Si             4.00    28.08500     Si( 1.00)

     No symmetry found



   Cartesian axes

     site n.     atom                  positions (alat units)
         1           Si  tau(   1) = (   0.3543130   0.5592830   0.5766670  )
         2           Si  tau(   2) = (   0.5628510   0.2550770   0.7668810  )
         3           Si  tau(   3) = (   0.1166120   0.8622690   0.9622610  )
         4           Si  tau(   4) = (   0.6858620   0.3053010   0.0115075  )
         5           Si  tau(   5) = (   0.0373819   0.4092760   0.0362997  )
         6           Si  tau(   6) = (   0.9443660   0.3365080   0.8188890  )
         7           Si  tau(   7) = (   0.5095010   0.2585400   0.5368120  )
         8           Si  tau(   8) = (   0.5858270   0.6024510   0.7021960  )
         9           Si  tau(   9) = (   0.7396560   0.3289400   0.2606340  )
        10           Si  tau(  10) = (   0.7940440   0.5999480   0.2681970  )
        11           Si  tau(  11) = (   0.1410200   0.2764650   0.7049840  )
        12           Si  tau(  12) = (   0.2335890   0.3162260   0.1336510  )
        13           Si  tau(  13) = (   0.2642540   0.1108180   0.8445000  )
        14           Si  tau(  14) = (   0.7534960   0.4336230   0.7691990  )
        15           Si  tau(  15) = (   0.3519730   0.0837976   0.6244540  )
        16           Si  tau(  16) = (   0.9523200   0.2947400   0.2391230  )
        17           Si  tau(  17) = (   0.9733640   0.0743977   0.7444920  )
        18           Si  tau(  18) = (   0.6278280   0.8286040   0.4660670  )
        19           Si  tau(  19) = (   0.1894770   0.1085520   0.0675289  )
        20           Si  tau(  20) = (   0.7799960   0.8877110   0.1311900  )
        21           Si  tau(  21) = (   0.5169580   0.5133040   0.1775000  )
        22           Si  tau(  22) = (   0.9228470   0.6650030   0.9409680  )
        23           Si  tau(  23) = (   0.9945150   0.0772718   0.2001440  )
        24           Si  tau(  24) = (   0.2281620   0.7995730   0.2615450  )
        25           Si  tau(  25) = (   0.1560230   0.7129890   0.6720100  )
        26           Si  tau(  26) = (   0.2977090   0.5755960   0.1902370  )
        27           Si  tau(  27) = (   0.4255290   0.7842390   0.5881450  )
        28           Si  tau(  28) = (   0.8581700   0.1552720   0.9528010  )
        29           Si  tau(  29) = (   0.8743020   0.5266110   0.5984470  )
        30           Si  tau(  30) = (   0.8336120   0.4878770   0.0719978  )
        31           Si  tau(  31) = (   0.9913450   0.8348980   0.1708770  )
        32           Si  tau(  32) = (   0.5034720   0.1582750   0.1429490  )
        33           Si  tau(  33) = (   0.2450990   0.9063550   0.4977090  )
        34           Si  tau(  34) = (   0.6573360   0.0675298   0.3973850  )
        35           Si  tau(  35) = (   0.9930250   0.6621240   0.3553190  )
        36           Si  tau(  36) = (   0.1352660   0.9152760   0.7619620  )
        37           Si  tau(  37) = (   0.1873730   0.5457430   0.3948740  )
        38           Si  tau(  38) = (   0.7776090   0.8975500   0.6093870  )
        39           Si  tau(  39) = (   0.0473856   0.5599580   0.7671510  )
        40           Si  tau(  40) = (   0.5380350   0.9168450   0.7949200  )
        41           Si  tau(  41) = (   0.4191000   0.3407190   0.9851990  )
        42           Si  tau(  42) = (   0.1489730   0.2345170   0.4784080  )
        43           Si  tau(  43) = (   0.4555490   0.0917935   0.9183010  )
        44           Si  tau(  44) = (   0.3251620   0.9680330   0.1775410  )
        45           Si  tau(  45) = (   0.4721770   0.4683430   0.4200740  )
        46           Si  tau(  46) = (   0.0437682   0.0181530   0.4226810  )
        47           Si  tau(  47) = (   0.3186650   0.3166060   0.3471500  )
        48           Si  tau(  48) = (   0.7383110   0.3090000   0.4998120  )
        49           Si  tau(  49) = (   0.3923130   0.5430500   0.8785760  )
        50           Si  tau(  50) = (   0.3405640   0.3894450   0.6992460  )
        51           Si  tau(  51) = (   0.4197110   0.7732220   0.0676029  )
        52           Si  tau(  52) = (   0.7847690   0.7267640   0.7259290  )
        53           Si  tau(  53) = (   0.3599980   0.7841490   0.8391040  )
        54           Si  tau(  54) = (   0.7130030   0.0596962   0.7735990  )
        55           Si  tau(  55) = (   0.8624810   0.1132890   0.5191750  )
        56           Si  tau(  56) = (   0.9795590   0.7908010   0.5366930  )
        57           Si  tau(  57) = (   0.6078740   0.7264130   0.2360980  )
        58           Si  tau(  58) = (   0.7155030   0.0846450   0.1532390  )
        59           Si  tau(  59) = (   0.4136300   0.0879749   0.3623160  )
        60           Si  tau(  60) = (   0.0058932   0.4010640   0.4251270  )
        61           Si  tau(  61) = (   0.6673490   0.5531820   0.4432820  )
        62           Si  tau(  62) = (   0.5971810   0.5920500   0.9652290  )
        63           Si  tau(  63) = (   0.6966190   0.7856010   0.9411560  )
        64           Si  tau(  64) = (   0.1725740   0.6055870   0.9904930  )

     number of k points=     1
                       cart. coord. in units 2pi/alat
        k(    1) = (   0.0000000   0.0000000   0.0000000), wk =   2.0000000

     Dense  grid:    92058 G-vectors     FFT dimensions: (  72,  72,  72)

     Estimated max dynamical RAM per process >     135.35 MB

     Estimated total dynamical RAM >     518.93 MB

     Initial potential from superposition of free atoms

     starting charge     255.9608, renormalised to     256.0000
     Starting wfcs are  256 randomized atomic wfcs

     total cpu time spent up to now is        4.2 secs

     Self-consistent Calculation

     iteration #  1     ecut=    30.00 Ry     beta= 0.50
     Davidson diagonalization with overlap
     ethr =  1.00E-02,  avg # of iterations =  2.0

     Threshold (ethr) on eigenvalues was too large:
     Diagonalizing with lowered threshold

     Davidson diagonalization with overlap
     ethr =  3.57E-04,  avg # of iterations =  6.0

     total cpu time spent up to now is        4.4 secs

     total energy              =    -501.25772406 Ry
     estimated scf accuracy    <       1.12831841 Ry

     iteration #  2     ecut=    30.00 Ry     beta= 0.50
     Davidson diagonalization with overlap
     ethr =  4.41E-04,  avg # of iterations = 15.0

     total cpu time spent up to now is        4.5 secs

     total energy              =    -501.11308755 Ry
     estimated scf accuracy    <       1.73390736 Ry

     iteration #  3     ecut=    30.00 Ry     beta= 0.50
     Davidson diagonalization with overlap
     ethr =  4.41E-04,  avg # of iterations = 11.0

     total cpu time spent up to now is        4.7 secs

     total energy              =    -501.28869019 Ry
     estimated scf accuracy    <       1.53963381 Ry

     iteration #  4     ecut=    30.00 Ry     beta= 0.50
     Davidson diagonalization with overlap
     ethr =  4.41E-04,  avg # of iterations =  4.0

     total cpu time spent up to now is        4.8 secs

     total energy              =    -501.41666977 Ry
     estimated scf accuracy    <       0.23813314 Ry

     iteration #  5     ecut=    30.00 Ry     beta= 0.50
     Davidson diagonalization with overlap
     ethr =  9.30E-05,  avg # of iterations =  9.0

     total cpu time spent up to now is        4.9 secs

     total energy              =    -501.44730863 Ry
     estimated scf accuracy    <       0.07787346 Ry

     iteration #  6     ecut=    30.00 Ry     beta= 0.50
     Davidson diagonalization with overlap
     c_bands:  1 eigenvalues not converged
     ethr =  3.04E-05,  avg # of iterations = 20.0

     total cpu time spent up to now is        5.0 secs

     total energy              =    -501.45055833 Ry
     estimated scf accuracy    <       0.16949859 Ry

     iteration #  7     ecut=    30.00 Ry     beta= 0.50
     Davidson diagonalization with overlap
     ethr =  3.04E-05,  avg # of iterations = 13.0

     total cpu time spent up to now is        5.2 secs

     total energy              =    -501.45964262 Ry
     estimated scf accuracy    <       0.02305195 Ry

     iteration #  8     ecut=    30.00 Ry     beta= 0.50
     Davidson diagonalization with overlap
     ethr =  9.00E-06,  avg # of iterations =  8.0

     total cpu time spent up to now is        5.3 secs

     total energy              =    -501.46216799 Ry
     estimated scf accuracy    <       0.00929171 Ry

     iteration #  9     ecut=    30.00 Ry     beta= 0.50
     Davidson diagonalization with overlap
     c_bands:  1 eigenvalues not converged
     ethr =  3.63E-06,  avg # of iterations = 20.0

     total cpu time spent up to now is        5.4 secs

     total energy              =    -501.46282905 Ry
     estimated scf accuracy    <       0.01159695 Ry

     iteration # 10     ecut=    30.00 Ry     beta= 0.50
     Davidson diagonalization with overlap
     ethr =  3.63E-06,  avg # of iterations = 15.0

     total cpu time spent up to now is        5.6 secs

     total energy              =    -501.46314351 Ry
     estimated scf accuracy    <       0.00452118 Ry

     iteration # 11     ecut=    30.00 Ry     beta= 0.50
     Davidson diagonalization with overlap
     c_bands:  1 eigenvalues not converged
     ethr =  1.77E-06,  avg # of iterations = 20.0

     total cpu time spent up to now is        5.7 secs

     total energy              =    -501.46327125 Ry
     estimated scf accuracy    <       0.00192947 Ry

     iteration # 12     ecut=    30.00 Ry     beta= 0.50
     Davidson diagonalization with overlap
     c_bands:  1 eigenvalues not converged
     ethr =  7.54E-07,  avg # of iterations = 20.0

     total cpu time spent up to now is        5.9 secs

     total energy              =    -501.46351353 Ry
     estimated scf accuracy    <       0.00053218 Ry

     iteration # 13     ecut=    30.00 Ry     beta= 0.50
     Davidson diagonalization with overlap
     c_bands:  1 eigenvalues not converged
     ethr =  2.08E-07,  avg # of iterations = 20.0

     total cpu time spent up to now is        6.1 secs

     total energy              =    -501.46356164 Ry
     estimated scf accuracy    <       0.00167994 Ry

     iteration # 14     ecut=    30.00 Ry     beta= 0.50
     Davidson diagonalization with overlap
     ethr =  2.08E-07,  avg # of iterations =  8.0

     total cpu time spent up to now is        6.2 secs

     total energy              =    -501.46354563 Ry
     estimated scf accuracy    <       0.00088270 Ry

     iteration # 15     ecut=    30.00 Ry     beta= 0.50
     Davidson diagonalization with overlap
     ethr =  2.08E-07,  avg # of iterations =  2.0

     total cpu time spent up to now is        6.2 secs

     total energy              =    -501.46352974 Ry
     estimated scf accuracy    <       0.00052074 Ry

     iteration # 16     ecut=    30.00 Ry     beta= 0.50
     Davidson diagonalization with overlap
     c_bands:  1 eigenvalues not converged
     ethr =  2.03E-07,  avg # of iterations = 20.0

     total cpu time spent up to now is        6.4 secs

     total energy              =    -501.46356950 Ry
     estimated scf accuracy    <       0.00084755 Ry

     iteration # 17     ecut=    30.00 Ry     beta= 0.50
     Davidson diagonalization with overlap
     ethr =  2.03E-07,  avg # of iterations = 13.0

     total cpu time spent up to now is        6.5 secs

     total energy              =    -501.46357557 Ry
     estimated scf accuracy    <       0.00055777 Ry

     iteration # 18     ecut=    30.00 Ry     beta= 0.50
     Davidson diagonalization with overlap
     ethr =  2.03E-07,  avg # of iterations =  1.0

     total cpu time spent up to now is        6.6 secs

     total energy              =    -501.46355578 Ry
     estimated scf accuracy    <       0.00046507 Ry

     iteration # 19     ecut=    30.00 Ry     beta= 0.50
     Davidson diagonalization with overlap
     ethr =  1.82E-07,  avg # of iterations =  2.0

     total cpu time spent up to now is        6.6 secs

     total energy              =    -501.46354065 Ry
     estimated scf accuracy    <       0.00034559 Ry

     iteration # 20     ecut=    30.00 Ry     beta= 0.50
     Davidson diagonalization with overlap
     c_bands:  1 eigenvalues not converged
     ethr =  1.35E-07,  avg # of iterations = 20.0

     total cpu time spent up to now is        6.8 secs

     total energy              =    -501.46362168 Ry
     estimated scf accuracy    <       0.00091016 Ry

     iteration # 21     ecut=    30.00 Ry     beta= 0.50
     Davidson diagonalization with overlap
     ethr =  1.35E-07,  avg # of iterations = 14.0

     total cpu time spent up to now is        6.9 secs

     total energy              =    -501.46363335 Ry
     estimated scf accuracy    <       0.00086958 Ry

     iteration # 22     ecut=    30.00 Ry     beta= 0.50
     Davidson diagonalization with overlap
     ethr =  1.35E-07,  avg # of iterations =  1.0

     total cpu time spent up to now is        7.0 secs

     total energy              =    -501.46361970 Ry
     estimated scf accuracy    <       0.00087685 Ry

     iteration # 23     ecut=    30.00 Ry     beta= 0.50
     Davidson diagonalization with overlap
     ethr =  1.35E-07,  avg # of iterations =  1.0

     total cpu time spent up to now is        7.0 secs

     total energy              =    -501.46360269 Ry
     estimated scf accuracy    <       0.00082506 Ry

     iteration # 24     ecut=    30.00 Ry     beta= 0.50
     Davidson diagonalization with overlap
     ethr =  1.35E-07,  avg # of iterations =  1.0

     total cpu time spent up to now is        7.1 secs

     total energy              =    -501.46358501 Ry
     estimated scf accuracy    <       0.00073155 Ry

     iteration # 25     ecut=    30.00 Ry     beta= 0.50
     Davidson diagonalization with overlap
     ethr =  1.35E-07,  avg # of iterations =  1.0

     total cpu time spent up to now is        7.2 secs

     total energy              =    -501.46358923 Ry
     estimated scf accuracy    <       0.00062883 Ry

     iteration # 26     ecut=    30.00 Ry     beta= 0.50
     Davidson diagonalization with overlap
     ethr =  1.35E-07,  avg # of iterations =  1.0

     total cpu time spent up to now is        7.3 secs

     total energy              =    -501.46357524 Ry
     estimated scf accuracy    <       0.00061824 Ry

     iteration # 27     ecut=    30.00 Ry     beta= 0.50
     Davidson diagonalization with overlap
     ethr =  1.35E-07,  avg # of iterations =  1.0

     total cpu time spent up to now is        7.3 secs

     total energy              =    -501.46357646 Ry
     estimated scf accuracy    <       0.00054026 Ry

     iteration # 28     ecut=    30.00 Ry     beta= 0.50
     Davidson diagonalization with overlap
     ethr =  1.35E-07,  avg # of iterations =  1.0

     total cpu time spent up to now is        7.4 secs

     total energy              =    -501.46345720 Ry
     estimated scf accuracy    <       0.00052308 Ry

     iteration # 29     ecut=    30.00 Ry     beta= 0.50
     Davidson diagonalization with overlap
     c_bands:  1 eigenvalues not converged
     ethr =  1.35E-07,  avg # of iterations = 20.0

     total cpu time spent up to now is        7.6 secs

     total energy              =    -501.46350910 Ry
     estimated scf accuracy    <       0.00648694 Ry

     iteration # 30     ecut=    30.00 Ry     beta= 0.50
     Davidson diagonalization with overlap
     c_bands:  1 eigenvalues not converged
     ethr =  1.35E-07,  avg # of iterations = 20.0

     total cpu time spent up to now is        7.7 secs

     total energy              =    -501.46356885 Ry
     estimated scf accuracy    <       0.00261182 Ry

     iteration # 31     ecut=    30.00 Ry     beta= 0.50
     Davidson diagonalization with overlap
     c_bands:  1 eigenvalues not converged
     ethr =  1.35E-07,  avg # of iterations = 20.0

     total cpu time spent up to now is        7.9 secs

     total energy              =    -501.46356467 Ry
     estimated scf accuracy    <       0.00161326 Ry

     iteration # 32     ecut=    30.00 Ry     beta= 0.50
     Davidson diagonalization with overlap
     c_bands:  1 eigenvalues not converged
     ethr =  1.35E-07,  avg # of iterations = 20.0

     total cpu time spent up to now is        8.0 secs

     total energy              =    -501.46357950 Ry
     estimated scf accuracy    <       0.00057506 Ry

     iteration # 33     ecut=    30.00 Ry     beta= 0.50
     Davidson diagonalization with overlap
     ethr =  1.35E-07,  avg # of iterations = 13.0

     total cpu time spent up to now is        8.2 secs

     total energy              =    -501.46358733 Ry
     estimated scf accuracy    <       0.00041674 Ry

     iteration # 34     ecut=    30.00 Ry     beta= 0.50
     Davidson diagonalization with overlap
     ethr =  1.35E-07,  avg # of iterations =  1.0

     total cpu time spent up to now is        8.2 secs

     total energy              =    -501.46358070 Ry
     estimated scf accuracy    <       0.00037431 Ry

     iteration # 35     ecut=    30.00 Ry     beta= 0.50
     Davidson diagonalization with overlap
     ethr =  1.35E-07,  avg # of iterations =  1.0

     total cpu time spent up to now is        8.3 secs

     total energy              =    -501.46358249 Ry
     estimated scf accuracy    <       0.00031300 Ry

     iteration # 36     ecut=    30.00 Ry     beta= 0.50
     Davidson diagonalization with overlap
     ethr =  1.22E-07,  avg # of iterations =  2.0

     total cpu time spent up to now is        8.4 secs

     total energy              =    -501.46358190 Ry
     estimated scf accuracy    <       0.00028519 Ry

     iteration # 37     ecut=    30.00 Ry     beta= 0.50
     Davidson diagonalization with overlap
     ethr =  1.11E-07,  avg # of iterations =  1.0

     total cpu time spent up to now is        8.4 secs

     total energy              =    -501.46355464 Ry
     estimated scf accuracy    <       0.00026567 Ry

     iteration # 38     ecut=    30.00 Ry     beta= 0.50
     Davidson diagonalization with overlap
     c_bands:  1 eigenvalues not converged
     ethr =  1.04E-07,  avg # of iterations = 20.0

     total cpu time spent up to now is        8.6 secs

     total energy              =    -501.46360415 Ry
     estimated scf accuracy    <       0.00105410 Ry

     iteration # 39     ecut=    30.00 Ry     beta= 0.50
     Davidson diagonalization with overlap
     ethr =  1.04E-07,  avg # of iterations = 17.0

     total cpu time spent up to now is        8.7 secs

     total energy              =    -501.46361715 Ry
     estimated scf accuracy    <       0.00083713 Ry

     iteration # 40     ecut=    30.00 Ry     beta= 0.50
     Davidson diagonalization with overlap
     ethr =  1.04E-07,  avg # of iterations =  1.0

     total cpu time spent up to now is        8.8 secs

     total energy              =    -501.46359880 Ry
     estimated scf accuracy    <       0.00081970 Ry

     iteration # 41     ecut=    30.00 Ry     beta= 0.50
     Davidson diagonalization with overlap
     ethr =  1.04E-07,  avg # of iterations =  1.0

     total cpu time spent up to now is        8.9 secs

     total energy              =    -501.46359235 Ry
     estimated scf accuracy    <       0.00074103 Ry

     iteration # 42     ecut=    30.00 Ry     beta= 0.50
     Davidson diagonalization with overlap
     ethr =  1.04E-07,  avg # of iterations =  1.0

     total cpu time spent up to now is        8.9 secs

     total energy              =    -501.46358637 Ry
     estimated scf accuracy    <       0.00069109 Ry

     iteration # 43     ecut=    30.00 Ry     beta= 0.50
     Davidson diagonalization with overlap
     ethr =  1.04E-07,  avg # of iterations =  1.0

     total cpu time spent up to now is        9.0 secs

     total energy              =    -501.46357611 Ry
     estimated scf accuracy    <       0.00064464 Ry

     iteration # 44     ecut=    30.00 Ry     beta= 0.50
     Davidson diagonalization with overlap
     ethr =  1.04E-07,  avg # of iterations =  1.0

     total cpu time spent up to now is        9.1 secs

     total energy              =    -501.46357828 Ry
     estimated scf accuracy    <       0.00057160 Ry

     iteration # 45     ecut=    30.00 Ry     beta= 0.50
     Davidson diagonalization with overlap
     ethr =  1.04E-07,  avg # of iterations =  1.0

     total cpu time spent up to now is        9.1 secs

     total energy              =    -501.46358061 Ry
     estimated scf accuracy    <       0.00055917 Ry

     iteration # 46     ecut=    30.00 Ry     beta= 0.50
     Davidson diagonalization with overlap
     ethr =  1.04E-07,  avg # of iterations =  1.0

     total cpu time spent up to now is        9.2 secs

     total energy              =    -501.46347563 Ry
     estimated scf accuracy    <       0.00055009 Ry

     iteration # 47     ecut=    30.00 Ry     beta= 0.50
     Davidson diagonalization with overlap
     c_bands:  1 eigenvalues not converged
     ethr =  1.04E-07,  avg # of iterations = 20.0

     total cpu time spent up to now is        9.4 secs

     total energy              =    -501.46364834 Ry
     estimated scf accuracy    <       0.00446092 Ry

     iteration # 48     ecut=    30.00 Ry     beta= 0.50
     Davidson diagonalization with overlap
     c_bands:  1 eigenvalues not converged
     ethr =  1.04E-07,  avg # of iterations = 20.0

     total cpu time spent up to now is        9.6 secs

     total energy              =    -501.46359556 Ry
     estimated scf accuracy    <       0.00332173 Ry

     iteration # 49     ecut=    30.00 Ry     beta= 0.50
     Davidson diagonalization with overlap
     c_bands:  1 eigenvalues not converged
     ethr =  1.04E-07,  avg # of iterations = 20.0

     total cpu time spent up to now is        9.7 secs

     total energy              =    -501.46357459 Ry
     estimated scf accuracy    <       0.00125357 Ry

     iteration # 50     ecut=    30.00 Ry     beta= 0.50
     Davidson diagonalization with overlap
     c_bands:  1 eigenvalues not converged
     ethr =  1.04E-07,  avg # of iterations = 20.0

     total cpu time spent up to now is        9.9 secs

     total energy              =    -501.46358484 Ry
     estimated scf accuracy    <       0.00062790 Ry

     iteration # 51     ecut=    30.00 Ry     beta= 0.50
     Davidson diagonalization with overlap
     ethr =  1.04E-07,  avg # of iterations =  2.0

     total cpu time spent up to now is        9.9 secs

     total energy              =    -501.46358448 Ry
     estimated scf accuracy    <       0.00056905 Ry

     iteration # 52     ecut=    30.00 Ry     beta= 0.50
     Davidson diagonalization with overlap
     ethr =  1.04E-07,  avg # of iterations =  1.0

     total cpu time spent up to now is       10.0 secs

     total energy              =    -501.46358722 Ry
     estimated scf accuracy    <       0.00053291 Ry

     iteration # 53     ecut=    30.00 Ry     beta= 0.50
     Davidson diagonalization with overlap
     ethr =  1.04E-07,  avg # of iterations =  1.0

     total cpu time spent up to now is       10.1 secs

     total energy              =    -501.46358840 Ry
     estimated scf accuracy    <       0.00052152 Ry

     iteration # 54     ecut=    30.00 Ry     beta= 0.50
     Davidson diagonalization with overlap
     ethr =  1.04E-07,  avg # of iterations =  1.0

     total cpu time spent up to now is       10.1 secs

     total energy              =    -501.46358822 Ry
     estimated scf accuracy    <       0.00050721 Ry

     iteration # 55     ecut=    30.00 Ry     beta= 0.50
     Davidson diagonalization with overlap
     ethr =  1.04E-07,  avg # of iterations =  1.0

     total cpu time spent up to now is       10.2 secs

     total energy              =    -501.46354803 Ry
     estimated scf accuracy    <       0.00049664 Ry

     iteration # 56     ecut=    30.00 Ry     beta= 0.50
     Davidson diagonalization with overlap
     c_bands:  1 eigenvalues not converged
     ethr =  1.04E-07,  avg # of iterations = 20.0

     total cpu time spent up to now is       10.4 secs

     total energy              =    -501.46359413 Ry
     estimated scf accuracy    <       0.00029173 Ry

     iteration # 57     ecut=    30.00 Ry     beta= 0.50
     Davidson diagonalization with overlap
     c_bands:  1 eigenvalues not converged
     ethr =  1.04E-07,  avg # of iterations = 20.0

     total cpu time spent up to now is       10.5 secs

     total energy              =    -501.46361163 Ry
     estimated scf accuracy    <       0.00022839 Ry

     iteration # 58     ecut=    30.00 Ry     beta= 0.50
     Davidson diagonalization with overlap
     c_bands:  1 eigenvalues not converged
     ethr =  8.92E-08,  avg # of iterations = 20.0

     total cpu time spent up to now is       10.7 secs

     total energy              =    -501.46361627 Ry
     estimated scf accuracy    <       0.00068050 Ry

     iteration # 59     ecut=    30.00 Ry     beta= 0.50
     Davidson diagonalization with overlap
     ethr =  8.92E-08,  avg # of iterations = 13.0

     total cpu time spent up to now is       10.8 secs

     total energy              =    -501.46360789 Ry
     estimated scf accuracy    <       0.00061112 Ry

     iteration # 60     ecut=    30.00 Ry     beta= 0.50
     Davidson diagonalization with overlap
     ethr =  8.92E-08,  avg # of iterations =  1.0

     total cpu time spent up to now is       10.9 secs

     total energy              =    -501.46360344 Ry
     estimated scf accuracy    <       0.00050044 Ry

     iteration # 61     ecut=    30.00 Ry     beta= 0.50
     Davidson diagonalization with overlap
     ethr =  8.92E-08,  avg # of iterations =  1.0

     total cpu time spent up to now is       10.9 secs

     total energy              =    -501.46359141 Ry
     estimated scf accuracy    <       0.00044330 Ry

     iteration # 62     ecut=    30.00 Ry     beta= 0.50
     Davidson diagonalization with overlap
     ethr =  8.92E-08,  avg # of iterations =  2.0

     total cpu time spent up to now is       11.0 secs

     total energy              =    -501.46358873 Ry
     estimated scf accuracy    <       0.00034624 Ry

     iteration # 63     ecut=    30.00 Ry     beta= 0.50
     Davidson diagonalization with overlap
     ethr =  8.92E-08,  avg # of iterations =  1.0

     total cpu time spent up to now is       11.1 secs

     total energy              =    -501.46358590 Ry
     estimated scf accuracy    <       0.00030739 Ry

     iteration # 64     ecut=    30.00 Ry     beta= 0.50
     Davidson diagonalization with overlap
     ethr =  8.92E-08,  avg # of iterations =  1.0

     total cpu time spent up to now is       11.1 secs

     total energy              =    -501.46352551 Ry
     estimated scf accuracy    <       0.00026666 Ry

     iteration # 65     ecut=    30.00 Ry     beta= 0.50
     Davidson diagonalization with overlap
     c_bands:  1 eigenvalues not converged
     ethr =  8.92E-08,  avg # of iterations = 20.0

     total cpu time spent up to now is       11.3 secs

     total energy              =    -501.46362169 Ry
     estimated scf accuracy    <       0.00443080 Ry

     iteration # 66     ecut=    30.00 Ry     beta= 0.50
     Davidson diagonalization with overlap
     c_bands:  1 eigenvalues not converged
     ethr =  8.92E-08,  avg # of iterations = 20.0

     total cpu time spent up to now is       11.5 secs

     total energy              =    -501.46355623 Ry
     estimated scf accuracy    <       0.00308544 Ry

     iteration # 67     ecut=    30.00 Ry     beta= 0.50
     Davidson diagonalization with overlap
     c_bands:  1 eigenvalues not converged
     ethr =  8.92E-08,  avg # of iterations = 20.0

     total cpu time spent up to now is       11.6 secs

     total energy              =    -501.46359257 Ry
     estimated scf accuracy    <       0.00090848 Ry

     iteration # 68     ecut=    30.00 Ry     beta= 0.50
     Davidson diagonalization with overlap
     ethr =  8.92E-08,  avg # of iterations = 13.0

     total cpu time spent up to now is       11.7 secs

     total energy              =    -501.46359700 Ry
     estimated scf accuracy    <       0.00069356 Ry

     iteration # 69     ecut=    30.00 Ry     beta= 0.50
     Davidson diagonalization with overlap
     ethr =  8.92E-08,  avg # of iterations =  1.0

     total cpu time spent up to now is       11.8 secs

     total energy              =    -501.46358368 Ry
     estimated scf accuracy    <       0.00063843 Ry

     iteration # 70     ecut=    30.00 Ry     beta= 0.50
     Davidson diagonalization with overlap
     ethr =  8.92E-08,  avg # of iterations =  1.0

     total cpu time spent up to now is       11.9 secs

     total energy              =    -501.46358390 Ry
     estimated scf accuracy    <       0.00055248 Ry

     iteration # 71     ecut=    30.00 Ry     beta= 0.50
     Davidson diagonalization with overlap
     ethr =  8.92E-08,  avg # of iterations =  1.0

     total cpu time spent up to now is       11.9 secs

     total energy              =    -501.46359140 Ry
     estimated scf accuracy    <       0.00053185 Ry

     iteration # 72     ecut=    30.00 Ry     beta= 0.50
     Davidson diagonalization with overlap
     ethr =  8.92E-08,  avg # of iterations =  1.0

     total cpu time spent up to now is       12.0 secs

     total energy              =    -501.46360553 Ry
     estimated scf accuracy    <       0.00053561 Ry

     iteration # 73     ecut=    30.00 Ry     beta= 0.50
     Davidson diagonalization with overlap
     ethr =  8.92E-08,  avg # of iterations =  1.0

     total cpu time spent up to now is       12.1 secs

     total energy              =    -501.46348610 Ry
     estimated scf accuracy    <       0.00058840 Ry

     iteration # 74     ecut=    30.00 Ry     beta= 0.50
     Davidson diagonalization with overlap
     c_bands:  1 eigenvalues not converged
     ethr =  8.92E-08,  avg # of iterations = 20.0

     total cpu time spent up to now is       12.2 secs

     total energy              =    -501.46362537 Ry
     estimated scf accuracy    <       0.00142275 Ry

     iteration # 75     ecut=    30.00 Ry     beta= 0.50
     Davidson diagonalization with overlap
     c_bands:  1 eigenvalues not converged
     ethr =  8.92E-08,  avg # of iterations = 20.0

     total cpu time spent up to now is       12.4 secs

     total energy              =    -501.46349595 Ry
     estimated scf accuracy    <       0.00458715 Ry

     iteration # 76     ecut=    30.00 Ry     beta= 0.50
     Davidson diagonalization with overlap
     c_bands:  1 eigenvalues not converged
     ethr =  8.92E-08,  avg # of iterations = 20.0

     total cpu time spent up to now is       12.6 secs

     total energy              =    -501.46358138 Ry
     estimated scf accuracy    <       0.00104268 Ry

     iteration # 77     ecut=    30.00 Ry     beta= 0.50
     Davidson diagonalization with overlap
     c_bands:  1 eigenvalues not converged
     ethr =  8.92E-08,  avg # of iterations = 20.0

     total cpu time spent up to now is       12.7 secs

     total energy              =    -501.46360211 Ry
     estimated scf accuracy    <       0.00063228 Ry

     iteration # 78     ecut=    30.00 Ry     beta= 0.50
     Davidson diagonalization with overlap
     ethr =  8.92E-08,  avg # of iterations =  2.0

     total cpu time spent up to now is       12.8 secs

     total energy              =    -501.46359002 Ry
     estimated scf accuracy    <       0.00062778 Ry

     iteration # 79     ecut=    30.00 Ry     beta= 0.50
     Davidson diagonalization with overlap
     ethr =  8.92E-08,  avg # of iterations =  1.0

     total cpu time spent up to now is       12.9 secs

     total energy              =    -501.46357630 Ry
     estimated scf accuracy    <       0.00057107 Ry

     iteration # 80     ecut=    30.00 Ry     beta= 0.50
     Davidson diagonalization with overlap
     ethr =  8.92E-08,  avg # of iterations =  2.0

     total cpu time spent up to now is       13.0 secs

     total energy              =    -501.46357748 Ry
     estimated scf accuracy    <       0.00050480 Ry

     iteration # 81     ecut=    30.00 Ry     beta= 0.50
     Davidson diagonalization with overlap
     ethr =  8.92E-08,  avg # of iterations =  1.0

     total cpu time spent up to now is       13.0 secs

     total energy              =    -501.46357519 Ry
     estimated scf accuracy    <       0.00049317 Ry

     iteration # 82     ecut=    30.00 Ry     beta= 0.50
     Davidson diagonalization with overlap
     ethr =  8.92E-08,  avg # of iterations =  1.0

     total cpu time spent up to now is       13.1 secs

     total energy              =    -501.46352925 Ry
     estimated scf accuracy    <       0.00047025 Ry

     iteration # 83     ecut=    30.00 Ry     beta= 0.50
     Davidson diagonalization with overlap
     c_bands:  1 eigenvalues not converged
     ethr =  8.92E-08,  avg # of iterations = 20.0

     total cpu time spent up to now is       13.2 secs

     total energy              =    -501.46361138 Ry
     estimated scf accuracy    <       0.00128455 Ry

     iteration # 84     ecut=    30.00 Ry     beta= 0.50
     Davidson diagonalization with overlap
     ethr =  8.92E-08,  avg # of iterations = 16.0

     total cpu time spent up to now is       13.4 secs

     total energy              =    -501.46359233 Ry
     estimated scf accuracy    <       0.00120478 Ry

     iteration # 85     ecut=    30.00 Ry     beta= 0.50
     Davidson diagonalization with overlap
     ethr =  8.92E-08,  avg # of iterations =  2.0

     total cpu time spent up to now is       13.4 secs

     total energy              =    -501.46357955 Ry
     estimated scf accuracy    <       0.00109726 Ry

     iteration # 86     ecut=    30.00 Ry     beta= 0.50
     Davidson diagonalization with overlap
     ethr =  8.92E-08,  avg # of iterations =  1.0

     total cpu time spent up to now is       13.5 secs

     total energy              =    -501.46355125 Ry
     estimated scf accuracy    <       0.00101368 Ry

     iteration # 87     ecut=    30.00 Ry     beta= 0.50
     Davidson diagonalization with overlap
     c_bands:  1 eigenvalues not converged
     ethr =  8.92E-08,  avg # of iterations = 20.0

     total cpu time spent up to now is       13.7 secs

     total energy              =    -501.46359595 Ry
     estimated scf accuracy    <       0.00003051 Ry

     iteration # 88     ecut=    30.00 Ry     beta= 0.50
     Davidson diagonalization with overlap
     c_bands:  1 eigenvalues not converged
     ethr =  1.19E-08,  avg # of iterations = 20.0

     total cpu time spent up to now is       13.8 secs

     total energy              =    -501.46360442 Ry
     estimated scf accuracy    <       0.00001488 Ry

     iteration # 89     ecut=    30.00 Ry     beta= 0.50
     Davidson diagonalization with overlap
     ethr =  5.81E-09,  avg # of iterations = 10.0

     total cpu time spent up to now is       13.9 secs

     total energy              =    -501.46360515 Ry
     estimated scf accuracy    <       0.00001380 Ry

     iteration # 90     ecut=    30.00 Ry     beta= 0.50
     Davidson diagonalization with overlap
     ethr =  5.39E-09,  avg # of iterations =  2.0

     total cpu time spent up to now is       14.0 secs

     total energy              =    -501.46360556 Ry
     estimated scf accuracy    <       0.00001557 Ry

     iteration # 91     ecut=    30.00 Ry     beta= 0.50
     Davidson diagonalization with overlap
     ethr =  5.39E-09,  avg # of iterations =  1.0

     total cpu time spent up to now is       14.1 secs

     total energy              =    -501.46361122 Ry
     estimated scf accuracy    <       0.00001711 Ry

     iteration # 92     ecut=    30.00 Ry     beta= 0.50
     Davidson diagonalization with overlap
     c_bands:  1 eigenvalues not converged
     ethr =  5.39E-09,  avg # of iterations = 20.0

     total cpu time spent up to now is       14.2 secs

     total energy              =    -501.46365118 Ry
     estimated scf accuracy    <       0.00149088 Ry

     iteration # 93     ecut=    30.00 Ry     beta= 0.50
     Davidson diagonalization with overlap
     c_bands:  1 eigenvalues not converged
     ethr =  5.39E-09,  avg # of iterations = 20.0

     total cpu time spent up to now is       14.4 secs

     total energy              =    -501.46363010 Ry
     estimated scf accuracy    <       0.00153993 Ry

     iteration # 94     ecut=    30.00 Ry     beta= 0.50
     Davidson diagonalization with overlap
     ethr =  5.39E-09,  avg # of iterations =  3.0

     total cpu time spent up to now is       14.5 secs

     total energy              =    -501.46362658 Ry
     estimated scf accuracy    <       0.00143844 Ry

     iteration # 95     ecut=    30.00 Ry     beta= 0.50
     Davidson diagonalization with overlap
     ethr =  5.39E-09,  avg # of iterations =  2.0

     total cpu time spent up to now is       14.5 secs

     total energy              =    -501.46370153 Ry
     estimated scf accuracy    <       0.00140904 Ry

     iteration # 96     ecut=    30.00 Ry     beta= 0.50
     Davidson diagonalization with overlap
     c_bands:  1 eigenvalues not converged
     ethr =  5.39E-09,  avg # of iterations = 20.0

     total cpu time spent up to now is       14.7 secs

     total energy              =    -501.46364425 Ry
     estimated scf accuracy    <       0.00285454 Ry

     iteration # 97     ecut=    30.00 Ry     beta= 0.50
     Davidson diagonalization with overlap
     c_bands:  1 eigenvalues not converged
     ethr =  5.39E-09,  avg # of iterations = 20.0

     total cpu time spent up to now is       14.9 secs

     total energy              =    -501.46361749 Ry
     estimated scf accuracy    <       0.00223967 Ry

     iteration # 98     ecut=    30.00 Ry     beta= 0.50
     Davidson diagonalization with overlap
     c_bands:  1 eigenvalues not converged
     ethr =  5.39E-09,  avg # of iterations = 20.0

     total cpu time spent up to now is       15.1 secs

     total energy              =    -501.46359389 Ry
     estimated scf accuracy    <       0.00104352 Ry

     iteration # 99     ecut=    30.00 Ry     beta= 0.50
     Davidson diagonalization with overlap
     c_bands:  1 eigenvalues not converged
     ethr =  5.39E-09,  avg # of iterations = 20.0

     total cpu time spent up to now is       15.2 secs

     total energy              =    -501.46359715 Ry
     estimated scf accuracy    <       0.00061631 Ry

     iteration #100     ecut=    30.00 Ry     beta= 0.50
     Davidson diagonalization with overlap
     c_bands:  2 eigenvalues not converged
     ethr =  5.39E-09,  avg # of iterations = 20.0

     total cpu time spent up to now is       15.4 secs

     total energy              =    -501.46355798 Ry
     estimated scf accuracy    <       0.00029046 Ry

     End of self-consistent calculation

     convergence NOT achieved after 100 iterations: stopping

     Writing config to output data dir ./pwscf.save/
     Message from routine punch:
     wavefunctions written to file
 
     init_run     :      0.96s CPU      4.17s WALL (       1 calls)
     electrons    :     10.50s CPU     11.17s WALL (       1 calls)

     Called by init_run:
     wfcinit      :      0.45s CPU      3.51s WALL (       1 calls)
                                        3.51s GPU  (       1 calls)
     potinit      :      0.04s CPU      0.12s WALL (       1 calls)
     hinit0       :      0.45s CPU      0.48s WALL (       1 calls)

     Called by electrons:
     c_bands      :      7.33s CPU      7.70s WALL (     101 calls)
     sum_band     :      1.44s CPU      1.66s WALL (     101 calls)
     v_of_rho     :      0.59s CPU      0.69s WALL (     101 calls)
     mix_rho      :      0.91s CPU      0.94s WALL (     101 calls)

     Called by c_bands:
     init_us_2    :      0.25s CPU      0.27s WALL (     203 calls)
     init_us_2:gp :      0.25s CPU      0.27s WALL (     203 calls)
     regterg      :      6.64s CPU      6.98s WALL (     101 calls)

     Called by *egterg:
     rdiaghg      :      3.40s CPU      4.15s WALL (    1079 calls)
                                        4.00s GPU  (    1079 calls)
     h_psi        :      2.77s CPU      5.37s WALL (    1081 calls)
                                        5.36s GPU  (    1081 calls)
     g_psi        :      0.00s CPU      0.02s WALL (     979 calls)
                                        0.02s GPU  (     979 calls)

     Called by h_psi:
     h_psi:calbec :      0.69s CPU      3.12s WALL (    1081 calls)
                                        3.11s GPU  (    1081 calls)
     vloc_psi     :      1.51s CPU      1.67s WALL (    1081 calls)
                                        1.65s GPU  (    1081 calls)
     add_vuspsi   :      0.45s CPU      0.53s WALL (    1081 calls)
                                        0.53s GPU  (    1081 calls)

     General routines
     calbec       :      0.68s CPU      3.10s WALL (    1081 calls)
     fft          :      0.94s CPU      1.09s WALL (     809 calls)
                                        0.17s GPU  (     505 calls)
     ffts         :      0.17s CPU      0.19s WALL (     101 calls)
     fftw         :      1.82s CPU      2.31s WALL (    9946 calls)
                                        2.01s GPU  (    9946 calls)
     davcio       :      0.00s CPU      0.01s WALL (      19 calls)
 
     Parallel routines
 
     PWSCF        :     11.51s CPU     15.43s WALL

 
   This run was terminated on:  15:13:43   9May2023            

=------------------------------------------------------------------------------=
   JOB DONE.
=------------------------------------------------------------------------------=
