An instance of this daemon is already running
An instance of this daemon is already running

     Program PWSCF v.7.1 starts on  9May2023 at 15:10:38 

     This program is part of the open-source Quantum ESPRESSO suite
     for quantum simulation of materials; please cite
         "P. Giannozzi et al., J. Phys.:Condens. Matter 21 395502 (2009);
         "P. Giannozzi et al., J. Phys.:Condens. Matter 29 465901 (2017);
         "P. Giannozzi et al., J. Chem. Phys. 152 154105 (2020);
          URL http://www.quantum-espresso.org", 
     in publications or presentations arising from this work. More details at
     http://www.quantum-espresso.org/quote

     Parallel version (MPI & OpenMP), running on       4 processor cores
     Number of MPI processes:                 4
     Threads/MPI process:                     1

     MPI processes distributed on     1 nodes
     71139 MiB available memory on the printing compute node when the environment starts
 
     Reading input from pw-si-29.in
Warning: card &CELL ignored
Warning: card / ignored

     Current dimensions of program PWSCF are:
     Max number of different atomic species (ntypx) = 10
     Max number of k-points (npk) =  40000
     Max angular momentum in pseudopotentials (lmaxx) =  4

     IMPORTANT: XC functional enforced from input :
     Exchange-correlation= PBE
                           (   1   4   3   4   0   0   0)
     Any further DFT definition will be discarded
     Please, verify this is what you really want


     gamma-point specific algorithms are used
 
     K-points division:     npool     =       2
     R & G space division:  proc/nbgrp/npool/nimage =       2
     Subspace diagonalization in iterative solution of the eigenvalue problem:
     a serial algorithm will be used

     Message from routine divide_et_impera:
     suboptimal parallelization: some nodes have no k-points
 
     Parallelization info
     --------------------
     sticks:   dense  smooth     PW     G-vecs:    dense   smooth      PW
     Min        1908    1908    502                88957    88957   12102
     Max        1909    1909    503                88960    88960   12105
     Sum        3817    3817   1005               177917   177917   24207
 
     Using Slab Decomposition
 


     bravais-lattice index     =            0
     lattice parameter (alat)  =      20.0159  a.u.
     unit-cell volume          =    8019.1283 (a.u.)^3
     number of atoms/cell      =           64
     number of atomic types    =            1
     number of electrons       =       256.00
     number of Kohn-Sham states=          128
     kinetic-energy cutoff     =      30.0000  Ry
     charge density cutoff     =     120.0000  Ry
     scf convergence threshold =      1.0E-06
     mixing beta               =       0.5000
     number of iterations used =            8  plain     mixing
     Exchange-correlation= PBE
                           (   1   4   3   4   0   0   0)

     GPU acceleration is ACTIVE.
     GPU-aware MPI enabled

     Message from routine print_cuda_info:
     High GPU oversubscription detected. Are you sure this is what you want?

     celldm(1)=  20.015928  celldm(2)=   0.000000  celldm(3)=   0.000000
     celldm(4)=   0.000000  celldm(5)=   0.000000  celldm(6)=   0.000000

     crystal axes: (cart. coord. in units of alat)
               a(1) = (   1.000000   0.000000   0.000000 )  
               a(2) = (   0.000000   1.000000   0.000000 )  
               a(3) = (   0.000000   0.000000   1.000000 )  

     reciprocal axes: (cart. coord. in units 2 pi/alat)
               b(1) = (  1.000000  0.000000  0.000000 )  
               b(2) = (  0.000000  1.000000  0.000000 )  
               b(3) = (  0.000000  0.000000  1.000000 )  


     PseudoPot. # 1 for Si read from file:
     /home/ppiaggi/pseudos/Si_ONCV_PBE_sr.upf
     MD5 check sum: 8553c464762ac42b85b1eed164b4d029
     Pseudo is Norm-conserving, Zval =  4.0
     Generated using ONCVPSP code by D. R. Hamann
     Using radial grid of 1510 points,  4 beta functions with: 
                l(1) =   0
                l(2) =   0
                l(3) =   1
                l(4) =   1

     atomic species   valence    mass     pseudopotential
        Si             4.00    28.08500     Si( 1.00)

     No symmetry found



   Cartesian axes

     site n.     atom                  positions (alat units)
         1           Si  tau(   1) = (   0.6414960   0.9614000   0.2891690  )
         2           Si  tau(   2) = (   0.8645080   0.8453520   0.2907760  )
         3           Si  tau(   3) = (   0.0243363   0.4723510   0.5380470  )
         4           Si  tau(   4) = (   0.9071590   0.9520110   0.7515820  )
         5           Si  tau(   5) = (   0.5447840   0.3609190   0.6353310  )
         6           Si  tau(   6) = (   0.7484050   0.6482940   0.7842400  )
         7           Si  tau(   7) = (   0.9530480   0.3532570   0.8277170  )
         8           Si  tau(   8) = (   0.7504410   0.2325520   0.8816190  )
         9           Si  tau(   9) = (   0.0138605   0.9998490   0.9918730  )
        10           Si  tau(  10) = (   0.1033530   0.3471800   0.3563640  )
        11           Si  tau(  11) = (   0.4506810   0.9193080   0.4957340  )
        12           Si  tau(  12) = (   0.6175050   0.4069190   0.8825630  )
        13           Si  tau(  13) = (   0.4838280   0.0593502   0.9668620  )
        14           Si  tau(  14) = (   0.4087010   0.5537170   0.9156690  )
        15           Si  tau(  15) = (   0.7300180   0.4228260   0.4972490  )
        16           Si  tau(  16) = (   0.5903800   0.6800320   0.0199227  )
        17           Si  tau(  17) = (   0.0109216   0.6147810   0.3410950  )
        18           Si  tau(  18) = (   0.5419540   0.4868680   0.1606380  )
        19           Si  tau(  19) = (   0.7661140   0.1149640   0.0812131  )
        20           Si  tau(  20) = (   0.8379040   0.5197350   0.9541180  )
        21           Si  tau(  21) = (   0.6326310   0.5946370   0.3737390  )
        22           Si  tau(  22) = (   0.9125370   0.7157290   0.0065202  )
        23           Si  tau(  23) = (   0.2271470   0.7540080   0.9897760  )
        24           Si  tau(  24) = (   0.9578450   0.0879884   0.2404800  )
        25           Si  tau(  25) = (   0.6654500   0.1405120   0.6933350  )
        26           Si  tau(  26) = (   0.6420580   0.7739270   0.5141990  )
        27           Si  tau(  27) = (   0.2726750   0.8067440   0.6222040  )
        28           Si  tau(  28) = (   0.0894120   0.2087690   0.9366210  )
        29           Si  tau(  29) = (   0.3144030   0.0586740   0.2276330  )
        30           Si  tau(  30) = (   0.5492110   0.2580940   0.0992083  )
        31           Si  tau(  31) = (   0.0735293   0.8145430   0.4961240  )
        32           Si  tau(  32) = (   0.8288110   0.6200760   0.2363460  )
        33           Si  tau(  33) = (   0.1869750   0.6285660   0.1995740  )
        34           Si  tau(  34) = (   0.8712070   0.6287970   0.6205490  )
        35           Si  tau(  35) = (   0.3393880   0.3939890   0.3390560  )
        36           Si  tau(  36) = (   0.3147240   0.7614090   0.3453900  )
        37           Si  tau(  37) = (   0.0231697   0.7337870   0.7842110  )
        38           Si  tau(  38) = (   0.0931377   0.8520260   0.1717040  )
        39           Si  tau(  39) = (   0.2932710   0.4624040   0.1122350  )
        40           Si  tau(  40) = (   0.5274100   0.1720770   0.3134290  )
        41           Si  tau(  41) = (   0.6687420   0.9180940   0.8204800  )
        42           Si  tau(  42) = (   0.7528460   0.2410870   0.3465270  )
        43           Si  tau(  43) = (   0.8100780   0.0651001   0.4863880  )
        44           Si  tau(  44) = (   0.0895138   0.0866595   0.7003200  )
        45           Si  tau(  45) = (   0.9169100   0.2752410   0.6182890  )
        46           Si  tau(  46) = (   0.5313900   0.6334080   0.6772970  )
        47           Si  tau(  47) = (   0.2292900   0.9412690   0.8025240  )
        48           Si  tau(  48) = (   0.4388640   0.0462236   0.6891700  )
        49           Si  tau(  49) = (   0.3891250   0.2051390   0.5090270  )
        50           Si  tau(  50) = (   0.4990320   0.7864720   0.2093520  )
        51           Si  tau(  51) = (   0.0356849   0.3071890   0.1472940  )
        52           Si  tau(  52) = (   0.3171540   0.2261800   0.0718730  )
        53           Si  tau(  53) = (   0.2145010   0.5872130   0.6297800  )
        54           Si  tau(  54) = (   0.3569580   0.4152250   0.7380360  )
        55           Si  tau(  55) = (   0.1658850   0.1823490   0.4989600  )
        56           Si  tau(  56) = (   0.8047030   0.3892560   0.1421400  )
        57           Si  tau(  57) = (   0.2919950   0.2231720   0.8359670  )
        58           Si  tau(  58) = (   0.4160430   0.5763860   0.4378420  )
        59           Si  tau(  59) = (   0.8611540   0.8450870   0.5517240  )
        60           Si  tau(  60) = (   0.7390610   0.8750900   0.0291925  )
        61           Si  tau(  61) = (   0.4551050   0.7975960   0.8160670  )
        62           Si  tau(  62) = (   0.1228620   0.5237080   0.8635830  )
        63           Si  tau(  63) = (   0.1461600   0.9937420   0.3456020  )
        64           Si  tau(  64) = (   0.3747810   0.8996100   0.0663505  )

     number of k points=     1
                       cart. coord. in units 2pi/alat
        k(    1) = (   0.0000000   0.0000000   0.0000000), wk =   2.0000000

     Dense  grid:    88959 G-vectors     FFT dimensions: (  72,  72,  72)

     Estimated max dynamical RAM per process >     131.35 MB

     Estimated total dynamical RAM >     503.67 MB

     Initial potential from superposition of free atoms

     starting charge     255.9608, renormalised to     256.0000
     Starting wfcs are  256 randomized atomic wfcs

     total cpu time spent up to now is        4.2 secs

     Self-consistent Calculation

     iteration #  1     ecut=    30.00 Ry     beta= 0.50
     Davidson diagonalization with overlap
     ethr =  1.00E-02,  avg # of iterations =  2.0

     Threshold (ethr) on eigenvalues was too large:
     Diagonalizing with lowered threshold

     Davidson diagonalization with overlap
     ethr =  3.58E-04,  avg # of iterations =  5.0

     total cpu time spent up to now is        4.4 secs

     total energy              =    -501.23565163 Ry
     estimated scf accuracy    <       1.15684776 Ry

     iteration #  2     ecut=    30.00 Ry     beta= 0.50
     Davidson diagonalization with overlap
     ethr =  4.52E-04,  avg # of iterations = 11.0

     total cpu time spent up to now is        4.5 secs

     total energy              =    -500.93714377 Ry
     estimated scf accuracy    <       3.42150727 Ry

     iteration #  3     ecut=    30.00 Ry     beta= 0.50
     Davidson diagonalization with overlap
     ethr =  4.52E-04,  avg # of iterations = 13.0

     total cpu time spent up to now is        4.7 secs

     total energy              =    -501.27523111 Ry
     estimated scf accuracy    <       1.73770371 Ry

     iteration #  4     ecut=    30.00 Ry     beta= 0.50
     Davidson diagonalization with overlap
     ethr =  4.52E-04,  avg # of iterations = 10.0

     total cpu time spent up to now is        4.8 secs

     total energy              =    -501.40294334 Ry
     estimated scf accuracy    <       0.46841508 Ry

     iteration #  5     ecut=    30.00 Ry     beta= 0.50
     Davidson diagonalization with overlap
     ethr =  1.83E-04,  avg # of iterations =  7.0

     total cpu time spent up to now is        4.9 secs

     total energy              =    -501.44631209 Ry
     estimated scf accuracy    <       0.18424195 Ry

     iteration #  6     ecut=    30.00 Ry     beta= 0.50
     Davidson diagonalization with overlap
     ethr =  7.20E-05,  avg # of iterations =  7.0

     total cpu time spent up to now is        5.0 secs

     total energy              =    -501.47283480 Ry
     estimated scf accuracy    <       0.02121256 Ry

     iteration #  7     ecut=    30.00 Ry     beta= 0.50
     Davidson diagonalization with overlap
     c_bands:  3 eigenvalues not converged
     ethr =  8.29E-06,  avg # of iterations = 20.0

     total cpu time spent up to now is        5.1 secs

     total energy              =    -501.48557009 Ry
     estimated scf accuracy    <       0.06162099 Ry

     iteration #  8     ecut=    30.00 Ry     beta= 0.50
     Davidson diagonalization with overlap
     ethr =  8.29E-06,  avg # of iterations = 13.0

     total cpu time spent up to now is        5.3 secs

     total energy              =    -501.48598492 Ry
     estimated scf accuracy    <       0.03647193 Ry

     iteration #  9     ecut=    30.00 Ry     beta= 0.50
     Davidson diagonalization with overlap
     ethr =  8.29E-06,  avg # of iterations =  2.0

     total cpu time spent up to now is        5.3 secs

     total energy              =    -501.48281290 Ry
     estimated scf accuracy    <       0.02794037 Ry

     iteration # 10     ecut=    30.00 Ry     beta= 0.50
     Davidson diagonalization with overlap
     ethr =  8.29E-06,  avg # of iterations =  2.0

     total cpu time spent up to now is        5.4 secs

     total energy              =    -501.48171773 Ry
     estimated scf accuracy    <       0.01060707 Ry

     iteration # 11     ecut=    30.00 Ry     beta= 0.50
     Davidson diagonalization with overlap
     ethr =  4.14E-06,  avg # of iterations = 10.0

     total cpu time spent up to now is        5.5 secs

     total energy              =    -501.48373619 Ry
     estimated scf accuracy    <       0.00871830 Ry

     iteration # 12     ecut=    30.00 Ry     beta= 0.50
     Davidson diagonalization with overlap
     ethr =  3.41E-06,  avg # of iterations =  2.0

     total cpu time spent up to now is        5.6 secs

     total energy              =    -501.48342257 Ry
     estimated scf accuracy    <       0.00592941 Ry

     iteration # 13     ecut=    30.00 Ry     beta= 0.50
     Davidson diagonalization with overlap
     ethr =  2.32E-06,  avg # of iterations =  3.0

     total cpu time spent up to now is        5.7 secs

     total energy              =    -501.48283310 Ry
     estimated scf accuracy    <       0.00254474 Ry

     iteration # 14     ecut=    30.00 Ry     beta= 0.50
     Davidson diagonalization with overlap
     c_bands:  1 eigenvalues not converged
     ethr =  9.94E-07,  avg # of iterations = 20.0

     total cpu time spent up to now is        5.8 secs

     total energy              =    -501.48447315 Ry
     estimated scf accuracy    <       0.01535661 Ry

     iteration # 15     ecut=    30.00 Ry     beta= 0.50
     Davidson diagonalization with overlap
     ethr =  9.94E-07,  avg # of iterations =  7.0

     total cpu time spent up to now is        5.9 secs

     total energy              =    -501.48399408 Ry
     estimated scf accuracy    <       0.01360712 Ry

     iteration # 16     ecut=    30.00 Ry     beta= 0.50
     Davidson diagonalization with overlap
     ethr =  9.94E-07,  avg # of iterations =  2.0

     total cpu time spent up to now is        6.0 secs

     total energy              =    -501.48340465 Ry
     estimated scf accuracy    <       0.01051872 Ry

     iteration # 17     ecut=    30.00 Ry     beta= 0.50
     Davidson diagonalization with overlap
     ethr =  9.94E-07,  avg # of iterations = 10.0

     total cpu time spent up to now is        6.1 secs

     total energy              =    -501.48367708 Ry
     estimated scf accuracy    <       0.00383231 Ry

     iteration # 18     ecut=    30.00 Ry     beta= 0.50
     Davidson diagonalization with overlap
     ethr =  9.94E-07,  avg # of iterations =  1.0

     total cpu time spent up to now is        6.2 secs

     total energy              =    -501.48391470 Ry
     estimated scf accuracy    <       0.00357635 Ry

     iteration # 19     ecut=    30.00 Ry     beta= 0.50
     Davidson diagonalization with overlap
     ethr =  9.94E-07,  avg # of iterations =  1.0

     total cpu time spent up to now is        6.2 secs

     total energy              =    -501.48357724 Ry
     estimated scf accuracy    <       0.00424219 Ry

     iteration # 20     ecut=    30.00 Ry     beta= 0.50
     Davidson diagonalization with overlap
     ethr =  9.94E-07,  avg # of iterations =  1.0

     total cpu time spent up to now is        6.3 secs

     total energy              =    -501.48270567 Ry
     estimated scf accuracy    <       0.00287406 Ry

     iteration # 21     ecut=    30.00 Ry     beta= 0.50
     Davidson diagonalization with overlap
     c_bands:  1 eigenvalues not converged
     ethr =  9.94E-07,  avg # of iterations = 20.0

     total cpu time spent up to now is        6.4 secs

     total energy              =    -501.48406074 Ry
     estimated scf accuracy    <       0.00799121 Ry

     iteration # 22     ecut=    30.00 Ry     beta= 0.50
     Davidson diagonalization with overlap
     c_bands:  1 eigenvalues not converged
     ethr =  9.94E-07,  avg # of iterations = 20.0

     total cpu time spent up to now is        6.6 secs

     total energy              =    -501.48571611 Ry
     estimated scf accuracy    <       0.01548363 Ry

     iteration # 23     ecut=    30.00 Ry     beta= 0.50
     Davidson diagonalization with overlap
     c_bands:  1 eigenvalues not converged
     ethr =  9.94E-07,  avg # of iterations = 20.0

     total cpu time spent up to now is        6.7 secs

     total energy              =    -501.48478948 Ry
     estimated scf accuracy    <       0.02160193 Ry

     iteration # 24     ecut=    30.00 Ry     beta= 0.50
     Davidson diagonalization with overlap
     ethr =  9.94E-07,  avg # of iterations = 12.0

     total cpu time spent up to now is        6.9 secs

     total energy              =    -501.48506862 Ry
     estimated scf accuracy    <       0.01621121 Ry

     iteration # 25     ecut=    30.00 Ry     beta= 0.50
     Davidson diagonalization with overlap
     ethr =  9.94E-07,  avg # of iterations =  2.0

     total cpu time spent up to now is        6.9 secs

     total energy              =    -501.48470093 Ry
     estimated scf accuracy    <       0.01586555 Ry

     iteration # 26     ecut=    30.00 Ry     beta= 0.50
     Davidson diagonalization with overlap
     ethr =  9.94E-07,  avg # of iterations =  7.0

     total cpu time spent up to now is        7.0 secs

     total energy              =    -501.48487191 Ry
     estimated scf accuracy    <       0.01388477 Ry

     iteration # 27     ecut=    30.00 Ry     beta= 0.50
     Davidson diagonalization with overlap
     ethr =  9.94E-07,  avg # of iterations =  1.0

     total cpu time spent up to now is        7.1 secs

     total energy              =    -501.48443215 Ry
     estimated scf accuracy    <       0.01396723 Ry

     iteration # 28     ecut=    30.00 Ry     beta= 0.50
     Davidson diagonalization with overlap
     ethr =  9.94E-07,  avg # of iterations =  1.0

     total cpu time spent up to now is        7.1 secs

     total energy              =    -501.48394154 Ry
     estimated scf accuracy    <       0.01230334 Ry

     iteration # 29     ecut=    30.00 Ry     beta= 0.50
     Davidson diagonalization with overlap
     ethr =  9.94E-07,  avg # of iterations =  2.0

     total cpu time spent up to now is        7.2 secs

     total energy              =    -501.48279819 Ry
     estimated scf accuracy    <       0.00983214 Ry

     iteration # 30     ecut=    30.00 Ry     beta= 0.50
     Davidson diagonalization with overlap
     ethr =  9.94E-07,  avg # of iterations =  8.0

     total cpu time spent up to now is        7.3 secs

     total energy              =    -501.48291829 Ry
     estimated scf accuracy    <       0.00856970 Ry

     iteration # 31     ecut=    30.00 Ry     beta= 0.50
     Davidson diagonalization with overlap
     c_bands:  1 eigenvalues not converged
     ethr =  9.94E-07,  avg # of iterations = 20.0

     total cpu time spent up to now is        7.5 secs

     total energy              =    -501.48200300 Ry
     estimated scf accuracy    <       0.03879447 Ry

     iteration # 32     ecut=    30.00 Ry     beta= 0.50
     Davidson diagonalization with overlap
     c_bands:  1 eigenvalues not converged
     ethr =  9.94E-07,  avg # of iterations = 20.0

     total cpu time spent up to now is        7.7 secs

     total energy              =    -501.48255192 Ry
     estimated scf accuracy    <       0.01798493 Ry

     iteration # 33     ecut=    30.00 Ry     beta= 0.50
     Davidson diagonalization with overlap
     c_bands:  1 eigenvalues not converged
     ethr =  9.94E-07,  avg # of iterations = 20.0

     total cpu time spent up to now is        7.8 secs

     total energy              =    -501.48335030 Ry
     estimated scf accuracy    <       0.00744567 Ry

     iteration # 34     ecut=    30.00 Ry     beta= 0.50
     Davidson diagonalization with overlap
     c_bands:  1 eigenvalues not converged
     ethr =  9.94E-07,  avg # of iterations = 20.0

     total cpu time spent up to now is        8.0 secs

     total energy              =    -501.48384586 Ry
     estimated scf accuracy    <       0.00215935 Ry

     iteration # 35     ecut=    30.00 Ry     beta= 0.50
     Davidson diagonalization with overlap
     ethr =  8.43E-07,  avg # of iterations =  8.0

     total cpu time spent up to now is        8.1 secs

     total energy              =    -501.48387553 Ry
     estimated scf accuracy    <       0.00159637 Ry

     iteration # 36     ecut=    30.00 Ry     beta= 0.50
     Davidson diagonalization with overlap
     ethr =  6.24E-07,  avg # of iterations =  2.0

     total cpu time spent up to now is        8.2 secs

     total energy              =    -501.48380830 Ry
     estimated scf accuracy    <       0.00143334 Ry

     iteration # 37     ecut=    30.00 Ry     beta= 0.50
     Davidson diagonalization with overlap
     ethr =  5.60E-07,  avg # of iterations =  1.0

     total cpu time spent up to now is        8.2 secs

     total energy              =    -501.48373734 Ry
     estimated scf accuracy    <       0.00114136 Ry

     iteration # 38     ecut=    30.00 Ry     beta= 0.50
     Davidson diagonalization with overlap
     ethr =  4.46E-07,  avg # of iterations =  1.0

     total cpu time spent up to now is        8.3 secs

     total energy              =    -501.48362594 Ry
     estimated scf accuracy    <       0.00082203 Ry

     iteration # 39     ecut=    30.00 Ry     beta= 0.50
     Davidson diagonalization with overlap
     c_bands:  1 eigenvalues not converged
     ethr =  3.21E-07,  avg # of iterations = 20.0

     total cpu time spent up to now is        8.4 secs

     total energy              =    -501.48366780 Ry
     estimated scf accuracy    <       0.00033072 Ry

     iteration # 40     ecut=    30.00 Ry     beta= 0.50
     Davidson diagonalization with overlap
     c_bands:  1 eigenvalues not converged
     ethr =  1.29E-07,  avg # of iterations = 20.0

     total cpu time spent up to now is        8.6 secs

     total energy              =    -501.48374520 Ry
     estimated scf accuracy    <       0.00202303 Ry

     iteration # 41     ecut=    30.00 Ry     beta= 0.50
     Davidson diagonalization with overlap
     c_bands:  1 eigenvalues not converged
     ethr =  1.29E-07,  avg # of iterations = 20.0

     total cpu time spent up to now is        8.8 secs

     total energy              =    -501.48425171 Ry
     estimated scf accuracy    <       0.01997020 Ry

     iteration # 42     ecut=    30.00 Ry     beta= 0.50
     Davidson diagonalization with overlap
     c_bands:  1 eigenvalues not converged
     ethr =  1.29E-07,  avg # of iterations = 20.0

     total cpu time spent up to now is        8.9 secs

     total energy              =    -501.48422463 Ry
     estimated scf accuracy    <       0.01753834 Ry

     iteration # 43     ecut=    30.00 Ry     beta= 0.50
     Davidson diagonalization with overlap
     c_bands:  1 eigenvalues not converged
     ethr =  1.29E-07,  avg # of iterations = 20.0

     total cpu time spent up to now is        9.1 secs

     total energy              =    -501.48416358 Ry
     estimated scf accuracy    <       0.01774606 Ry

     iteration # 44     ecut=    30.00 Ry     beta= 0.50
     Davidson diagonalization with overlap
     ethr =  1.29E-07,  avg # of iterations =  3.0

     total cpu time spent up to now is        9.1 secs

     total energy              =    -501.48409390 Ry
     estimated scf accuracy    <       0.01723064 Ry

     iteration # 45     ecut=    30.00 Ry     beta= 0.50
     Davidson diagonalization with overlap
     ethr =  1.29E-07,  avg # of iterations =  2.0

     total cpu time spent up to now is        9.2 secs

     total energy              =    -501.48443914 Ry
     estimated scf accuracy    <       0.01670049 Ry

     iteration # 46     ecut=    30.00 Ry     beta= 0.50
     Davidson diagonalization with overlap
     ethr =  1.29E-07,  avg # of iterations =  2.0

     total cpu time spent up to now is        9.3 secs

     total energy              =    -501.48421408 Ry
     estimated scf accuracy    <       0.01787959 Ry

     iteration # 47     ecut=    30.00 Ry     beta= 0.50
     Davidson diagonalization with overlap
     ethr =  1.29E-07,  avg # of iterations =  1.0

     total cpu time spent up to now is        9.4 secs

     total energy              =    -501.48246644 Ry
     estimated scf accuracy    <       0.01721613 Ry

     iteration # 48     ecut=    30.00 Ry     beta= 0.50
     Davidson diagonalization with overlap
     c_bands:  1 eigenvalues not converged
     ethr =  1.29E-07,  avg # of iterations = 20.0

     total cpu time spent up to now is        9.5 secs

     total energy              =    -501.48724526 Ry
     estimated scf accuracy    <       0.00374231 Ry

     iteration # 49     ecut=    30.00 Ry     beta= 0.50
     Davidson diagonalization with overlap
     c_bands:  2 eigenvalues not converged
     ethr =  1.29E-07,  avg # of iterations = 20.0

     total cpu time spent up to now is        9.7 secs

     total energy              =    -501.48791906 Ry
     estimated scf accuracy    <       0.08057090 Ry

     iteration # 50     ecut=    30.00 Ry     beta= 0.50
     Davidson diagonalization with overlap
     ethr =  1.29E-07,  avg # of iterations = 18.0

     total cpu time spent up to now is        9.9 secs

     total energy              =    -501.48714432 Ry
     estimated scf accuracy    <       0.03599124 Ry

     iteration # 51     ecut=    30.00 Ry     beta= 0.50
     Davidson diagonalization with overlap
     ethr =  1.29E-07,  avg # of iterations = 15.0

     total cpu time spent up to now is       10.1 secs

     total energy              =    -501.48423363 Ry
     estimated scf accuracy    <       0.02659067 Ry

     iteration # 52     ecut=    30.00 Ry     beta= 0.50
     Davidson diagonalization with overlap
     ethr =  1.29E-07,  avg # of iterations = 13.0

     total cpu time spent up to now is       10.2 secs

     total energy              =    -501.48474636 Ry
     estimated scf accuracy    <       0.00842333 Ry

     iteration # 53     ecut=    30.00 Ry     beta= 0.50
     Davidson diagonalization with overlap
     ethr =  1.29E-07,  avg # of iterations = 19.0

     total cpu time spent up to now is       10.4 secs

     total energy              =    -501.48453505 Ry
     estimated scf accuracy    <       0.00821722 Ry

     iteration # 54     ecut=    30.00 Ry     beta= 0.50
     Davidson diagonalization with overlap
     ethr =  1.29E-07,  avg # of iterations = 10.0

     total cpu time spent up to now is       10.5 secs

     total energy              =    -501.48417809 Ry
     estimated scf accuracy    <       0.00603475 Ry

     iteration # 55     ecut=    30.00 Ry     beta= 0.50
     Davidson diagonalization with overlap
     c_bands:  1 eigenvalues not converged
     ethr =  1.29E-07,  avg # of iterations = 20.0

     total cpu time spent up to now is       10.6 secs

     total energy              =    -501.48409515 Ry
     estimated scf accuracy    <       0.00337600 Ry

     iteration # 56     ecut=    30.00 Ry     beta= 0.50
     Davidson diagonalization with overlap
     ethr =  1.29E-07,  avg # of iterations =  2.0

     total cpu time spent up to now is       10.7 secs

     total energy              =    -501.48352634 Ry
     estimated scf accuracy    <       0.00257134 Ry

     iteration # 57     ecut=    30.00 Ry     beta= 0.50
     Davidson diagonalization with overlap
     c_bands:  1 eigenvalues not converged
     ethr =  1.29E-07,  avg # of iterations = 20.0

     total cpu time spent up to now is       10.9 secs

     total energy              =    -501.48342442 Ry
     estimated scf accuracy    <       0.03662420 Ry

     iteration # 58     ecut=    30.00 Ry     beta= 0.50
     Davidson diagonalization with overlap
     c_bands:  1 eigenvalues not converged
     ethr =  1.29E-07,  avg # of iterations = 20.0

     total cpu time spent up to now is       11.1 secs

     total energy              =    -501.48259808 Ry
     estimated scf accuracy    <       0.02939542 Ry

     iteration # 59     ecut=    30.00 Ry     beta= 0.50
     Davidson diagonalization with overlap
     c_bands:  1 eigenvalues not converged
     ethr =  1.29E-07,  avg # of iterations = 20.0

     total cpu time spent up to now is       11.2 secs

     total energy              =    -501.48276566 Ry
     estimated scf accuracy    <       0.00877065 Ry

     iteration # 60     ecut=    30.00 Ry     beta= 0.50
     Davidson diagonalization with overlap
     c_bands:  1 eigenvalues not converged
     ethr =  1.29E-07,  avg # of iterations = 20.0

     total cpu time spent up to now is       11.4 secs

     total energy              =    -501.48334103 Ry
     estimated scf accuracy    <       0.00597216 Ry

     iteration # 61     ecut=    30.00 Ry     beta= 0.50
     Davidson diagonalization with overlap
     c_bands:  1 eigenvalues not converged
     ethr =  1.29E-07,  avg # of iterations = 20.0

     total cpu time spent up to now is       11.5 secs

     total energy              =    -501.48371759 Ry
     estimated scf accuracy    <       0.00267997 Ry

     iteration # 62     ecut=    30.00 Ry     beta= 0.50
     Davidson diagonalization with overlap
     c_bands:  1 eigenvalues not converged
     ethr =  1.29E-07,  avg # of iterations = 20.0

     total cpu time spent up to now is       11.7 secs

     total energy              =    -501.48390074 Ry
     estimated scf accuracy    <       0.00240010 Ry

     iteration # 63     ecut=    30.00 Ry     beta= 0.50
     Davidson diagonalization with overlap
     c_bands:  1 eigenvalues not converged
     ethr =  1.29E-07,  avg # of iterations = 20.0

     total cpu time spent up to now is       11.8 secs

     total energy              =    -501.48395811 Ry
     estimated scf accuracy    <       0.00179702 Ry

     iteration # 64     ecut=    30.00 Ry     beta= 0.50
     Davidson diagonalization with overlap
     ethr =  1.29E-07,  avg # of iterations = 19.0

     total cpu time spent up to now is       11.9 secs

     total energy              =    -501.48391547 Ry
     estimated scf accuracy    <       0.00168109 Ry

     iteration # 65     ecut=    30.00 Ry     beta= 0.50
     Davidson diagonalization with overlap
     ethr =  1.29E-07,  avg # of iterations =  2.0

     total cpu time spent up to now is       12.0 secs

     total energy              =    -501.48388380 Ry
     estimated scf accuracy    <       0.00137462 Ry

     iteration # 66     ecut=    30.00 Ry     beta= 0.50
     Davidson diagonalization with overlap
     ethr =  1.29E-07,  avg # of iterations =  2.0

     total cpu time spent up to now is       12.1 secs

     total energy              =    -501.48394063 Ry
     estimated scf accuracy    <       0.00116832 Ry

     iteration # 67     ecut=    30.00 Ry     beta= 0.50
     Davidson diagonalization with overlap
     ethr =  1.29E-07,  avg # of iterations =  1.0

     total cpu time spent up to now is       12.1 secs

     total energy              =    -501.48393891 Ry
     estimated scf accuracy    <       0.00133488 Ry

     iteration # 68     ecut=    30.00 Ry     beta= 0.50
     Davidson diagonalization with overlap
     ethr =  1.29E-07,  avg # of iterations =  3.0

     total cpu time spent up to now is       12.2 secs

     total energy              =    -501.48392080 Ry
     estimated scf accuracy    <       0.00156037 Ry

     iteration # 69     ecut=    30.00 Ry     beta= 0.50
     Davidson diagonalization with overlap
     ethr =  1.29E-07,  avg # of iterations =  3.0

     total cpu time spent up to now is       12.3 secs

     total energy              =    -501.48347684 Ry
     estimated scf accuracy    <       0.00151518 Ry

     iteration # 70     ecut=    30.00 Ry     beta= 0.50
     Davidson diagonalization with overlap
     c_bands:  1 eigenvalues not converged
     ethr =  1.29E-07,  avg # of iterations = 20.0

     total cpu time spent up to now is       12.5 secs

     total energy              =    -501.48389488 Ry
     estimated scf accuracy    <       0.06838100 Ry

     iteration # 71     ecut=    30.00 Ry     beta= 0.50
     Davidson diagonalization with overlap
     c_bands:  1 eigenvalues not converged
     ethr =  1.29E-07,  avg # of iterations = 20.0

     total cpu time spent up to now is       12.7 secs

     total energy              =    -501.48049102 Ry
     estimated scf accuracy    <       0.04143277 Ry

     iteration # 72     ecut=    30.00 Ry     beta= 0.50
     Davidson diagonalization with overlap
     c_bands:  1 eigenvalues not converged
     ethr =  1.29E-07,  avg # of iterations = 20.0

     total cpu time spent up to now is       12.8 secs

     total energy              =    -501.48409820 Ry
     estimated scf accuracy    <       0.00823993 Ry

     iteration # 73     ecut=    30.00 Ry     beta= 0.50
     Davidson diagonalization with overlap
     ethr =  1.29E-07,  avg # of iterations = 18.0

     total cpu time spent up to now is       13.0 secs

     total energy              =    -501.48381191 Ry
     estimated scf accuracy    <       0.00405903 Ry

     iteration # 74     ecut=    30.00 Ry     beta= 0.50
     Davidson diagonalization with overlap
     ethr =  1.29E-07,  avg # of iterations =  6.0

     total cpu time spent up to now is       13.1 secs

     total energy              =    -501.48389204 Ry
     estimated scf accuracy    <       0.00129375 Ry

     iteration # 75     ecut=    30.00 Ry     beta= 0.50
     Davidson diagonalization with overlap
     ethr =  1.29E-07,  avg # of iterations =  1.0

     total cpu time spent up to now is       13.2 secs

     total energy              =    -501.48393017 Ry
     estimated scf accuracy    <       0.00115923 Ry

     iteration # 76     ecut=    30.00 Ry     beta= 0.50
     Davidson diagonalization with overlap
     ethr =  1.29E-07,  avg # of iterations =  1.0

     total cpu time spent up to now is       13.2 secs

     total energy              =    -501.48381207 Ry
     estimated scf accuracy    <       0.00124717 Ry

     iteration # 77     ecut=    30.00 Ry     beta= 0.50
     Davidson diagonalization with overlap
     ethr =  1.29E-07,  avg # of iterations = 10.0

     total cpu time spent up to now is       13.3 secs

     total energy              =    -501.48379215 Ry
     estimated scf accuracy    <       0.00092952 Ry

     iteration # 78     ecut=    30.00 Ry     beta= 0.50
     Davidson diagonalization with overlap
     ethr =  1.29E-07,  avg # of iterations =  3.0

     total cpu time spent up to now is       13.4 secs

     total energy              =    -501.48365774 Ry
     estimated scf accuracy    <       0.00070272 Ry

     iteration # 79     ecut=    30.00 Ry     beta= 0.50
     Davidson diagonalization with overlap
     c_bands:  1 eigenvalues not converged
     ethr =  1.29E-07,  avg # of iterations = 20.0

     total cpu time spent up to now is       13.6 secs

     total energy              =    -501.48469867 Ry
     estimated scf accuracy    <       0.03574363 Ry

     iteration # 80     ecut=    30.00 Ry     beta= 0.50
     Davidson diagonalization with overlap
     c_bands:  1 eigenvalues not converged
     ethr =  1.29E-07,  avg # of iterations = 20.0

     total cpu time spent up to now is       13.8 secs

     total energy              =    -501.48497569 Ry
     estimated scf accuracy    <       0.03496622 Ry

     iteration # 81     ecut=    30.00 Ry     beta= 0.50
     Davidson diagonalization with overlap
     ethr =  1.29E-07,  avg # of iterations =  2.0

     total cpu time spent up to now is       13.8 secs

     total energy              =    -501.48266037 Ry
     estimated scf accuracy    <       0.03547296 Ry

     iteration # 82     ecut=    30.00 Ry     beta= 0.50
     Davidson diagonalization with overlap
     c_bands:  1 eigenvalues not converged
     ethr =  1.29E-07,  avg # of iterations = 20.0

     total cpu time spent up to now is       14.0 secs

     total energy              =    -501.48387622 Ry
     estimated scf accuracy    <       0.00315300 Ry

     iteration # 83     ecut=    30.00 Ry     beta= 0.50
     Davidson diagonalization with overlap
     ethr =  1.29E-07,  avg # of iterations =  8.0

     total cpu time spent up to now is       14.1 secs

     total energy              =    -501.48383764 Ry
     estimated scf accuracy    <       0.00200629 Ry

     iteration # 84     ecut=    30.00 Ry     beta= 0.50
     Davidson diagonalization with overlap
     ethr =  1.29E-07,  avg # of iterations =  1.0

     total cpu time spent up to now is       14.2 secs

     total energy              =    -501.48386880 Ry
     estimated scf accuracy    <       0.00163735 Ry

     iteration # 85     ecut=    30.00 Ry     beta= 0.50
     Davidson diagonalization with overlap
     ethr =  1.29E-07,  avg # of iterations =  1.0

     total cpu time spent up to now is       14.2 secs

     total energy              =    -501.48369930 Ry
     estimated scf accuracy    <       0.00163727 Ry

     iteration # 86     ecut=    30.00 Ry     beta= 0.50
     Davidson diagonalization with overlap
     ethr =  1.29E-07,  avg # of iterations = 12.0

     total cpu time spent up to now is       14.4 secs

     total energy              =    -501.48373831 Ry
     estimated scf accuracy    <       0.00129209 Ry

     iteration # 87     ecut=    30.00 Ry     beta= 0.50
     Davidson diagonalization with overlap
     ethr =  1.29E-07,  avg # of iterations =  3.0

     total cpu time spent up to now is       14.4 secs

     total energy              =    -501.48346157 Ry
     estimated scf accuracy    <       0.00084561 Ry

     iteration # 88     ecut=    30.00 Ry     beta= 0.50
     Davidson diagonalization with overlap
     c_bands:  1 eigenvalues not converged
     ethr =  1.29E-07,  avg # of iterations = 20.0

     total cpu time spent up to now is       14.6 secs

     total energy              =    -501.48493465 Ry
     estimated scf accuracy    <       0.06151837 Ry

     iteration # 89     ecut=    30.00 Ry     beta= 0.50
     Davidson diagonalization with overlap
     ethr =  1.29E-07,  avg # of iterations = 15.0

     total cpu time spent up to now is       14.8 secs

     total energy              =    -501.48411967 Ry
     estimated scf accuracy    <       0.04586187 Ry

     iteration # 90     ecut=    30.00 Ry     beta= 0.50
     Davidson diagonalization with overlap
     ethr =  1.29E-07,  avg # of iterations =  6.0

     total cpu time spent up to now is       14.9 secs

     total energy              =    -501.48187115 Ry
     estimated scf accuracy    <       0.03783849 Ry

     iteration # 91     ecut=    30.00 Ry     beta= 0.50
     Davidson diagonalization with overlap
     c_bands:  1 eigenvalues not converged
     ethr =  1.29E-07,  avg # of iterations = 20.0

     total cpu time spent up to now is       15.0 secs

     total energy              =    -501.48355822 Ry
     estimated scf accuracy    <       0.00599102 Ry

     iteration # 92     ecut=    30.00 Ry     beta= 0.50
     Davidson diagonalization with overlap
     c_bands:  1 eigenvalues not converged
     ethr =  1.29E-07,  avg # of iterations = 20.0

     total cpu time spent up to now is       15.2 secs

     total energy              =    -501.48393238 Ry
     estimated scf accuracy    <       0.00194141 Ry

     iteration # 93     ecut=    30.00 Ry     beta= 0.50
     Davidson diagonalization with overlap
     ethr =  1.29E-07,  avg # of iterations =  2.0

     total cpu time spent up to now is       15.3 secs

     total energy              =    -501.48392171 Ry
     estimated scf accuracy    <       0.00156680 Ry

     iteration # 94     ecut=    30.00 Ry     beta= 0.50
     Davidson diagonalization with overlap
     ethr =  1.29E-07,  avg # of iterations =  1.0

     total cpu time spent up to now is       15.3 secs

     total energy              =    -501.48371671 Ry
     estimated scf accuracy    <       0.00145851 Ry

     iteration # 95     ecut=    30.00 Ry     beta= 0.50
     Davidson diagonalization with overlap
     c_bands:  1 eigenvalues not converged
     ethr =  1.29E-07,  avg # of iterations = 20.0

     total cpu time spent up to now is       15.5 secs

     total energy              =    -501.48386961 Ry
     estimated scf accuracy    <       0.01040449 Ry

     iteration # 96     ecut=    30.00 Ry     beta= 0.50
     Davidson diagonalization with overlap
     ethr =  1.29E-07,  avg # of iterations = 18.0

     total cpu time spent up to now is       15.6 secs

     total energy              =    -501.48376458 Ry
     estimated scf accuracy    <       0.00995706 Ry

     iteration # 97     ecut=    30.00 Ry     beta= 0.50
     Davidson diagonalization with overlap
     ethr =  1.29E-07,  avg # of iterations =  2.0

     total cpu time spent up to now is       15.7 secs

     total energy              =    -501.48374866 Ry
     estimated scf accuracy    <       0.00926666 Ry

     iteration # 98     ecut=    30.00 Ry     beta= 0.50
     Davidson diagonalization with overlap
     ethr =  1.29E-07,  avg # of iterations =  1.0

     total cpu time spent up to now is       15.8 secs

     total energy              =    -501.48375491 Ry
     estimated scf accuracy    <       0.00915932 Ry

     iteration # 99     ecut=    30.00 Ry     beta= 0.50
     Davidson diagonalization with overlap
     ethr =  1.29E-07,  avg # of iterations =  1.0

     total cpu time spent up to now is       15.8 secs

     total energy              =    -501.48393875 Ry
     estimated scf accuracy    <       0.00912637 Ry

     iteration #100     ecut=    30.00 Ry     beta= 0.50
     Davidson diagonalization with overlap
     c_bands:  1 eigenvalues not converged
     ethr =  1.29E-07,  avg # of iterations = 20.0

     total cpu time spent up to now is       16.0 secs

     total energy              =    -501.48379673 Ry
     estimated scf accuracy    <       0.01468041 Ry

     End of self-consistent calculation

     convergence NOT achieved after 100 iterations: stopping

     Writing config to output data dir ./pwscf.save/
     Message from routine punch:
     wavefunctions written to file
 
     init_run     :      0.94s CPU      4.18s WALL (       1 calls)
     electrons    :     11.15s CPU     11.75s WALL (       1 calls)

     Called by init_run:
     wfcinit      :      0.44s CPU      3.53s WALL (       1 calls)
                                        3.53s GPU  (       1 calls)
     potinit      :      0.04s CPU      0.12s WALL (       1 calls)
     hinit0       :      0.45s CPU      0.47s WALL (       1 calls)

     Called by electrons:
     c_bands      :      8.16s CPU      8.50s WALL (     101 calls)
     sum_band     :      1.37s CPU      1.56s WALL (     101 calls)
     v_of_rho     :      0.57s CPU      0.67s WALL (     101 calls)
     mix_rho      :      0.85s CPU      0.88s WALL (     101 calls)

     Called by c_bands:
     init_us_2    :      0.24s CPU      0.27s WALL (     203 calls)
     init_us_2:gp :      0.24s CPU      0.26s WALL (     203 calls)
     regterg      :      7.48s CPU      7.78s WALL (     101 calls)

     Called by *egterg:
     rdiaghg      :      3.85s CPU      4.56s WALL (    1181 calls)
                                        4.38s GPU  (    1181 calls)
     h_psi        :      3.08s CPU      5.71s WALL (    1183 calls)
                                        5.70s GPU  (    1183 calls)
     g_psi        :      0.00s CPU      0.03s WALL (    1081 calls)
                                        0.02s GPU  (    1081 calls)

     Called by h_psi:
     h_psi:calbec :      0.72s CPU      3.17s WALL (    1183 calls)
                                        3.17s GPU  (    1183 calls)
     vloc_psi     :      1.74s CPU      1.91s WALL (    1183 calls)
                                        1.88s GPU  (    1183 calls)
     add_vuspsi   :      0.48s CPU      0.58s WALL (    1183 calls)
                                        0.57s GPU  (    1183 calls)

     General routines
     calbec       :      0.71s CPU      3.15s WALL (    1183 calls)
     fft          :      0.90s CPU      1.04s WALL (     809 calls)
                                        0.17s GPU  (     505 calls)
     ffts         :      0.14s CPU      0.16s WALL (     101 calls)
     fftw         :      2.03s CPU      2.53s WALL (   10338 calls)
                                        2.20s GPU  (   10338 calls)
     davcio       :      0.00s CPU      0.01s WALL (      19 calls)
 
     Parallel routines
 
     PWSCF        :     12.14s CPU     16.02s WALL

 
   This run was terminated on:  15:10:54   9May2023            

=------------------------------------------------------------------------------=
   JOB DONE.
=------------------------------------------------------------------------------=
