An instance of this daemon is already running
An instance of this daemon is already running

     Program PWSCF v.7.1 starts on  9May2023 at 15: 5:21 

     This program is part of the open-source Quantum ESPRESSO suite
     for quantum simulation of materials; please cite
         "P. Giannozzi et al., J. Phys.:Condens. Matter 21 395502 (2009);
         "P. Giannozzi et al., J. Phys.:Condens. Matter 29 465901 (2017);
         "P. Giannozzi et al., J. Chem. Phys. 152 154105 (2020);
          URL http://www.quantum-espresso.org", 
     in publications or presentations arising from this work. More details at
     http://www.quantum-espresso.org/quote

     Parallel version (MPI & OpenMP), running on       4 processor cores
     Number of MPI processes:                 4
     Threads/MPI process:                     1

     MPI processes distributed on     1 nodes
     79142 MiB available memory on the printing compute node when the environment starts
 
     Reading input from pw-si-5.in
Warning: card &CELL ignored
Warning: card / ignored

     Current dimensions of program PWSCF are:
     Max number of different atomic species (ntypx) = 10
     Max number of k-points (npk) =  40000
     Max angular momentum in pseudopotentials (lmaxx) =  4

     IMPORTANT: XC functional enforced from input :
     Exchange-correlation= PBE
                           (   1   4   3   4   0   0   0)
     Any further DFT definition will be discarded
     Please, verify this is what you really want


     gamma-point specific algorithms are used
 
     K-points division:     npool     =       2
     R & G space division:  proc/nbgrp/npool/nimage =       2
     Subspace diagonalization in iterative solution of the eigenvalue problem:
     a serial algorithm will be used

     Message from routine divide_et_impera:
     suboptimal parallelization: some nodes have no k-points
 
     Parallelization info
     --------------------
     sticks:   dense  smooth     PW     G-vecs:    dense   smooth      PW
     Min        1954    1954    520                92150    92150   12584
     Max        1955    1955    521                92157    92157   12589
     Sum        3909    3909   1041               184307   184307   25173
 
     Using Slab Decomposition
 


     bravais-lattice index     =            0
     lattice parameter (alat)  =      20.2514  a.u.
     unit-cell volume          =    8305.4866 (a.u.)^3
     number of atoms/cell      =           64
     number of atomic types    =            1
     number of electrons       =       256.00
     number of Kohn-Sham states=          128
     kinetic-energy cutoff     =      30.0000  Ry
     charge density cutoff     =     120.0000  Ry
     scf convergence threshold =      1.0E-06
     mixing beta               =       0.5000
     number of iterations used =            8  plain     mixing
     Exchange-correlation= PBE
                           (   1   4   3   4   0   0   0)

     GPU acceleration is ACTIVE.
     GPU-aware MPI enabled

     Message from routine print_cuda_info:
     High GPU oversubscription detected. Are you sure this is what you want?

     celldm(1)=  20.251399  celldm(2)=   0.000000  celldm(3)=   0.000000
     celldm(4)=   0.000000  celldm(5)=   0.000000  celldm(6)=   0.000000

     crystal axes: (cart. coord. in units of alat)
               a(1) = (   1.000000   0.000000   0.000000 )  
               a(2) = (   0.000000   1.000000   0.000000 )  
               a(3) = (   0.000000   0.000000   1.000000 )  

     reciprocal axes: (cart. coord. in units 2 pi/alat)
               b(1) = (  1.000000  0.000000  0.000000 )  
               b(2) = (  0.000000  1.000000  0.000000 )  
               b(3) = (  0.000000  0.000000  1.000000 )  


     PseudoPot. # 1 for Si read from file:
     /home/ppiaggi/pseudos/Si_ONCV_PBE_sr.upf
     MD5 check sum: 8553c464762ac42b85b1eed164b4d029
     Pseudo is Norm-conserving, Zval =  4.0
     Generated using ONCVPSP code by D. R. Hamann
     Using radial grid of 1510 points,  4 beta functions with: 
                l(1) =   0
                l(2) =   0
                l(3) =   1
                l(4) =   1

     atomic species   valence    mass     pseudopotential
        Si             4.00    28.08500     Si( 1.00)

     No symmetry found



   Cartesian axes

     site n.     atom                  positions (alat units)
         1           Si  tau(   1) = (   0.2740180   0.1853170   0.4207280  )
         2           Si  tau(   2) = (   0.9905270   0.4948160   0.3224480  )
         3           Si  tau(   3) = (   0.5216680   0.6755570   0.2609740  )
         4           Si  tau(   4) = (   0.8615720   0.1131800   0.7271150  )
         5           Si  tau(   5) = (   0.6422550   0.5174460   0.6730570  )
         6           Si  tau(   6) = (   0.4946760   0.1450100   0.9488460  )
         7           Si  tau(   7) = (   0.6162300   0.3746320   0.1106220  )
         8           Si  tau(   8) = (   0.6456480   0.0261310   0.3079010  )
         9           Si  tau(   9) = (   0.9715040   0.3882230   0.5369540  )
        10           Si  tau(  10) = (   0.4922150   0.9822050   0.4513920  )
        11           Si  tau(  11) = (   0.2047340   0.9865620   0.4963200  )
        12           Si  tau(  12) = (   0.1682610   0.2547810   0.8405230  )
        13           Si  tau(  13) = (   0.6915470   0.9588590   0.7295350  )
        14           Si  tau(  14) = (   0.7478470   0.6556970   0.2264400  )
        15           Si  tau(  15) = (   0.1106520   0.4904020   0.8392520  )
        16           Si  tau(  16) = (   0.5169980   0.6566050   0.5217490  )
        17           Si  tau(  17) = (   0.4548000   0.0196672   0.7393480  )
        18           Si  tau(  18) = (   0.9619740   0.9580280   0.4420350  )
        19           Si  tau(  19) = (   0.8172500   0.2353410   0.5527810  )
        20           Si  tau(  20) = (   0.3309120   0.7652920   0.3751210  )
        21           Si  tau(  21) = (   0.5972290   0.6073410   0.9167770  )
        22           Si  tau(  22) = (   0.4971690   0.2024880   0.2068250  )
        23           Si  tau(  23) = (   0.3115930   0.4700750   0.5344510  )
        24           Si  tau(  24) = (   0.9371340   0.8041740   0.8867420  )
        25           Si  tau(  25) = (   0.8859040   0.4850630   0.9162240  )
        26           Si  tau(  26) = (   0.4563690   0.5266640   0.0837782  )
        27           Si  tau(  27) = (   0.6491900   0.8226690   0.5301960  )
        28           Si  tau(  28) = (   0.2562040   0.2458830   0.1920020  )
        29           Si  tau(  29) = (   0.9011730   0.7345470   0.3519230  )
        30           Si  tau(  30) = (   0.9607820   0.1945280   0.9194930  )
        31           Si  tau(  31) = (   0.7456410   0.8981240   0.9817180  )
        32           Si  tau(  32) = (   0.5679470   0.3169520   0.7470130  )
        33           Si  tau(  33) = (   0.2080590   0.9876580   0.9662960  )
        34           Si  tau(  34) = (   0.7732320   0.4349380   0.2498250  )
        35           Si  tau(  35) = (   0.1661060   0.6289240   0.4911180  )
        36           Si  tau(  36) = (   0.3161830   0.8174410   0.6148420  )
        37           Si  tau(  37) = (   0.3030380   0.7043320   0.8294880  )
        38           Si  tau(  38) = (   0.7691240   0.6648090   0.0215041  )
        39           Si  tau(  39) = (   0.3159310   0.9627730   0.2617680  )
        40           Si  tau(  40) = (   0.6927830   0.4100610   0.4549180  )
        41           Si  tau(  41) = (   0.7227460   0.1049940   0.0552139  )
        42           Si  tau(  42) = (   0.3422340   0.3323870   0.9481010  )
        43           Si  tau(  43) = (   0.5991710   0.1642090   0.6054020  )
        44           Si  tau(  44) = (   0.2090480   0.0355691   0.7519570  )
        45           Si  tau(  45) = (   0.3996890   0.5017770   0.7819460  )
        46           Si  tau(  46) = (   0.0421958   0.3494840   0.1235820  )
        47           Si  tau(  47) = (   0.5174630   0.8337170   0.8900670  )
        48           Si  tau(  48) = (   0.7427920   0.2952270   0.8964350  )
        49           Si  tau(  49) = (   0.4842290   0.3036340   0.4400960  )
        50           Si  tau(  50) = (   0.8347630   0.1306740   0.3745230  )
        51           Si  tau(  51) = (   0.4131740   0.9750670   0.0366742  )
        52           Si  tau(  52) = (   0.0682522   0.6931210   0.7031690  )
        53           Si  tau(  53) = (   0.1784900   0.2785390   0.5929930  )
        54           Si  tau(  54) = (   0.1273040   0.6985010   0.2561740  )
        55           Si  tau(  55) = (   0.9897730   0.9974530   0.0415975  )
        56           Si  tau(  56) = (   0.8694610   0.2259810   0.1668450  )
        57           Si  tau(  57) = (   0.1888820   0.5195740   0.0520590  )
        58           Si  tau(  58) = (   0.1597500   0.7606600   0.0013719  )
        59           Si  tau(  59) = (   0.8704190   0.5309050   0.6811270  )
        60           Si  tau(  60) = (   0.8459230   0.7370330   0.5763120  )
        61           Si  tau(  61) = (   0.5899950   0.8713920   0.1620410  )
        62           Si  tau(  62) = (   0.9963030   0.9429560   0.6679840  )
        63           Si  tau(  63) = (   0.0851377   0.9432160   0.2312980  )
        64           Si  tau(  64) = (   0.3289520   0.4296520   0.3008840  )

     number of k points=     1
                       cart. coord. in units 2pi/alat
        k(    1) = (   0.0000000   0.0000000   0.0000000), wk =   2.0000000

     Dense  grid:    92154 G-vectors     FFT dimensions: (  72,  72,  72)

     Estimated max dynamical RAM per process >     135.49 MB

     Estimated total dynamical RAM >     519.47 MB

     Initial potential from superposition of free atoms

     starting charge     255.9608, renormalised to     256.0000
     Starting wfcs are  256 randomized atomic wfcs

     total cpu time spent up to now is        4.1 secs

     Self-consistent Calculation

     iteration #  1     ecut=    30.00 Ry     beta= 0.50
     Davidson diagonalization with overlap
     ethr =  1.00E-02,  avg # of iterations =  2.0

     Threshold (ethr) on eigenvalues was too large:
     Diagonalizing with lowered threshold

     Davidson diagonalization with overlap
     ethr =  3.77E-04,  avg # of iterations = 11.0

     total cpu time spent up to now is        4.3 secs

     total energy              =    -501.29235895 Ry
     estimated scf accuracy    <       1.19651872 Ry

     iteration #  2     ecut=    30.00 Ry     beta= 0.50
     Davidson diagonalization with overlap
     ethr =  4.67E-04,  avg # of iterations = 12.0

     total cpu time spent up to now is        4.4 secs

     total energy              =    -500.82187983 Ry
     estimated scf accuracy    <       5.30092528 Ry

     iteration #  3     ecut=    30.00 Ry     beta= 0.50
     Davidson diagonalization with overlap
     ethr =  4.67E-04,  avg # of iterations = 16.0

     total cpu time spent up to now is        4.6 secs

     total energy              =    -501.34527161 Ry
     estimated scf accuracy    <       1.82390308 Ry

     iteration #  4     ecut=    30.00 Ry     beta= 0.50
     Davidson diagonalization with overlap
     ethr =  4.67E-04,  avg # of iterations =  8.0

     total cpu time spent up to now is        4.7 secs

     total energy              =    -501.46312207 Ry
     estimated scf accuracy    <       0.43058226 Ry

     iteration #  5     ecut=    30.00 Ry     beta= 0.50
     Davidson diagonalization with overlap
     ethr =  1.68E-04,  avg # of iterations =  6.0

     total cpu time spent up to now is        4.8 secs

     total energy              =    -501.50320607 Ry
     estimated scf accuracy    <       0.10168559 Ry

     iteration #  6     ecut=    30.00 Ry     beta= 0.50
     Davidson diagonalization with overlap
     c_bands:  1 eigenvalues not converged
     ethr =  3.97E-05,  avg # of iterations = 20.0

     total cpu time spent up to now is        4.9 secs

     total energy              =    -501.51684542 Ry
     estimated scf accuracy    <       0.17280590 Ry

     iteration #  7     ecut=    30.00 Ry     beta= 0.50
     Davidson diagonalization with overlap
     ethr =  3.97E-05,  avg # of iterations = 11.0

     total cpu time spent up to now is        5.0 secs

     total energy              =    -501.52696927 Ry
     estimated scf accuracy    <       0.02072778 Ry

     iteration #  8     ecut=    30.00 Ry     beta= 0.50
     Davidson diagonalization with overlap
     ethr =  8.10E-06,  avg # of iterations =  8.0

     total cpu time spent up to now is        5.2 secs

     total energy              =    -501.52915888 Ry
     estimated scf accuracy    <       0.01416335 Ry

     iteration #  9     ecut=    30.00 Ry     beta= 0.50
     Davidson diagonalization with overlap
     ethr =  5.53E-06,  avg # of iterations =  7.0

     total cpu time spent up to now is        5.3 secs

     total energy              =    -501.52977260 Ry
     estimated scf accuracy    <       0.00516559 Ry

     iteration # 10     ecut=    30.00 Ry     beta= 0.50
     Davidson diagonalization with overlap
     c_bands:  1 eigenvalues not converged
     ethr =  2.02E-06,  avg # of iterations = 20.0

     total cpu time spent up to now is        5.4 secs

     total energy              =    -501.53039001 Ry
     estimated scf accuracy    <       0.00522097 Ry

     iteration # 11     ecut=    30.00 Ry     beta= 0.50
     Davidson diagonalization with overlap
     ethr =  2.02E-06,  avg # of iterations =  2.0

     total cpu time spent up to now is        5.5 secs

     total energy              =    -501.53020955 Ry
     estimated scf accuracy    <       0.00291531 Ry

     iteration # 12     ecut=    30.00 Ry     beta= 0.50
     Davidson diagonalization with overlap
     c_bands:  1 eigenvalues not converged
     ethr =  1.14E-06,  avg # of iterations = 20.0

     total cpu time spent up to now is        5.7 secs

     total energy              =    -501.53060709 Ry
     estimated scf accuracy    <       0.00128285 Ry

     iteration # 13     ecut=    30.00 Ry     beta= 0.50
     Davidson diagonalization with overlap
     ethr =  5.01E-07,  avg # of iterations = 10.0

     total cpu time spent up to now is        5.8 secs

     total energy              =    -501.53060000 Ry
     estimated scf accuracy    <       0.00086052 Ry

     iteration # 14     ecut=    30.00 Ry     beta= 0.50
     Davidson diagonalization with overlap
     c_bands:  1 eigenvalues not converged
     ethr =  3.36E-07,  avg # of iterations = 20.0

     total cpu time spent up to now is        5.9 secs

     total energy              =    -501.53065200 Ry
     estimated scf accuracy    <       0.00012974 Ry

     iteration # 15     ecut=    30.00 Ry     beta= 0.50
     Davidson diagonalization with overlap
     c_bands:  1 eigenvalues not converged
     ethr =  5.07E-08,  avg # of iterations = 20.0

     total cpu time spent up to now is        6.1 secs

     total energy              =    -501.53067921 Ry
     estimated scf accuracy    <       0.00013664 Ry

     iteration # 16     ecut=    30.00 Ry     beta= 0.50
     Davidson diagonalization with overlap
     ethr =  5.07E-08,  avg # of iterations =  9.0

     total cpu time spent up to now is        6.2 secs

     total energy              =    -501.53068402 Ry
     estimated scf accuracy    <       0.00008135 Ry

     iteration # 17     ecut=    30.00 Ry     beta= 0.50
     Davidson diagonalization with overlap
     ethr =  3.18E-08,  avg # of iterations =  6.0

     total cpu time spent up to now is        6.3 secs

     total energy              =    -501.53068726 Ry
     estimated scf accuracy    <       0.00003704 Ry

     iteration # 18     ecut=    30.00 Ry     beta= 0.50
     Davidson diagonalization with overlap
     c_bands:  1 eigenvalues not converged
     ethr =  1.45E-08,  avg # of iterations = 20.0

     total cpu time spent up to now is        6.4 secs

     total energy              =    -501.53068942 Ry
     estimated scf accuracy    <       0.00000749 Ry

     iteration # 19     ecut=    30.00 Ry     beta= 0.50
     Davidson diagonalization with overlap
     ethr =  2.93E-09,  avg # of iterations = 19.0

     total cpu time spent up to now is        6.6 secs

     total energy              =    -501.53069066 Ry
     estimated scf accuracy    <       0.00002408 Ry

     iteration # 20     ecut=    30.00 Ry     beta= 0.50
     Davidson diagonalization with overlap
     c_bands:  1 eigenvalues not converged
     ethr =  2.93E-09,  avg # of iterations = 20.0

     total cpu time spent up to now is        6.8 secs

     total energy              =    -501.53069170 Ry
     estimated scf accuracy    <       0.00001228 Ry

     iteration # 21     ecut=    30.00 Ry     beta= 0.50
     Davidson diagonalization with overlap
     ethr =  2.93E-09,  avg # of iterations =  3.0

     total cpu time spent up to now is        6.9 secs

     total energy              =    -501.53069164 Ry
     estimated scf accuracy    <       0.00000832 Ry

     iteration # 22     ecut=    30.00 Ry     beta= 0.50
     Davidson diagonalization with overlap
     ethr =  2.93E-09,  avg # of iterations =  1.0

     total cpu time spent up to now is        6.9 secs

     total energy              =    -501.53069077 Ry
     estimated scf accuracy    <       0.00000582 Ry

     iteration # 23     ecut=    30.00 Ry     beta= 0.50
     Davidson diagonalization with overlap
     c_bands:  1 eigenvalues not converged
     ethr =  2.27E-09,  avg # of iterations = 20.0

     total cpu time spent up to now is        7.1 secs

     total energy              =    -501.53069186 Ry
     estimated scf accuracy    <       0.00000637 Ry

     iteration # 24     ecut=    30.00 Ry     beta= 0.50
     Davidson diagonalization with overlap
     ethr =  2.27E-09,  avg # of iterations = 12.0

     total cpu time spent up to now is        7.2 secs

     total energy              =    -501.53069180 Ry
     estimated scf accuracy    <       0.00000521 Ry

     iteration # 25     ecut=    30.00 Ry     beta= 0.50
     Davidson diagonalization with overlap
     ethr =  2.03E-09,  avg # of iterations =  2.0

     total cpu time spent up to now is        7.3 secs

     total energy              =    -501.53069155 Ry
     estimated scf accuracy    <       0.00000417 Ry

     iteration # 26     ecut=    30.00 Ry     beta= 0.50
     Davidson diagonalization with overlap
     ethr =  1.63E-09,  avg # of iterations =  3.0

     total cpu time spent up to now is        7.4 secs

     total energy              =    -501.53069157 Ry
     estimated scf accuracy    <       0.00000269 Ry

     iteration # 27     ecut=    30.00 Ry     beta= 0.50
     Davidson diagonalization with overlap
     ethr =  1.05E-09,  avg # of iterations =  2.0

     total cpu time spent up to now is        7.4 secs

     total energy              =    -501.53069155 Ry
     estimated scf accuracy    <       0.00000222 Ry

     iteration # 28     ecut=    30.00 Ry     beta= 0.50
     Davidson diagonalization with overlap
     c_bands:  1 eigenvalues not converged
     ethr =  8.66E-10,  avg # of iterations = 20.0

     total cpu time spent up to now is        7.6 secs

     End of self-consistent calculation

          k = 0.0000 0.0000 0.0000 ( 11492 PWs)   bands (ev):

    -5.4884  -4.5639  -4.5136  -4.3844  -4.2848  -4.2688  -4.1473  -3.5484
    -3.5388  -3.3609  -3.3350  -3.2413  -3.1581  -3.1355  -3.0837  -3.0048
    -2.8776  -2.7759  -2.6108  -2.2585  -2.1861  -2.1272  -1.9151  -1.8288
    -1.7388  -1.7024  -1.6719  -1.2126  -1.0439  -0.8849  -0.8093  -0.7551
    -0.5597  -0.4193  -0.3616  -0.2010  -0.1598   0.0256   0.0422   0.1434
     0.1793   0.1996   0.2742   0.4074   0.4216   0.5519   0.6156   0.7328
     0.7962   0.9169   1.0027   1.1184   1.1676   1.2738   1.3573   1.4658
     1.5275   1.5959   1.7016   1.8723   2.0410   2.0454   2.0879   2.1963
     2.3237   2.4853   2.5058   2.5515   2.6481   2.7143   2.8325   2.8918
     2.9445   3.0377   3.1025   3.1143   3.2148   3.3812   3.4293   3.4437
     3.6529   3.9017   3.9928   4.1122   4.1727   4.2461   4.3533   4.3682
     4.5304   4.5606   4.6098   4.6371   4.7427   4.8157   4.8505   4.9181
     5.0200   5.1231   5.1449   5.1818   5.2780   5.3045   5.3704   5.4036
     5.4686   5.5628   5.5799   5.6516   5.7637   5.7775   5.8457   5.8755
     5.9334   6.0095   6.0768   6.1562   6.2057   6.3152   6.3363   6.3811
     6.4047   6.4607   6.4923   6.6344   6.6824   6.7823   6.8277   6.8519

     highest occupied level (ev):     6.8519

!    total energy              =    -501.53069164 Ry
     estimated scf accuracy    <       0.00000032 Ry

     The total energy is the sum of the following terms:
     one-electron contribution =     179.69545161 Ry
     hartree contribution      =      26.18128863 Ry
     xc contribution           =    -150.75123373 Ry
     ewald contribution        =    -556.65619815 Ry

     convergence has been achieved in  28 iterations

     Forces acting on atoms (cartesian axes, Ry/au):

     atom    1 type  1   force =     0.03840251   -0.02095046   -0.02502813
     atom    2 type  1   force =     0.00663165   -0.00515360    0.01251008
     atom    3 type  1   force =     0.00103688    0.01166410   -0.00953646
     atom    4 type  1   force =     0.00312056   -0.00048747    0.03687198
     atom    5 type  1   force =    -0.00864925    0.01175348   -0.02964691
     atom    6 type  1   force =     0.02917747    0.05792216   -0.01762764
     atom    7 type  1   force =    -0.00542138   -0.02517384   -0.03250128
     atom    8 type  1   force =     0.00673389    0.03583389   -0.02246398
     atom    9 type  1   force =     0.05302204    0.01743861    0.00107062
     atom   10 type  1   force =    -0.01453160   -0.00957850    0.02371728
     atom   11 type  1   force =    -0.01442965   -0.02234571   -0.00052152
     atom   12 type  1   force =    -0.03121003   -0.00505990   -0.05430573
     atom   13 type  1   force =    -0.01664216   -0.01010867    0.01979482
     atom   14 type  1   force =    -0.04511825   -0.01302530    0.03213960
     atom   15 type  1   force =    -0.01619285   -0.01676796    0.00677464
     atom   16 type  1   force =    -0.04221705   -0.04554549    0.02342961
     atom   17 type  1   force =     0.00681214    0.00248050    0.01574322
     atom   18 type  1   force =     0.02638031   -0.01654473   -0.02434069
     atom   19 type  1   force =    -0.03606992    0.02542613    0.00203735
     atom   20 type  1   force =     0.01115870    0.02180917    0.00225176
     atom   21 type  1   force =    -0.07609858    0.02073586   -0.03195425
     atom   22 type  1   force =     0.00634414    0.00428110    0.00158286
     atom   23 type  1   force =     0.03030301   -0.01624879    0.02310025
     atom   24 type  1   force =     0.02134690    0.01449005    0.00958302
     atom   25 type  1   force =     0.01555866   -0.00862167   -0.01779703
     atom   26 type  1   force =    -0.03044748    0.01638222    0.01824967
     atom   27 type  1   force =     0.01145905    0.05026406   -0.00401803
     atom   28 type  1   force =     0.00714655    0.01569256    0.01203044
     atom   29 type  1   force =     0.04943881    0.01296720    0.05330367
     atom   30 type  1   force =     0.00905491   -0.00631832   -0.00682257
     atom   31 type  1   force =    -0.03074322   -0.02183056   -0.02473934
     atom   32 type  1   force =     0.00536109    0.03975898    0.05700885
     atom   33 type  1   force =    -0.02385295   -0.03757828   -0.00693983
     atom   34 type  1   force =     0.01741885   -0.00088716    0.01430800
     atom   35 type  1   force =    -0.01634820    0.00337487    0.00606556
     atom   36 type  1   force =     0.02685433   -0.01059598   -0.00442755
     atom   37 type  1   force =     0.01659951    0.01511478   -0.01607702
     atom   38 type  1   force =     0.07433960    0.01450112   -0.04952306
     atom   39 type  1   force =     0.00061990   -0.00509941    0.00964402
     atom   40 type  1   force =    -0.03272416    0.00106841    0.03067383
     atom   41 type  1   force =    -0.04301317    0.03365330   -0.00798418
     atom   42 type  1   force =     0.03849258    0.00002891   -0.00250252
     atom   43 type  1   force =    -0.02294023   -0.06022129   -0.03971597
     atom   44 type  1   force =     0.00963261    0.02262042   -0.00237453
     atom   45 type  1   force =     0.01555195   -0.02742227   -0.02208540
     atom   46 type  1   force =     0.03201787    0.02807327   -0.00207982
     atom   47 type  1   force =     0.00566530   -0.02394231   -0.02054299
     atom   48 type  1   force =    -0.01281330    0.01983511    0.03233162
     atom   49 type  1   force =    -0.01145659   -0.00806694   -0.02625107
     atom   50 type  1   force =    -0.00930520   -0.04118986   -0.05733440
     atom   51 type  1   force =    -0.00616250   -0.03302292    0.05281438
     atom   52 type  1   force =     0.00028502   -0.01013652   -0.00937255
     atom   53 type  1   force =    -0.04817384    0.06924953    0.03570291
     atom   54 type  1   force =    -0.01072226    0.00459882   -0.01180222
     atom   55 type  1   force =    -0.01638501    0.00868620   -0.03276448
     atom   56 type  1   force =    -0.01631869   -0.01205516    0.04668472
     atom   57 type  1   force =     0.01749782    0.02141039   -0.00273945
     atom   58 type  1   force =    -0.02505754   -0.00646067    0.00694781
     atom   59 type  1   force =    -0.00310701    0.01910581    0.01736296
     atom   60 type  1   force =     0.03230296   -0.00010229   -0.00746727
     atom   61 type  1   force =     0.00957017   -0.01757541   -0.00147030
     atom   62 type  1   force =    -0.00090248   -0.03740284   -0.00069357
     atom   63 type  1   force =     0.02015216   -0.04595015    0.03451004
     atom   64 type  1   force =     0.01156465    0.00124940   -0.01279383

     Total force =     0.355765     Total SCF correction =     0.000855


     Computing stress (Cartesian axis) and pressure

          total   stress  (Ry/bohr**3)                   (kbar)     P=      -31.01
  -0.00026271   0.00004612  -0.00001728          -38.65        6.78       -2.54
   0.00004612  -0.00013681  -0.00000652            6.78      -20.13       -0.96
  -0.00001728  -0.00000652  -0.00023286           -2.54       -0.96      -34.26

 
     init_run     :      0.91s CPU      4.01s WALL (       1 calls)
     electrons    :      3.31s CPU      3.50s WALL (       1 calls)
     forces       :      0.03s CPU      0.03s WALL (       1 calls)
     stress       :      0.12s CPU      0.13s WALL (       1 calls)

     Called by init_run:
     wfcinit      :      0.40s CPU      3.36s WALL (       1 calls)
                                        3.36s GPU  (       1 calls)
     potinit      :      0.04s CPU      0.12s WALL (       1 calls)
     hinit0       :      0.45s CPU      0.47s WALL (       1 calls)

     Called by electrons:
     c_bands      :      2.47s CPU      2.56s WALL (      29 calls)
     sum_band     :      0.40s CPU      0.47s WALL (      29 calls)
     v_of_rho     :      0.17s CPU      0.26s WALL (      29 calls)
     mix_rho      :      0.22s CPU      0.23s WALL (      29 calls)

     Called by c_bands:
     init_us_2    :      0.07s CPU      0.08s WALL (      59 calls)
     init_us_2:gp :      0.07s CPU      0.08s WALL (      59 calls)
     regterg      :      2.26s CPU      2.34s WALL (      29 calls)

     Called by *egterg:
     rdiaghg      :      1.19s CPU      1.81s WALL (     358 calls)
                                        1.75s GPU  (     358 calls)
     h_psi        :      1.14s CPU      3.56s WALL (     360 calls)
                                        3.55s GPU  (     360 calls)
     g_psi        :      0.00s CPU      0.01s WALL (     330 calls)
                                        0.01s GPU  (     330 calls)

     Called by h_psi:
     h_psi:calbec :      0.43s CPU      2.77s WALL (     360 calls)
                                        2.77s GPU  (     360 calls)
     vloc_psi     :      0.50s CPU      0.57s WALL (     360 calls)
                                        0.56s GPU  (     360 calls)
     add_vuspsi   :      0.17s CPU      0.20s WALL (     360 calls)
                                        0.20s GPU  (     360 calls)

     General routines
     calbec       :      0.43s CPU      2.77s WALL (     365 calls)
     fft          :      0.58s CPU      0.69s WALL (     239 calls)
                                        0.12s GPU  (     151 calls)
     ffts         :      0.04s CPU      0.04s WALL (      29 calls)
     fftw         :      0.58s CPU      0.76s WALL (    2992 calls)
                                        0.66s GPU  (    2992 calls)
 
     Parallel routines
 
     PWSCF        :      4.41s CPU      7.76s WALL

 
   This run was terminated on:  15: 5:29   9May2023            

=------------------------------------------------------------------------------=
   JOB DONE.
=------------------------------------------------------------------------------=
