An instance of this daemon is already running
An instance of this daemon is already running
An instance of this daemon is already running

     Program PWSCF v.7.1 starts on  9May2023 at 15:17:45 

     This program is part of the open-source Quantum ESPRESSO suite
     for quantum simulation of materials; please cite
         "P. Giannozzi et al., J. Phys.:Condens. Matter 21 395502 (2009);
         "P. Giannozzi et al., J. Phys.:Condens. Matter 29 465901 (2017);
         "P. Giannozzi et al., J. Chem. Phys. 152 154105 (2020);
          URL http://www.quantum-espresso.org", 
     in publications or presentations arising from this work. More details at
     http://www.quantum-espresso.org/quote

     Parallel version (MPI & OpenMP), running on       4 processor cores
     Number of MPI processes:                 4
     Threads/MPI process:                     1

     MPI processes distributed on     1 nodes
     56351 MiB available memory on the printing compute node when the environment starts
 
     Reading input from pw-si-62.in
Warning: card &CELL ignored
Warning: card / ignored

     Current dimensions of program PWSCF are:
     Max number of different atomic species (ntypx) = 10
     Max number of k-points (npk) =  40000
     Max angular momentum in pseudopotentials (lmaxx) =  4

     IMPORTANT: XC functional enforced from input :
     Exchange-correlation= PBE
                           (   1   4   3   4   0   0   0)
     Any further DFT definition will be discarded
     Please, verify this is what you really want


     gamma-point specific algorithms are used
 
     K-points division:     npool     =       2
     R & G space division:  proc/nbgrp/npool/nimage =       2
     Subspace diagonalization in iterative solution of the eigenvalue problem:
     a serial algorithm will be used

     Message from routine divide_et_impera:
     suboptimal parallelization: some nodes have no k-points
 
     Parallelization info
     --------------------
     sticks:   dense  smooth     PW     G-vecs:    dense   smooth      PW
     Min        1991    1991    524                94089    94089   12836
     Max        1994    1994    525                94094    94094   12841
     Sum        3985    3985   1049               188183   188183   25677
 
     Using Slab Decomposition
 


     bravais-lattice index     =            0
     lattice parameter (alat)  =      20.3966  a.u.
     unit-cell volume          =    8485.3639 (a.u.)^3
     number of atoms/cell      =           64
     number of atomic types    =            1
     number of electrons       =       256.00
     number of Kohn-Sham states=          128
     kinetic-energy cutoff     =      30.0000  Ry
     charge density cutoff     =     120.0000  Ry
     scf convergence threshold =      1.0E-06
     mixing beta               =       0.5000
     number of iterations used =            8  plain     mixing
     Exchange-correlation= PBE
                           (   1   4   3   4   0   0   0)

     GPU acceleration is ACTIVE.
     GPU-aware MPI enabled

     Message from routine print_cuda_info:
     High GPU oversubscription detected. Are you sure this is what you want?

     celldm(1)=  20.396555  celldm(2)=   0.000000  celldm(3)=   0.000000
     celldm(4)=   0.000000  celldm(5)=   0.000000  celldm(6)=   0.000000

     crystal axes: (cart. coord. in units of alat)
               a(1) = (   1.000000   0.000000   0.000000 )  
               a(2) = (   0.000000   1.000000   0.000000 )  
               a(3) = (   0.000000   0.000000   1.000000 )  

     reciprocal axes: (cart. coord. in units 2 pi/alat)
               b(1) = (  1.000000  0.000000  0.000000 )  
               b(2) = (  0.000000  1.000000  0.000000 )  
               b(3) = (  0.000000  0.000000  1.000000 )  


     PseudoPot. # 1 for Si read from file:
     /home/ppiaggi/pseudos/Si_ONCV_PBE_sr.upf
     MD5 check sum: 8553c464762ac42b85b1eed164b4d029
     Pseudo is Norm-conserving, Zval =  4.0
     Generated using ONCVPSP code by D. R. Hamann
     Using radial grid of 1510 points,  4 beta functions with: 
                l(1) =   0
                l(2) =   0
                l(3) =   1
                l(4) =   1

     atomic species   valence    mass     pseudopotential
        Si             4.00    28.08500     Si( 1.00)

     No symmetry found



   Cartesian axes

     site n.     atom                  positions (alat units)
         1           Si  tau(   1) = (   0.0187227   0.5137420   0.8951040  )
         2           Si  tau(   2) = (   0.1016180   0.0260381   0.9867480  )
         3           Si  tau(   3) = (   0.4382900   0.4534120   0.7032720  )
         4           Si  tau(   4) = (   0.7713460   0.4124190   0.2709450  )
         5           Si  tau(   5) = (   0.0878302   0.6385750   0.5900540  )
         6           Si  tau(   6) = (   0.8778780   0.5984010   0.5125580  )
         7           Si  tau(   7) = (   0.9229910   0.1701710   0.9004720  )
         8           Si  tau(   8) = (   0.6692080   0.9027810   0.0813557  )
         9           Si  tau(   9) = (   0.1191890   0.2174860   0.4485070  )
        10           Si  tau(  10) = (   0.1651880   0.8570090   0.6115340  )
        11           Si  tau(  11) = (   0.4608610   0.6954020   0.6936790  )
        12           Si  tau(  12) = (   0.0262812   0.3345310   0.1784520  )
        13           Si  tau(  13) = (   0.5898480   0.5075900   0.3644030  )
        14           Si  tau(  14) = (   0.6670170   0.7263180   0.4054810  )
        15           Si  tau(  15) = (   0.9663000   0.7997330   0.9369150  )
        16           Si  tau(  16) = (   0.1672950   0.4199130   0.4242240  )
        17           Si  tau(  17) = (   0.0356315   0.7055130   0.1993100  )
        18           Si  tau(  18) = (   0.5314410   0.5753940   0.9400040  )
        19           Si  tau(  19) = (   0.0376641   0.0983330   0.2115070  )
        20           Si  tau(  20) = (   0.4645910   0.5628350   0.1745610  )
        21           Si  tau(  21) = (   0.2667420   0.4384560   0.2012370  )
        22           Si  tau(  22) = (   0.8221140   0.1923240   0.3694090  )
        23           Si  tau(  23) = (   0.0685869   0.9556560   0.4264060  )
        24           Si  tau(  24) = (   0.8437580   0.7447980   0.1294480  )
        25           Si  tau(  25) = (   0.2917010   0.1691720   0.2490680  )
        26           Si  tau(  26) = (   0.2277010   0.1866140   0.6506940  )
        27           Si  tau(  27) = (   0.6558520   0.8854080   0.5540180  )
        28           Si  tau(  28) = (   0.2598440   0.6681030   0.8097910  )
        29           Si  tau(  29) = (   0.2551010   0.3603680   0.9915730  )
        30           Si  tau(  30) = (   0.7142100   0.8173200   0.7538290  )
        31           Si  tau(  31) = (   0.8804550   0.8092760   0.3833690  )
        32           Si  tau(  32) = (   0.3547960   0.7614490   0.0722699  )
        33           Si  tau(  33) = (   0.1951680   0.8946110   0.2238720  )
        34           Si  tau(  34) = (   0.2198450   0.8797090   0.8643300  )
        35           Si  tau(  35) = (   0.0837812   0.3185460   0.8317980  )
        36           Si  tau(  36) = (   0.9991730   0.5339590   0.3298560  )
        37           Si  tau(  37) = (   0.7402390   0.4320630   0.5426970  )
        38           Si  tau(  38) = (   0.6288650   0.1168590   0.4509970  )
        39           Si  tau(  39) = (   0.8722660   0.9870140   0.5420970  )
        40           Si  tau(  40) = (   0.3033360   0.1419050   0.0308289  )
        41           Si  tau(  41) = (   0.3962660   0.9264490   0.3388810  )
        42           Si  tau(  42) = (   0.4194640   0.3705860   0.4096150  )
        43           Si  tau(  43) = (   0.7072760   0.5583750   0.0923006  )
        44           Si  tau(  44) = (   0.8987050   0.2492000   0.5629110  )
        45           Si  tau(  45) = (   0.8070800   0.4083020   0.9699060  )
        46           Si  tau(  46) = (   0.7172290   0.5335450   0.7553110  )
        47           Si  tau(  47) = (   0.6115080   0.1095350   0.0841500  )
        48           Si  tau(  48) = (   0.7690940   0.2686070   0.7712150  )
        49           Si  tau(  49) = (   0.5748030   0.1756420   0.8713220  )
        50           Si  tau(  50) = (   0.4308470   0.0788677   0.6405950  )
        51           Si  tau(  51) = (   0.1768620   0.6175370   0.0317856  )
        52           Si  tau(  52) = (   0.8257720   0.9987170   0.2386010  )
        53           Si  tau(  53) = (   0.4247210   0.0211638   0.8604440  )
        54           Si  tau(  54) = (   0.4431940   0.3704880   0.9000850  )
        55           Si  tau(  55) = (   0.5447320   0.7946490   0.2340420  )
        56           Si  tau(  56) = (   0.5221180   0.1448920   0.2836870  )
        57           Si  tau(  57) = (   0.8605840   0.9781190   0.8090890  )
        58           Si  tau(  58) = (   0.8973310   0.6662710   0.7558310  )
        59           Si  tau(  59) = (   0.5580520   0.2834140   0.5957080  )
        60           Si  tau(  60) = (   0.5096950   0.8293950   0.8820750  )
        61           Si  tau(  61) = (   0.2449680   0.4358170   0.6483860  )
        62           Si  tau(  62) = (   0.8020700   0.2279450   0.0905364  )
        63           Si  tau(  63) = (   0.3977150   0.8713420   0.5514040  )
        64           Si  tau(  64) = (   0.0894169   0.0308558   0.7033430  )

     number of k points=     1
                       cart. coord. in units 2pi/alat
        k(    1) = (   0.0000000   0.0000000   0.0000000), wk =   2.0000000

     Dense  grid:    94092 G-vectors     FFT dimensions: (  72,  72,  72)

     Estimated max dynamical RAM per process >     138.09 MB

     Estimated total dynamical RAM >     529.40 MB

     Initial potential from superposition of free atoms

     starting charge     255.9608, renormalised to     256.0000
     Starting wfcs are  256 randomized atomic wfcs

     total cpu time spent up to now is        4.0 secs

     Self-consistent Calculation

     iteration #  1     ecut=    30.00 Ry     beta= 0.50
     Davidson diagonalization with overlap
     ethr =  1.00E-02,  avg # of iterations =  2.0

     Threshold (ethr) on eigenvalues was too large:
     Diagonalizing with lowered threshold

     Davidson diagonalization with overlap
     ethr =  3.90E-04,  avg # of iterations =  4.0

     total cpu time spent up to now is        4.2 secs

     total energy              =    -501.27558006 Ry
     estimated scf accuracy    <       1.23425093 Ry

     iteration #  2     ecut=    30.00 Ry     beta= 0.50
     Davidson diagonalization with overlap
     ethr =  4.82E-04,  avg # of iterations = 15.0

     total cpu time spent up to now is        4.3 secs

     total energy              =    -501.08561827 Ry
     estimated scf accuracy    <       2.07543100 Ry

     iteration #  3     ecut=    30.00 Ry     beta= 0.50
     Davidson diagonalization with overlap
     ethr =  4.82E-04,  avg # of iterations = 12.0

     total cpu time spent up to now is        4.5 secs

     total energy              =    -501.28243643 Ry
     estimated scf accuracy    <       2.04898005 Ry

     iteration #  4     ecut=    30.00 Ry     beta= 0.50
     Davidson diagonalization with overlap
     ethr =  4.82E-04,  avg # of iterations =  8.0

     total cpu time spent up to now is        4.6 secs

     total energy              =    -501.42322719 Ry
     estimated scf accuracy    <       0.31324728 Ry

     iteration #  5     ecut=    30.00 Ry     beta= 0.50
     Davidson diagonalization with overlap
     ethr =  1.22E-04,  avg # of iterations =  7.0

     total cpu time spent up to now is        4.7 secs

     total energy              =    -501.46271862 Ry
     estimated scf accuracy    <       0.25407502 Ry

     iteration #  6     ecut=    30.00 Ry     beta= 0.50
     Davidson diagonalization with overlap
     ethr =  9.92E-05,  avg # of iterations = 13.0

     total cpu time spent up to now is        4.8 secs

     total energy              =    -501.48795641 Ry
     estimated scf accuracy    <       0.08793607 Ry

     iteration #  7     ecut=    30.00 Ry     beta= 0.50
     Davidson diagonalization with overlap
     ethr =  3.44E-05,  avg # of iterations =  8.0

     total cpu time spent up to now is        4.9 secs

     total energy              =    -501.48998707 Ry
     estimated scf accuracy    <       0.02944130 Ry

     iteration #  8     ecut=    30.00 Ry     beta= 0.50
     Davidson diagonalization with overlap
     c_bands:  1 eigenvalues not converged
     ethr =  1.15E-05,  avg # of iterations = 20.0

     total cpu time spent up to now is        5.1 secs

     total energy              =    -501.49722778 Ry
     estimated scf accuracy    <       0.04127352 Ry

     iteration #  9     ecut=    30.00 Ry     beta= 0.50
     Davidson diagonalization with overlap
     ethr =  1.15E-05,  avg # of iterations =  2.0

     total cpu time spent up to now is        5.2 secs

     total energy              =    -501.49548273 Ry
     estimated scf accuracy    <       0.03517012 Ry

     iteration # 10     ecut=    30.00 Ry     beta= 0.50
     Davidson diagonalization with overlap
     ethr =  1.15E-05,  avg # of iterations =  1.0

     total cpu time spent up to now is        5.2 secs

     total energy              =    -501.49122220 Ry
     estimated scf accuracy    <       0.02865528 Ry

     iteration # 11     ecut=    30.00 Ry     beta= 0.50
     Davidson diagonalization with overlap
     ethr =  1.12E-05,  avg # of iterations = 10.0

     total cpu time spent up to now is        5.3 secs

     total energy              =    -501.49149779 Ry
     estimated scf accuracy    <       0.00766488 Ry

     iteration # 12     ecut=    30.00 Ry     beta= 0.50
     Davidson diagonalization with overlap
     c_bands:  1 eigenvalues not converged
     ethr =  2.99E-06,  avg # of iterations = 20.0

     total cpu time spent up to now is        5.5 secs

     total energy              =    -501.49685551 Ry
     estimated scf accuracy    <       0.03004521 Ry

     iteration # 13     ecut=    30.00 Ry     beta= 0.50
     Davidson diagonalization with overlap
     c_bands:  1 eigenvalues not converged
     ethr =  2.99E-06,  avg # of iterations = 20.0

     total cpu time spent up to now is        5.6 secs

     total energy              =    -501.49672947 Ry
     estimated scf accuracy    <       0.02052254 Ry

     iteration # 14     ecut=    30.00 Ry     beta= 0.50
     Davidson diagonalization with overlap
     ethr =  2.99E-06,  avg # of iterations =  2.0

     total cpu time spent up to now is        5.7 secs

     total energy              =    -501.49563799 Ry
     estimated scf accuracy    <       0.01497336 Ry

     iteration # 15     ecut=    30.00 Ry     beta= 0.50
     Davidson diagonalization with overlap
     ethr =  2.99E-06,  avg # of iterations =  7.0

     total cpu time spent up to now is        5.8 secs

     total energy              =    -501.49577179 Ry
     estimated scf accuracy    <       0.00786224 Ry

     iteration # 16     ecut=    30.00 Ry     beta= 0.50
     Davidson diagonalization with overlap
     ethr =  2.99E-06,  avg # of iterations =  1.0

     total cpu time spent up to now is        5.9 secs

     total energy              =    -501.49551011 Ry
     estimated scf accuracy    <       0.00664400 Ry

     iteration # 17     ecut=    30.00 Ry     beta= 0.50
     Davidson diagonalization with overlap
     ethr =  2.60E-06,  avg # of iterations =  1.0

     total cpu time spent up to now is        6.0 secs

     total energy              =    -501.49559984 Ry
     estimated scf accuracy    <       0.00491415 Ry

     iteration # 18     ecut=    30.00 Ry     beta= 0.50
     Davidson diagonalization with overlap
     ethr =  1.92E-06,  avg # of iterations =  2.0

     total cpu time spent up to now is        6.0 secs

     total energy              =    -501.49521097 Ry
     estimated scf accuracy    <       0.00448235 Ry

     iteration # 19     ecut=    30.00 Ry     beta= 0.50
     Davidson diagonalization with overlap
     c_bands:  1 eigenvalues not converged
     ethr =  1.75E-06,  avg # of iterations = 20.0

     total cpu time spent up to now is        6.2 secs

     total energy              =    -501.49561747 Ry
     estimated scf accuracy    <       0.00326232 Ry

     iteration # 20     ecut=    30.00 Ry     beta= 0.50
     Davidson diagonalization with overlap
     c_bands:  1 eigenvalues not converged
     ethr =  1.27E-06,  avg # of iterations = 20.0

     total cpu time spent up to now is        6.3 secs

     total energy              =    -501.49623191 Ry
     estimated scf accuracy    <       0.00358777 Ry

     iteration # 21     ecut=    30.00 Ry     beta= 0.50
     Davidson diagonalization with overlap
     c_bands:  1 eigenvalues not converged
     ethr =  1.27E-06,  avg # of iterations = 20.0

     total cpu time spent up to now is        6.5 secs

     total energy              =    -501.49653715 Ry
     estimated scf accuracy    <       0.03484871 Ry

     iteration # 22     ecut=    30.00 Ry     beta= 0.50
     Davidson diagonalization with overlap
     ethr =  1.27E-06,  avg # of iterations = 18.0

     total cpu time spent up to now is        6.6 secs

     total energy              =    -501.49630642 Ry
     estimated scf accuracy    <       0.02779200 Ry

     iteration # 23     ecut=    30.00 Ry     beta= 0.50
     Davidson diagonalization with overlap
     ethr =  1.27E-06,  avg # of iterations =  1.0

     total cpu time spent up to now is        6.7 secs

     total energy              =    -501.49534439 Ry
     estimated scf accuracy    <       0.02427702 Ry

     iteration # 24     ecut=    30.00 Ry     beta= 0.50
     Davidson diagonalization with overlap
     ethr =  1.27E-06,  avg # of iterations =  2.0

     total cpu time spent up to now is        6.8 secs

     total energy              =    -501.49550615 Ry
     estimated scf accuracy    <       0.01985716 Ry

     iteration # 25     ecut=    30.00 Ry     beta= 0.50
     Davidson diagonalization with overlap
     ethr =  1.27E-06,  avg # of iterations =  1.0

     total cpu time spent up to now is        6.8 secs

     total energy              =    -501.49539263 Ry
     estimated scf accuracy    <       0.01938558 Ry

     iteration # 26     ecut=    30.00 Ry     beta= 0.50
     Davidson diagonalization with overlap
     ethr =  1.27E-06,  avg # of iterations =  1.0

     total cpu time spent up to now is        6.9 secs

     total energy              =    -501.49419739 Ry
     estimated scf accuracy    <       0.01797129 Ry

     iteration # 27     ecut=    30.00 Ry     beta= 0.50
     Davidson diagonalization with overlap
     c_bands:  1 eigenvalues not converged
     ethr =  1.27E-06,  avg # of iterations = 20.0

     total cpu time spent up to now is        7.0 secs

     total energy              =    -501.49878449 Ry
     estimated scf accuracy    <       0.00587276 Ry

     iteration # 28     ecut=    30.00 Ry     beta= 0.50
     Davidson diagonalization with overlap
     c_bands:  1 eigenvalues not converged
     ethr =  1.27E-06,  avg # of iterations = 20.0

     total cpu time spent up to now is        7.2 secs

     total energy              =    -501.49919263 Ry
     estimated scf accuracy    <       0.07649557 Ry

     iteration # 29     ecut=    30.00 Ry     beta= 0.50
     Davidson diagonalization with overlap
     ethr =  1.27E-06,  avg # of iterations = 19.0

     total cpu time spent up to now is        7.4 secs

     total energy              =    -501.49557350 Ry
     estimated scf accuracy    <       0.04090436 Ry

     iteration # 30     ecut=    30.00 Ry     beta= 0.50
     Davidson diagonalization with overlap
     ethr =  1.27E-06,  avg # of iterations = 15.0

     total cpu time spent up to now is        7.5 secs

     total energy              =    -501.49628721 Ry
     estimated scf accuracy    <       0.01505162 Ry

     iteration # 31     ecut=    30.00 Ry     beta= 0.50
     Davidson diagonalization with overlap
     ethr =  1.27E-06,  avg # of iterations =  3.0

     total cpu time spent up to now is        7.6 secs

     total energy              =    -501.49642090 Ry
     estimated scf accuracy    <       0.01097894 Ry

     iteration # 32     ecut=    30.00 Ry     beta= 0.50
     Davidson diagonalization with overlap
     ethr =  1.27E-06,  avg # of iterations =  1.0

     total cpu time spent up to now is        7.7 secs

     total energy              =    -501.49639124 Ry
     estimated scf accuracy    <       0.01045723 Ry

     iteration # 33     ecut=    30.00 Ry     beta= 0.50
     Davidson diagonalization with overlap
     ethr =  1.27E-06,  avg # of iterations =  1.0

     total cpu time spent up to now is        7.7 secs

     total energy              =    -501.49636453 Ry
     estimated scf accuracy    <       0.00993112 Ry

     iteration # 34     ecut=    30.00 Ry     beta= 0.50
     Davidson diagonalization with overlap
     ethr =  1.27E-06,  avg # of iterations =  1.0

     total cpu time spent up to now is        7.8 secs

     total energy              =    -501.49631600 Ry
     estimated scf accuracy    <       0.00956026 Ry

     iteration # 35     ecut=    30.00 Ry     beta= 0.50
     Davidson diagonalization with overlap
     ethr =  1.27E-06,  avg # of iterations =  1.0

     total cpu time spent up to now is        7.9 secs

     total energy              =    -501.49428067 Ry
     estimated scf accuracy    <       0.00908994 Ry

     iteration # 36     ecut=    30.00 Ry     beta= 0.50
     Davidson diagonalization with overlap
     c_bands:  1 eigenvalues not converged
     ethr =  1.27E-06,  avg # of iterations = 20.0

     total cpu time spent up to now is        8.0 secs

     total energy              =    -501.49779458 Ry
     estimated scf accuracy    <       0.07692530 Ry

     iteration # 37     ecut=    30.00 Ry     beta= 0.50
     Davidson diagonalization with overlap
     c_bands:  1 eigenvalues not converged
     ethr =  1.27E-06,  avg # of iterations = 20.0

     total cpu time spent up to now is        8.2 secs

     total energy              =    -501.49654296 Ry
     estimated scf accuracy    <       0.06182502 Ry

     iteration # 38     ecut=    30.00 Ry     beta= 0.50
     Davidson diagonalization with overlap
     ethr =  1.27E-06,  avg # of iterations = 13.0

     total cpu time spent up to now is        8.3 secs

     total energy              =    -501.49563567 Ry
     estimated scf accuracy    <       0.03007330 Ry

     iteration # 39     ecut=    30.00 Ry     beta= 0.50
     Davidson diagonalization with overlap
     ethr =  1.27E-06,  avg # of iterations =  3.0

     total cpu time spent up to now is        8.4 secs

     total energy              =    -501.49516367 Ry
     estimated scf accuracy    <       0.02179914 Ry

     iteration # 40     ecut=    30.00 Ry     beta= 0.50
     Davidson diagonalization with overlap
     c_bands:  1 eigenvalues not converged
     ethr =  1.27E-06,  avg # of iterations = 20.0

     total cpu time spent up to now is        8.6 secs

     total energy              =    -501.49558586 Ry
     estimated scf accuracy    <       0.01140315 Ry

     iteration # 41     ecut=    30.00 Ry     beta= 0.50
     Davidson diagonalization with overlap
     c_bands:  1 eigenvalues not converged
     ethr =  1.27E-06,  avg # of iterations = 20.0

     total cpu time spent up to now is        8.7 secs

     total energy              =    -501.49592039 Ry
     estimated scf accuracy    <       0.00985604 Ry

     iteration # 42     ecut=    30.00 Ry     beta= 0.50
     Davidson diagonalization with overlap
     ethr =  1.27E-06,  avg # of iterations =  2.0

     total cpu time spent up to now is        8.8 secs

     total energy              =    -501.49559273 Ry
     estimated scf accuracy    <       0.00978255 Ry

     iteration # 43     ecut=    30.00 Ry     beta= 0.50
     Davidson diagonalization with overlap
     c_bands:  1 eigenvalues not converged
     ethr =  1.27E-06,  avg # of iterations = 20.0

     total cpu time spent up to now is        8.9 secs

     total energy              =    -501.49599611 Ry
     estimated scf accuracy    <       0.00395591 Ry

     iteration # 44     ecut=    30.00 Ry     beta= 0.50
     Davidson diagonalization with overlap
     ethr =  1.27E-06,  avg # of iterations = 19.0

     total cpu time spent up to now is        9.1 secs

     total energy              =    -501.49597724 Ry
     estimated scf accuracy    <       0.00369938 Ry

     iteration # 45     ecut=    30.00 Ry     beta= 0.50
     Davidson diagonalization with overlap
     ethr =  1.27E-06,  avg # of iterations =  2.0

     total cpu time spent up to now is        9.1 secs

     total energy              =    -501.49602450 Ry
     estimated scf accuracy    <       0.00397098 Ry

     iteration # 46     ecut=    30.00 Ry     beta= 0.50
     Davidson diagonalization with overlap
     ethr =  1.27E-06,  avg # of iterations =  3.0

     total cpu time spent up to now is        9.2 secs

     total energy              =    -501.49622192 Ry
     estimated scf accuracy    <       0.00385497 Ry

     iteration # 47     ecut=    30.00 Ry     beta= 0.50
     Davidson diagonalization with overlap
     c_bands:  1 eigenvalues not converged
     ethr =  1.27E-06,  avg # of iterations = 20.0

     total cpu time spent up to now is        9.4 secs

     total energy              =    -501.49651186 Ry
     estimated scf accuracy    <       0.00673452 Ry

     iteration # 48     ecut=    30.00 Ry     beta= 0.50
     Davidson diagonalization with overlap
     ethr =  1.27E-06,  avg # of iterations =  2.0

     total cpu time spent up to now is        9.4 secs

     total energy              =    -501.49742659 Ry
     estimated scf accuracy    <       0.00745261 Ry

     iteration # 49     ecut=    30.00 Ry     beta= 0.50
     Davidson diagonalization with overlap
     c_bands:  1 eigenvalues not converged
     ethr =  1.27E-06,  avg # of iterations = 20.0

     total cpu time spent up to now is        9.6 secs

     total energy              =    -501.49049079 Ry
     estimated scf accuracy    <       0.04989954 Ry

     iteration # 50     ecut=    30.00 Ry     beta= 0.50
     Davidson diagonalization with overlap
     c_bands:  1 eigenvalues not converged
     ethr =  1.27E-06,  avg # of iterations = 20.0

     total cpu time spent up to now is        9.8 secs

     total energy              =    -501.49359753 Ry
     estimated scf accuracy    <       0.02144980 Ry

     iteration # 51     ecut=    30.00 Ry     beta= 0.50
     Davidson diagonalization with overlap
     c_bands:  1 eigenvalues not converged
     ethr =  1.27E-06,  avg # of iterations = 20.0

     total cpu time spent up to now is       10.0 secs

     total energy              =    -501.49546135 Ry
     estimated scf accuracy    <       0.01532945 Ry

     iteration # 52     ecut=    30.00 Ry     beta= 0.50
     Davidson diagonalization with overlap
     c_bands:  1 eigenvalues not converged
     ethr =  1.27E-06,  avg # of iterations = 20.0

     total cpu time spent up to now is       10.1 secs

     total energy              =    -501.49623606 Ry
     estimated scf accuracy    <       0.01045474 Ry

     iteration # 53     ecut=    30.00 Ry     beta= 0.50
     Davidson diagonalization with overlap
     ethr =  1.27E-06,  avg # of iterations =  2.0

     total cpu time spent up to now is       10.2 secs

     total energy              =    -501.49594150 Ry
     estimated scf accuracy    <       0.00940705 Ry

     iteration # 54     ecut=    30.00 Ry     beta= 0.50
     Davidson diagonalization with overlap
     ethr =  1.27E-06,  avg # of iterations =  2.0

     total cpu time spent up to now is       10.3 secs

     total energy              =    -501.49570977 Ry
     estimated scf accuracy    <       0.00808604 Ry

     iteration # 55     ecut=    30.00 Ry     beta= 0.50
     Davidson diagonalization with overlap
     ethr =  1.27E-06,  avg # of iterations =  2.0

     total cpu time spent up to now is       10.4 secs

     total energy              =    -501.49528952 Ry
     estimated scf accuracy    <       0.00669971 Ry

     iteration # 56     ecut=    30.00 Ry     beta= 0.50
     Davidson diagonalization with overlap
     c_bands:  1 eigenvalues not converged
     ethr =  1.27E-06,  avg # of iterations = 20.0

     total cpu time spent up to now is       10.5 secs

     total energy              =    -501.49543936 Ry
     estimated scf accuracy    <       0.00864678 Ry

     iteration # 57     ecut=    30.00 Ry     beta= 0.50
     Davidson diagonalization with overlap
     c_bands:  1 eigenvalues not converged
     ethr =  1.27E-06,  avg # of iterations = 20.0

     total cpu time spent up to now is       10.7 secs

     total energy              =    -501.49582668 Ry
     estimated scf accuracy    <       0.00414325 Ry

     iteration # 58     ecut=    30.00 Ry     beta= 0.50
     Davidson diagonalization with overlap
     ethr =  1.27E-06,  avg # of iterations =  2.0

     total cpu time spent up to now is       10.7 secs

     total energy              =    -501.49563751 Ry
     estimated scf accuracy    <       0.00331233 Ry

     iteration # 59     ecut=    30.00 Ry     beta= 0.50
     Davidson diagonalization with overlap
     ethr =  1.27E-06,  avg # of iterations = 10.0

     total cpu time spent up to now is       10.9 secs

     total energy              =    -501.49563061 Ry
     estimated scf accuracy    <       0.00487545 Ry

     iteration # 60     ecut=    30.00 Ry     beta= 0.50
     Davidson diagonalization with overlap
     c_bands:  1 eigenvalues not converged
     ethr =  1.27E-06,  avg # of iterations = 20.0

     total cpu time spent up to now is       11.0 secs

     total energy              =    -501.49299186 Ry
     estimated scf accuracy    <       0.06972005 Ry

     iteration # 61     ecut=    30.00 Ry     beta= 0.50
     Davidson diagonalization with overlap
     ethr =  1.27E-06,  avg # of iterations = 13.0

     total cpu time spent up to now is       11.2 secs

     total energy              =    -501.49524941 Ry
     estimated scf accuracy    <       0.02095176 Ry

     iteration # 62     ecut=    30.00 Ry     beta= 0.50
     Davidson diagonalization with overlap
     ethr =  1.27E-06,  avg # of iterations =  3.0

     total cpu time spent up to now is       11.3 secs

     total energy              =    -501.49535991 Ry
     estimated scf accuracy    <       0.01671241 Ry

     iteration # 63     ecut=    30.00 Ry     beta= 0.50
     Davidson diagonalization with overlap
     ethr =  1.27E-06,  avg # of iterations =  1.0

     total cpu time spent up to now is       11.3 secs

     total energy              =    -501.49498988 Ry
     estimated scf accuracy    <       0.01607463 Ry

     iteration # 64     ecut=    30.00 Ry     beta= 0.50
     Davidson diagonalization with overlap
     ethr =  1.27E-06,  avg # of iterations =  1.0

     total cpu time spent up to now is       11.4 secs

     total energy              =    -501.49255568 Ry
     estimated scf accuracy    <       0.01449956 Ry

     iteration # 65     ecut=    30.00 Ry     beta= 0.50
     Davidson diagonalization with overlap
     c_bands:  1 eigenvalues not converged
     ethr =  1.27E-06,  avg # of iterations = 20.0

     total cpu time spent up to now is       11.6 secs

     total energy              =    -501.49338568 Ry
     estimated scf accuracy    <       0.00901304 Ry

     iteration # 66     ecut=    30.00 Ry     beta= 0.50
     Davidson diagonalization with overlap
     ethr =  1.27E-06,  avg # of iterations = 13.0

     total cpu time spent up to now is       11.7 secs

     total energy              =    -501.49384756 Ry
     estimated scf accuracy    <       0.00482214 Ry

     iteration # 67     ecut=    30.00 Ry     beta= 0.50
     Davidson diagonalization with overlap
     ethr =  1.27E-06,  avg # of iterations =  2.0

     total cpu time spent up to now is       11.8 secs

     total energy              =    -501.49354819 Ry
     estimated scf accuracy    <       0.00539745 Ry

     iteration # 68     ecut=    30.00 Ry     beta= 0.50
     Davidson diagonalization with overlap
     c_bands:  1 eigenvalues not converged
     ethr =  1.27E-06,  avg # of iterations = 20.0

     total cpu time spent up to now is       11.9 secs

     total energy              =    -501.49783010 Ry
     estimated scf accuracy    <       0.02361520 Ry

     iteration # 69     ecut=    30.00 Ry     beta= 0.50
     Davidson diagonalization with overlap
     c_bands:  1 eigenvalues not converged
     ethr =  1.27E-06,  avg # of iterations = 20.0

     total cpu time spent up to now is       12.1 secs

     total energy              =    -501.49629964 Ry
     estimated scf accuracy    <       0.02193741 Ry

     iteration # 70     ecut=    30.00 Ry     beta= 0.50
     Davidson diagonalization with overlap
     c_bands:  1 eigenvalues not converged
     ethr =  1.27E-06,  avg # of iterations = 20.0

     total cpu time spent up to now is       12.3 secs

     total energy              =    -501.49632308 Ry
     estimated scf accuracy    <       0.01128462 Ry

     iteration # 71     ecut=    30.00 Ry     beta= 0.50
     Davidson diagonalization with overlap
     ethr =  1.27E-06,  avg # of iterations =  2.0

     total cpu time spent up to now is       12.3 secs

     total energy              =    -501.49636141 Ry
     estimated scf accuracy    <       0.00863929 Ry

     iteration # 72     ecut=    30.00 Ry     beta= 0.50
     Davidson diagonalization with overlap
     ethr =  1.27E-06,  avg # of iterations =  1.0

     total cpu time spent up to now is       12.4 secs

     total energy              =    -501.49624087 Ry
     estimated scf accuracy    <       0.00793444 Ry

     iteration # 73     ecut=    30.00 Ry     beta= 0.50
     Davidson diagonalization with overlap
     ethr =  1.27E-06,  avg # of iterations =  2.0

     total cpu time spent up to now is       12.5 secs

     total energy              =    -501.49590462 Ry
     estimated scf accuracy    <       0.00716121 Ry

     iteration # 74     ecut=    30.00 Ry     beta= 0.50
     Davidson diagonalization with overlap
     ethr =  1.27E-06,  avg # of iterations = 20.0

     total cpu time spent up to now is       12.6 secs

     total energy              =    -501.49594379 Ry
     estimated scf accuracy    <       0.00650100 Ry

     iteration # 75     ecut=    30.00 Ry     beta= 0.50
     Davidson diagonalization with overlap
     ethr =  1.27E-06,  avg # of iterations =  1.0

     total cpu time spent up to now is       12.7 secs

     total energy              =    -501.49623236 Ry
     estimated scf accuracy    <       0.00588739 Ry

     iteration # 76     ecut=    30.00 Ry     beta= 0.50
     Davidson diagonalization with overlap
     ethr =  1.27E-06,  avg # of iterations =  1.0

     total cpu time spent up to now is       12.8 secs

     total energy              =    -501.49400996 Ry
     estimated scf accuracy    <       0.00698321 Ry

     iteration # 77     ecut=    30.00 Ry     beta= 0.50
     Davidson diagonalization with overlap
     c_bands:  1 eigenvalues not converged
     ethr =  1.27E-06,  avg # of iterations = 20.0

     total cpu time spent up to now is       12.9 secs

     total energy              =    -501.49606473 Ry
     estimated scf accuracy    <       0.05322113 Ry

     iteration # 78     ecut=    30.00 Ry     beta= 0.50
     Davidson diagonalization with overlap
     ethr =  1.27E-06,  avg # of iterations = 20.0

     total cpu time spent up to now is       13.1 secs

     total energy              =    -501.49453507 Ry
     estimated scf accuracy    <       0.04904309 Ry

     iteration # 79     ecut=    30.00 Ry     beta= 0.50
     Davidson diagonalization with overlap
     ethr =  1.27E-06,  avg # of iterations =  8.0

     total cpu time spent up to now is       13.2 secs

     total energy              =    -501.49476766 Ry
     estimated scf accuracy    <       0.02298455 Ry

     iteration # 80     ecut=    30.00 Ry     beta= 0.50
     Davidson diagonalization with overlap
     c_bands:  1 eigenvalues not converged
     ethr =  1.27E-06,  avg # of iterations = 20.0

     total cpu time spent up to now is       13.4 secs

     total energy              =    -501.49497752 Ry
     estimated scf accuracy    <       0.01418015 Ry

     iteration # 81     ecut=    30.00 Ry     beta= 0.50
     Davidson diagonalization with overlap
     ethr =  1.27E-06,  avg # of iterations =  2.0

     total cpu time spent up to now is       13.5 secs

     total energy              =    -501.49490514 Ry
     estimated scf accuracy    <       0.01320163 Ry

     iteration # 82     ecut=    30.00 Ry     beta= 0.50
     Davidson diagonalization with overlap
     ethr =  1.27E-06,  avg # of iterations =  1.0

     total cpu time spent up to now is       13.5 secs

     total energy              =    -501.49385498 Ry
     estimated scf accuracy    <       0.01247913 Ry

     iteration # 83     ecut=    30.00 Ry     beta= 0.50
     Davidson diagonalization with overlap
     c_bands:  1 eigenvalues not converged
     ethr =  1.27E-06,  avg # of iterations = 20.0

     total cpu time spent up to now is       13.7 secs

     total energy              =    -501.49450814 Ry
     estimated scf accuracy    <       0.00530398 Ry

     iteration # 84     ecut=    30.00 Ry     beta= 0.50
     Davidson diagonalization with overlap
     c_bands:  1 eigenvalues not converged
     ethr =  1.27E-06,  avg # of iterations = 20.0

     total cpu time spent up to now is       13.8 secs

     total energy              =    -501.49607781 Ry
     estimated scf accuracy    <       0.00364431 Ry

     iteration # 85     ecut=    30.00 Ry     beta= 0.50
     Davidson diagonalization with overlap
     c_bands:  1 eigenvalues not converged
     ethr =  1.27E-06,  avg # of iterations = 20.0

     total cpu time spent up to now is       14.0 secs

     total energy              =    -501.49566416 Ry
     estimated scf accuracy    <       0.00830840 Ry

     iteration # 86     ecut=    30.00 Ry     beta= 0.50
     Davidson diagonalization with overlap
     ethr =  1.27E-06,  avg # of iterations = 15.0

     total cpu time spent up to now is       14.1 secs

     total energy              =    -501.49622450 Ry
     estimated scf accuracy    <       0.00623845 Ry

     iteration # 87     ecut=    30.00 Ry     beta= 0.50
     Davidson diagonalization with overlap
     ethr =  1.27E-06,  avg # of iterations =  2.0

     total cpu time spent up to now is       14.2 secs

     total energy              =    -501.49627906 Ry
     estimated scf accuracy    <       0.00637255 Ry

     iteration # 88     ecut=    30.00 Ry     beta= 0.50
     Davidson diagonalization with overlap
     ethr =  1.27E-06,  avg # of iterations =  1.0

     total cpu time spent up to now is       14.2 secs

     total energy              =    -501.49627129 Ry
     estimated scf accuracy    <       0.00637739 Ry

     iteration # 89     ecut=    30.00 Ry     beta= 0.50
     Davidson diagonalization with overlap
     ethr =  1.27E-06,  avg # of iterations =  1.0

     total cpu time spent up to now is       14.3 secs

     total energy              =    -501.49628553 Ry
     estimated scf accuracy    <       0.00622944 Ry

     iteration # 90     ecut=    30.00 Ry     beta= 0.50
     Davidson diagonalization with overlap
     ethr =  1.27E-06,  avg # of iterations =  1.0

     total cpu time spent up to now is       14.4 secs

     total energy              =    -501.49629019 Ry
     estimated scf accuracy    <       0.00620103 Ry

     iteration # 91     ecut=    30.00 Ry     beta= 0.50
     Davidson diagonalization with overlap
     ethr =  1.27E-06,  avg # of iterations =  1.0

     total cpu time spent up to now is       14.5 secs

     total energy              =    -501.49472500 Ry
     estimated scf accuracy    <       0.00619734 Ry

     iteration # 92     ecut=    30.00 Ry     beta= 0.50
     Davidson diagonalization with overlap
     c_bands:  1 eigenvalues not converged
     ethr =  1.27E-06,  avg # of iterations = 20.0

     total cpu time spent up to now is       14.6 secs

     total energy              =    -501.49427062 Ry
     estimated scf accuracy    <       0.11409919 Ry

     iteration # 93     ecut=    30.00 Ry     beta= 0.50
     Davidson diagonalization with overlap
     c_bands:  1 eigenvalues not converged
     ethr =  1.27E-06,  avg # of iterations = 20.0

     total cpu time spent up to now is       14.8 secs

     total energy              =    -501.49682743 Ry
     estimated scf accuracy    <       0.03427966 Ry

     iteration # 94     ecut=    30.00 Ry     beta= 0.50
     Davidson diagonalization with overlap
     c_bands:  1 eigenvalues not converged
     ethr =  1.27E-06,  avg # of iterations = 20.0

     total cpu time spent up to now is       15.0 secs

     total energy              =    -501.49399047 Ry
     estimated scf accuracy    <       0.04623858 Ry

     iteration # 95     ecut=    30.00 Ry     beta= 0.50
     Davidson diagonalization with overlap
     c_bands:  1 eigenvalues not converged
     ethr =  1.27E-06,  avg # of iterations = 20.0

     total cpu time spent up to now is       15.2 secs

     total energy              =    -501.49530656 Ry
     estimated scf accuracy    <       0.01312065 Ry

     iteration # 96     ecut=    30.00 Ry     beta= 0.50
     Davidson diagonalization with overlap
     ethr =  1.27E-06,  avg # of iterations =  3.0

     total cpu time spent up to now is       15.2 secs

     total energy              =    -501.49511057 Ry
     estimated scf accuracy    <       0.01072630 Ry

     iteration # 97     ecut=    30.00 Ry     beta= 0.50
     Davidson diagonalization with overlap
     ethr =  1.27E-06,  avg # of iterations =  2.0

     total cpu time spent up to now is       15.3 secs

     total energy              =    -501.49471370 Ry
     estimated scf accuracy    <       0.00955024 Ry

     iteration # 98     ecut=    30.00 Ry     beta= 0.50
     Davidson diagonalization with overlap
     ethr =  1.27E-06,  avg # of iterations =  2.0

     total cpu time spent up to now is       15.4 secs

     total energy              =    -501.49464045 Ry
     estimated scf accuracy    <       0.00768922 Ry

     iteration # 99     ecut=    30.00 Ry     beta= 0.50
     Davidson diagonalization with overlap
     ethr =  1.27E-06,  avg # of iterations =  1.0

     total cpu time spent up to now is       15.5 secs

     total energy              =    -501.49459325 Ry
     estimated scf accuracy    <       0.00695435 Ry

     iteration #100     ecut=    30.00 Ry     beta= 0.50
     Davidson diagonalization with overlap
     ethr =  1.27E-06,  avg # of iterations =  2.0

     total cpu time spent up to now is       15.5 secs

     total energy              =    -501.49228419 Ry
     estimated scf accuracy    <       0.00615608 Ry

     End of self-consistent calculation

     convergence NOT achieved after 100 iterations: stopping

     Writing config to output data dir ./pwscf.save/
     Message from routine punch:
     wavefunctions written to file
 
     init_run     :      0.96s CPU      3.97s WALL (       1 calls)
     electrons    :     10.85s CPU     11.51s WALL (       1 calls)

     Called by init_run:
     wfcinit      :      0.44s CPU      3.30s WALL (       1 calls)
                                        3.30s GPU  (       1 calls)
     potinit      :      0.04s CPU      0.12s WALL (       1 calls)
     hinit0       :      0.45s CPU      0.48s WALL (       1 calls)

     Called by electrons:
     c_bands      :      7.64s CPU      8.03s WALL (     101 calls)
     sum_band     :      1.47s CPU      1.64s WALL (     101 calls)
     v_of_rho     :      0.60s CPU      0.71s WALL (     101 calls)
     mix_rho      :      0.93s CPU      0.97s WALL (     101 calls)

     Called by c_bands:
     init_us_2    :      0.24s CPU      0.28s WALL (     203 calls)
     init_us_2:gp :      0.24s CPU      0.27s WALL (     203 calls)
     regterg      :      6.91s CPU      7.28s WALL (     101 calls)

     Called by *egterg:
     rdiaghg      :      3.50s CPU      4.22s WALL (    1123 calls)
                                        4.07s GPU  (    1123 calls)
     h_psi        :      2.84s CPU      5.27s WALL (    1125 calls)
                                        5.25s GPU  (    1125 calls)
     g_psi        :      0.00s CPU      0.02s WALL (    1023 calls)
                                        0.02s GPU  (    1023 calls)

     Called by h_psi:
     h_psi:calbec :      0.68s CPU      2.93s WALL (    1125 calls)
                                        2.92s GPU  (    1125 calls)
     vloc_psi     :      1.58s CPU      1.75s WALL (    1125 calls)
                                        1.73s GPU  (    1125 calls)
     add_vuspsi   :      0.44s CPU      0.54s WALL (    1125 calls)
                                        0.53s GPU  (    1125 calls)

     General routines
     calbec       :      0.67s CPU      2.90s WALL (    1125 calls)
     fft          :      0.96s CPU      1.10s WALL (     809 calls)
                                        0.18s GPU  (     505 calls)
     ffts         :      0.19s CPU      0.20s WALL (     101 calls)
     fftw         :      1.90s CPU      2.40s WALL (   10092 calls)
                                        2.09s GPU  (   10092 calls)
     davcio       :      0.00s CPU      0.01s WALL (      19 calls)
 
     Parallel routines
 
     PWSCF        :     11.86s CPU     15.58s WALL

 
   This run was terminated on:  15:18: 0   9May2023            

=------------------------------------------------------------------------------=
   JOB DONE.
=------------------------------------------------------------------------------=
