An instance of this daemon is already running
An instance of this daemon is already running

     Program PWSCF v.7.1 starts on  9May2023 at 15:21:22 

     This program is part of the open-source Quantum ESPRESSO suite
     for quantum simulation of materials; please cite
         "P. Giannozzi et al., J. Phys.:Condens. Matter 21 395502 (2009);
         "P. Giannozzi et al., J. Phys.:Condens. Matter 29 465901 (2017);
         "P. Giannozzi et al., J. Chem. Phys. 152 154105 (2020);
          URL http://www.quantum-espresso.org", 
     in publications or presentations arising from this work. More details at
     http://www.quantum-espresso.org/quote

     Parallel version (MPI & OpenMP), running on       4 processor cores
     Number of MPI processes:                 4
     Threads/MPI process:                     1

     MPI processes distributed on     1 nodes
     49827 MiB available memory on the printing compute node when the environment starts
 
     Reading input from pw-si-79.in
Warning: card &CELL ignored
Warning: card / ignored

     Current dimensions of program PWSCF are:
     Max number of different atomic species (ntypx) = 10
     Max number of k-points (npk) =  40000
     Max angular momentum in pseudopotentials (lmaxx) =  4

     IMPORTANT: XC functional enforced from input :
     Exchange-correlation= PBE
                           (   1   4   3   4   0   0   0)
     Any further DFT definition will be discarded
     Please, verify this is what you really want


     gamma-point specific algorithms are used
 
     K-points division:     npool     =       2
     R & G space division:  proc/nbgrp/npool/nimage =       2
     Subspace diagonalization in iterative solution of the eigenvalue problem:
     a serial algorithm will be used

     Message from routine divide_et_impera:
     suboptimal parallelization: some nodes have no k-points
 
     Parallelization info
     --------------------
     sticks:   dense  smooth     PW     G-vecs:    dense   smooth      PW
     Min        1933    1933    515                90495    90495   12286
     Max        1936    1936    518                90500    90500   12287
     Sum        3869    3869   1033               180995   180995   24573
 
     Using Slab Decomposition
 


     bravais-lattice index     =            0
     lattice parameter (alat)  =      20.1198  a.u.
     unit-cell volume          =    8144.6496 (a.u.)^3
     number of atoms/cell      =           64
     number of atomic types    =            1
     number of electrons       =       256.00
     number of Kohn-Sham states=          128
     kinetic-energy cutoff     =      30.0000  Ry
     charge density cutoff     =     120.0000  Ry
     scf convergence threshold =      1.0E-06
     mixing beta               =       0.5000
     number of iterations used =            8  plain     mixing
     Exchange-correlation= PBE
                           (   1   4   3   4   0   0   0)

     GPU acceleration is ACTIVE.
     GPU-aware MPI enabled

     Message from routine print_cuda_info:
     High GPU oversubscription detected. Are you sure this is what you want?

     celldm(1)=  20.119822  celldm(2)=   0.000000  celldm(3)=   0.000000
     celldm(4)=   0.000000  celldm(5)=   0.000000  celldm(6)=   0.000000

     crystal axes: (cart. coord. in units of alat)
               a(1) = (   1.000000   0.000000   0.000000 )  
               a(2) = (   0.000000   1.000000   0.000000 )  
               a(3) = (   0.000000   0.000000   1.000000 )  

     reciprocal axes: (cart. coord. in units 2 pi/alat)
               b(1) = (  1.000000  0.000000  0.000000 )  
               b(2) = (  0.000000  1.000000  0.000000 )  
               b(3) = (  0.000000  0.000000  1.000000 )  


     PseudoPot. # 1 for Si read from file:
     /home/ppiaggi/pseudos/Si_ONCV_PBE_sr.upf
     MD5 check sum: 8553c464762ac42b85b1eed164b4d029
     Pseudo is Norm-conserving, Zval =  4.0
     Generated using ONCVPSP code by D. R. Hamann
     Using radial grid of 1510 points,  4 beta functions with: 
                l(1) =   0
                l(2) =   0
                l(3) =   1
                l(4) =   1

     atomic species   valence    mass     pseudopotential
        Si             4.00    28.08500     Si( 1.00)

     No symmetry found



   Cartesian axes

     site n.     atom                  positions (alat units)
         1           Si  tau(   1) = (   0.6373400   0.5529000   0.4133760  )
         2           Si  tau(   2) = (   0.5051870   0.2338800   0.4633740  )
         3           Si  tau(   3) = (   0.5206090   0.0535058   0.0760700  )
         4           Si  tau(   4) = (   0.0056279   0.6828910   0.5652560  )
         5           Si  tau(   5) = (   0.5156540   0.3210510   0.6755550  )
         6           Si  tau(   6) = (   0.7313590   0.1482570   0.5093910  )
         7           Si  tau(   7) = (   0.0834685   0.8161060   0.7105560  )
         8           Si  tau(   8) = (   0.1849810   0.0157277   0.5488720  )
         9           Si  tau(   9) = (   0.9228740   0.4122480   0.7173190  )
        10           Si  tau(  10) = (   0.2402590   0.6491150   0.3199990  )
        11           Si  tau(  11) = (   0.3317310   0.2139480   0.9548620  )
        12           Si  tau(  12) = (   0.4391670   0.8019530   0.9048900  )
        13           Si  tau(  13) = (   0.5688730   0.3761490   0.2972960  )
        14           Si  tau(  14) = (   0.7752960   0.3253100   0.2574970  )
        15           Si  tau(  15) = (   0.2609720   0.4922990   0.8856340  )
        16           Si  tau(  16) = (   0.6470830   0.7387570   0.1910290  )
        17           Si  tau(  17) = (   0.9633940   0.0975127   0.5918160  )
        18           Si  tau(  18) = (   0.3742100   0.8352560   0.5412840  )
        19           Si  tau(  19) = (   0.9827260   0.2711670   0.3928930  )
        20           Si  tau(  20) = (   0.7876350   0.1332650   0.1456790  )
        21           Si  tau(  21) = (   0.8469270   0.6227490   0.2050320  )
        22           Si  tau(  22) = (   0.8386480   0.9630200   0.9928180  )
        23           Si  tau(  23) = (   0.3352910   0.2837750   0.2348970  )
        24           Si  tau(  24) = (   0.8856840   0.4346060   0.0748134  )
        25           Si  tau(  25) = (   0.0464204   0.9430260   0.8873790  )
        26           Si  tau(  26) = (   0.0810620   0.8102620   0.4056850  )
        27           Si  tau(  27) = (   0.1414390   0.1504350   0.1909470  )
        28           Si  tau(  28) = (   0.2745880   0.2139420   0.5344870  )
        29           Si  tau(  29) = (   0.2965230   0.3059210   0.7412010  )
        30           Si  tau(  30) = (   0.7369290   0.7515910   0.8517340  )
        31           Si  tau(  31) = (   0.0451279   0.6233080   0.8560350  )
        32           Si  tau(  32) = (   0.8531430   0.9257010   0.6887100  )
        33           Si  tau(  33) = (   0.3421820   0.9285240   0.7580450  )
        34           Si  tau(  34) = (   0.6154230   0.8717190   0.0341431  )
        35           Si  tau(  35) = (   0.4491480   0.6057830   0.2158830  )
        36           Si  tau(  36) = (   0.5540350   0.2988260   0.0519549  )
        37           Si  tau(  37) = (   0.5997150   0.8134780   0.5279060  )
        38           Si  tau(  38) = (   0.9115400   0.5397970   0.4122860  )
        39           Si  tau(  39) = (   0.9296570   0.8520990   0.1882470  )
        40           Si  tau(  40) = (   0.7792640   0.7211440   0.6184430  )
        41           Si  tau(  41) = (   0.4846800   0.0947754   0.8161990  )
        42           Si  tau(  42) = (   0.4825170   0.5592770   0.6222850  )
        43           Si  tau(  43) = (   0.0096269   0.0369417   0.3499340  )
        44           Si  tau(  44) = (   0.0321425   0.2174260   0.7729320  )
        45           Si  tau(  45) = (   0.1376770   0.4922860   0.6231580  )
        46           Si  tau(  46) = (   0.6451110   0.0090712   0.6389140  )
        47           Si  tau(  47) = (   0.7812900   0.1511330   0.8450710  )
        48           Si  tau(  48) = (   0.1915520   0.3830510   0.4069340  )
        49           Si  tau(  49) = (   0.9977650   0.2123180   0.0004115  )
        50           Si  tau(  50) = (   0.4679940   0.0681107   0.2999770  )
        51           Si  tau(  51) = (   0.1959730   0.3870200   0.0724977  )
        52           Si  tau(  52) = (   0.2192010   0.0150403   0.9779630  )
        53           Si  tau(  53) = (   0.7887180   0.3950120   0.5476390  )
        54           Si  tau(  54) = (   0.2902940   0.6321230   0.5340680  )
        55           Si  tau(  55) = (   0.8077580   0.5239370   0.8992600  )
        56           Si  tau(  56) = (   0.0969207   0.5341960   0.1983050  )
        57           Si  tau(  57) = (   0.6689650   0.3524790   0.8120820  )
        58           Si  tau(  58) = (   0.2981390   0.8201590   0.1022300  )
        59           Si  tau(  59) = (   0.7984650   0.0225879   0.3331300  )
        60           Si  tau(  60) = (   0.4553500   0.5087230   0.9897240  )
        61           Si  tau(  61) = (   0.0807130   0.7298500   0.0566786  )
        62           Si  tau(  62) = (   0.6187860   0.9019610   0.3322050  )
        63           Si  tau(  63) = (   0.5482500   0.6326440   0.8274960  )
        64           Si  tau(  64) = (   0.2931500   0.9477910   0.3255070  )

     number of k points=     1
                       cart. coord. in units 2pi/alat
        k(    1) = (   0.0000000   0.0000000   0.0000000), wk =   2.0000000

     Dense  grid:    90498 G-vectors     FFT dimensions: (  72,  72,  72)

     Estimated max dynamical RAM per process >     133.20 MB

     Estimated total dynamical RAM >     510.69 MB

     Initial potential from superposition of free atoms

     starting charge     255.9608, renormalised to     256.0000
     Starting wfcs are  256 randomized atomic wfcs

     total cpu time spent up to now is        4.3 secs

     Self-consistent Calculation

     iteration #  1     ecut=    30.00 Ry     beta= 0.50
     Davidson diagonalization with overlap
     ethr =  1.00E-02,  avg # of iterations =  2.0

     Threshold (ethr) on eigenvalues was too large:
     Diagonalizing with lowered threshold

     Davidson diagonalization with overlap
     ethr =  4.61E-04,  avg # of iterations =  4.0

     total cpu time spent up to now is        4.5 secs

     total energy              =    -501.26488028 Ry
     estimated scf accuracy    <       1.43652170 Ry

     iteration #  2     ecut=    30.00 Ry     beta= 0.50
     Davidson diagonalization with overlap
     ethr =  5.61E-04,  avg # of iterations = 11.0

     total cpu time spent up to now is        4.6 secs

     total energy              =    -501.00621394 Ry
     estimated scf accuracy    <       3.17355846 Ry

     iteration #  3     ecut=    30.00 Ry     beta= 0.50
     Davidson diagonalization with overlap
     ethr =  5.61E-04,  avg # of iterations =  9.0

     total cpu time spent up to now is        4.7 secs

     total energy              =    -501.33082284 Ry
     estimated scf accuracy    <       1.99548705 Ry

     iteration #  4     ecut=    30.00 Ry     beta= 0.50
     Davidson diagonalization with overlap
     ethr =  5.61E-04,  avg # of iterations =  8.0

     total cpu time spent up to now is        4.8 secs

     total energy              =    -501.51859093 Ry
     estimated scf accuracy    <       0.29563570 Ry

     iteration #  5     ecut=    30.00 Ry     beta= 0.50
     Davidson diagonalization with overlap
     ethr =  1.15E-04,  avg # of iterations =  7.0

     total cpu time spent up to now is        4.9 secs

     total energy              =    -501.55166557 Ry
     estimated scf accuracy    <       0.12948480 Ry

     iteration #  6     ecut=    30.00 Ry     beta= 0.50
     Davidson diagonalization with overlap
     ethr =  5.06E-05,  avg # of iterations =  8.0

     total cpu time spent up to now is        5.0 secs

     total energy              =    -501.56320247 Ry
     estimated scf accuracy    <       0.12174472 Ry

     iteration #  7     ecut=    30.00 Ry     beta= 0.50
     Davidson diagonalization with overlap
     ethr =  4.76E-05,  avg # of iterations =  5.0

     total cpu time spent up to now is        5.1 secs

     total energy              =    -501.57022712 Ry
     estimated scf accuracy    <       0.01755217 Ry

     iteration #  8     ecut=    30.00 Ry     beta= 0.50
     Davidson diagonalization with overlap
     ethr =  6.86E-06,  avg # of iterations = 13.0

     total cpu time spent up to now is        5.2 secs

     total energy              =    -501.57423828 Ry
     estimated scf accuracy    <       0.01522971 Ry

     iteration #  9     ecut=    30.00 Ry     beta= 0.50
     Davidson diagonalization with overlap
     ethr =  5.95E-06,  avg # of iterations =  3.0

     total cpu time spent up to now is        5.3 secs

     total energy              =    -501.57427062 Ry
     estimated scf accuracy    <       0.00832318 Ry

     iteration # 10     ecut=    30.00 Ry     beta= 0.50
     Davidson diagonalization with overlap
     ethr =  3.25E-06,  avg # of iterations =  9.0

     total cpu time spent up to now is        5.4 secs

     total energy              =    -501.57464712 Ry
     estimated scf accuracy    <       0.00174037 Ry

     iteration # 11     ecut=    30.00 Ry     beta= 0.50
     Davidson diagonalization with overlap
     ethr =  6.80E-07,  avg # of iterations =  9.0

     total cpu time spent up to now is        5.5 secs

     total energy              =    -501.57502727 Ry
     estimated scf accuracy    <       0.00175176 Ry

     iteration # 12     ecut=    30.00 Ry     beta= 0.50
     Davidson diagonalization with overlap
     ethr =  6.80E-07,  avg # of iterations =  2.0

     total cpu time spent up to now is        5.6 secs

     total energy              =    -501.57491729 Ry
     estimated scf accuracy    <       0.00096817 Ry

     iteration # 13     ecut=    30.00 Ry     beta= 0.50
     Davidson diagonalization with overlap
     ethr =  3.78E-07,  avg # of iterations =  3.0

     total cpu time spent up to now is        5.7 secs

     total energy              =    -501.57503077 Ry
     estimated scf accuracy    <       0.00003751 Ry

     iteration # 14     ecut=    30.00 Ry     beta= 0.50
     Davidson diagonalization with overlap
     c_bands:  1 eigenvalues not converged
     ethr =  1.47E-08,  avg # of iterations = 20.0

     total cpu time spent up to now is        5.9 secs

     total energy              =    -501.57505114 Ry
     estimated scf accuracy    <       0.00033395 Ry

     iteration # 15     ecut=    30.00 Ry     beta= 0.50
     Davidson diagonalization with overlap
     ethr =  1.47E-08,  avg # of iterations = 17.0

     total cpu time spent up to now is        6.0 secs

     total energy              =    -501.57504833 Ry
     estimated scf accuracy    <       0.00012127 Ry

     iteration # 16     ecut=    30.00 Ry     beta= 0.50
     Davidson diagonalization with overlap
     ethr =  1.47E-08,  avg # of iterations =  6.0

     total cpu time spent up to now is        6.1 secs

     total energy              =    -501.57505244 Ry
     estimated scf accuracy    <       0.00002671 Ry

     iteration # 17     ecut=    30.00 Ry     beta= 0.50
     Davidson diagonalization with overlap
     ethr =  1.04E-08,  avg # of iterations =  5.0

     total cpu time spent up to now is        6.2 secs

     total energy              =    -501.57505319 Ry
     estimated scf accuracy    <       0.00000885 Ry

     iteration # 18     ecut=    30.00 Ry     beta= 0.50
     Davidson diagonalization with overlap
     ethr =  3.46E-09,  avg # of iterations = 17.0

     total cpu time spent up to now is        6.4 secs

     total energy              =    -501.57505497 Ry
     estimated scf accuracy    <       0.00001127 Ry

     iteration # 19     ecut=    30.00 Ry     beta= 0.50
     Davidson diagonalization with overlap
     ethr =  3.46E-09,  avg # of iterations =  3.0

     total cpu time spent up to now is        6.5 secs

     total energy              =    -501.57505525 Ry
     estimated scf accuracy    <       0.00000574 Ry

     iteration # 20     ecut=    30.00 Ry     beta= 0.50
     Davidson diagonalization with overlap
     c_bands:  1 eigenvalues not converged
     ethr =  2.24E-09,  avg # of iterations = 20.0

     total cpu time spent up to now is        6.6 secs

     total energy              =    -501.57505543 Ry
     estimated scf accuracy    <       0.00000511 Ry

     iteration # 21     ecut=    30.00 Ry     beta= 0.50
     Davidson diagonalization with overlap
     ethr =  2.00E-09,  avg # of iterations =  2.0

     total cpu time spent up to now is        6.7 secs

     total energy              =    -501.57505531 Ry
     estimated scf accuracy    <       0.00000382 Ry

     iteration # 22     ecut=    30.00 Ry     beta= 0.50
     Davidson diagonalization with overlap
     ethr =  1.49E-09,  avg # of iterations = 11.0

     total cpu time spent up to now is        6.8 secs

     total energy              =    -501.57505514 Ry
     estimated scf accuracy    <       0.00000199 Ry

     iteration # 23     ecut=    30.00 Ry     beta= 0.50
     Davidson diagonalization with overlap
     ethr =  7.75E-10,  avg # of iterations = 13.0

     total cpu time spent up to now is        6.9 secs

     End of self-consistent calculation

          k = 0.0000 0.0000 0.0000 ( 11324 PWs)   bands (ev):

    -5.3706  -4.3982  -4.3622  -4.2329  -4.1319  -4.0868  -4.0637  -3.4106
    -3.3460  -3.1853  -3.1491  -3.0968  -3.0257  -2.9793  -2.9664  -2.8170
    -2.7628  -2.7039  -2.6039  -2.0928  -1.9750  -1.9076  -1.8513  -1.7930
    -1.7080  -1.5381  -1.4647  -0.9792  -0.8837  -0.8330  -0.7397  -0.6026
    -0.3875  -0.3211  -0.1242  -0.0904   0.0757   0.1497   0.1736   0.2954
     0.3630   0.4258   0.4648   0.6285   0.6480   0.7391   0.7582   0.8518
     1.0583   1.0705   1.1732   1.2865   1.3322   1.3772   1.5363   1.5901
     1.6358   1.7339   1.9427   2.0261   2.0609   2.3120   2.3461   2.4793
     2.5837   2.6824   2.7302   2.7736   2.8457   2.8619   2.9105   3.0132
     3.1269   3.1473   3.2018   3.2772   3.3198   3.4424   3.4701   3.6088
     3.7439   4.0339   4.2782   4.3635   4.4629   4.5448   4.5550   4.6121
     4.6600   4.7156   4.7967   4.9276   4.9926   5.0440   5.0730   5.1217
     5.1705   5.2354   5.3599   5.4012   5.4243   5.4879   5.5683   5.6148
     5.6605   5.6832   5.7701   5.8511   5.8637   5.9099   5.9856   6.0879
     6.1004   6.1309   6.1608   6.3192   6.3733   6.4059   6.4698   6.5713
     6.6851   6.6994   6.7697   6.8000   6.8531   6.8982   6.9563   6.9925

     highest occupied level (ev):     6.9925

!    total energy              =    -501.57505494 Ry
     estimated scf accuracy    <       0.00000064 Ry

     The total energy is the sum of the following terms:
     one-electron contribution =     187.86510849 Ry
     hartree contribution      =      24.07383694 Ry
     xc contribution           =    -151.39310658 Ry
     ewald contribution        =    -562.12089379 Ry

     convergence has been achieved in  23 iterations

     Forces acting on atoms (cartesian axes, Ry/au):

     atom    1 type  1   force =     0.03286602    0.01355483    0.03096893
     atom    2 type  1   force =    -0.01143502   -0.02443545   -0.00269739
     atom    3 type  1   force =    -0.01744244    0.09248371    0.01756983
     atom    4 type  1   force =    -0.04678586   -0.06062951   -0.02444736
     atom    5 type  1   force =    -0.06017825    0.02403696   -0.05405278
     atom    6 type  1   force =     0.03284924    0.06872238   -0.02623002
     atom    7 type  1   force =     0.02434990    0.03483419    0.04906196
     atom    8 type  1   force =    -0.02883643   -0.04542311   -0.00719830
     atom    9 type  1   force =     0.03764819    0.00172894    0.03266008
     atom   10 type  1   force =     0.02003380    0.01687291    0.01201705
     atom   11 type  1   force =     0.02090495   -0.00443209    0.00131082
     atom   12 type  1   force =    -0.00046758    0.00202742    0.03978776
     atom   13 type  1   force =    -0.05154160    0.00726185   -0.01805648
     atom   14 type  1   force =     0.05398601    0.00686144   -0.02760484
     atom   15 type  1   force =    -0.02529635   -0.01994071   -0.01938817
     atom   16 type  1   force =    -0.02640364   -0.04534122    0.04634413
     atom   17 type  1   force =     0.00537552    0.00368289   -0.02100052
     atom   18 type  1   force =     0.01312096    0.01152801    0.00335816
     atom   19 type  1   force =    -0.00811603    0.00438005   -0.00808306
     atom   20 type  1   force =    -0.02321315    0.00570052   -0.01730799
     atom   21 type  1   force =    -0.00005411    0.00838594    0.02086577
     atom   22 type  1   force =     0.00262343    0.00931612   -0.00261721
     atom   23 type  1   force =    -0.02142094    0.00612393   -0.01097400
     atom   24 type  1   force =     0.02519937   -0.01346580    0.05410627
     atom   25 type  1   force =    -0.08087704   -0.00112919   -0.01275235
     atom   26 type  1   force =     0.01668079    0.03131543   -0.06416852
     atom   27 type  1   force =     0.00907489   -0.00880589   -0.01268071
     atom   28 type  1   force =     0.05175658    0.01860956   -0.00802094
     atom   29 type  1   force =    -0.00887077    0.02467006    0.02459645
     atom   30 type  1   force =     0.02802526   -0.03358931   -0.02763957
     atom   31 type  1   force =     0.02264119   -0.00015840    0.00596726
     atom   32 type  1   force =    -0.00236531   -0.01370956    0.01222471
     atom   33 type  1   force =    -0.03623584    0.02553232   -0.02232771
     atom   34 type  1   force =     0.02765676   -0.00497963   -0.07539150
     atom   35 type  1   force =     0.01780770   -0.00522994   -0.03465306
     atom   36 type  1   force =    -0.02054075    0.00219730   -0.00805411
     atom   37 type  1   force =    -0.03216307    0.00804769    0.01767710
     atom   38 type  1   force =    -0.01816119   -0.00111220   -0.02518009
     atom   39 type  1   force =     0.02299523   -0.02667922    0.00224165
     atom   40 type  1   force =     0.01577604    0.00600427    0.01654499
     atom   41 type  1   force =     0.02348491    0.00038867   -0.01737897
     atom   42 type  1   force =     0.02985754   -0.02074996   -0.00380304
     atom   43 type  1   force =     0.03319213   -0.01369455    0.01460264
     atom   44 type  1   force =    -0.02927849    0.00474826    0.00891236
     atom   45 type  1   force =    -0.01912232   -0.00415367   -0.00510519
     atom   46 type  1   force =    -0.03122228   -0.01795940    0.07112686
     atom   47 type  1   force =     0.00913842   -0.01306567   -0.02078985
     atom   48 type  1   force =    -0.03345904   -0.00425407    0.00812860
     atom   49 type  1   force =    -0.00171180    0.00933906    0.02819264
     atom   50 type  1   force =     0.02277391    0.03203094   -0.01768819
     atom   51 type  1   force =     0.01898379   -0.04841762   -0.00418439
     atom   52 type  1   force =     0.05328346    0.01690775    0.04815832
     atom   53 type  1   force =    -0.01294879   -0.01681921   -0.04137075
     atom   54 type  1   force =     0.00058676   -0.00229683    0.01725735
     atom   55 type  1   force =     0.00757754    0.01935068   -0.07017637
     atom   56 type  1   force =    -0.04839282   -0.00076603   -0.00045276
     atom   57 type  1   force =     0.04971707   -0.00742844    0.07008434
     atom   58 type  1   force =    -0.01784678    0.01896942   -0.01596614
     atom   59 type  1   force =    -0.00872607    0.00398161    0.01330716
     atom   60 type  1   force =     0.01185086   -0.01568669    0.03814195
     atom   61 type  1   force =     0.01164270   -0.00919540    0.02360327
     atom   62 type  1   force =    -0.00117176   -0.01455071    0.00688148
     atom   63 type  1   force =     0.00417939   -0.01199422   -0.01967510
     atom   64 type  1   force =    -0.03335478   -0.02950138    0.01141755

     Total force =     0.385555     Total SCF correction =     0.001526


     Computing stress (Cartesian axis) and pressure

          total   stress  (Ry/bohr**3)                   (kbar)     P=      -17.81
  -0.00016686   0.00001977   0.00009235          -24.55        2.91       13.59
   0.00001977  -0.00008007  -0.00002284            2.91      -11.78       -3.36
   0.00009235  -0.00002284  -0.00011618           13.59       -3.36      -17.09

 
     init_run     :      0.92s CPU      4.24s WALL (       1 calls)
     electrons    :      2.43s CPU      2.61s WALL (       1 calls)
     forces       :      0.03s CPU      0.03s WALL (       1 calls)
     stress       :      0.12s CPU      0.12s WALL (       1 calls)

     Called by init_run:
     wfcinit      :      0.41s CPU      3.57s WALL (       1 calls)
                                        3.57s GPU  (       1 calls)
     potinit      :      0.04s CPU      0.12s WALL (       1 calls)
     hinit0       :      0.45s CPU      0.48s WALL (       1 calls)

     Called by electrons:
     c_bands      :      1.72s CPU      1.82s WALL (      24 calls)
     sum_band     :      0.34s CPU      0.39s WALL (      24 calls)
     v_of_rho     :      0.15s CPU      0.24s WALL (      24 calls)
     mix_rho      :      0.18s CPU      0.19s WALL (      24 calls)

     Called by c_bands:
     init_us_2    :      0.06s CPU      0.07s WALL (      49 calls)
     init_us_2:gp :      0.06s CPU      0.06s WALL (      49 calls)
     regterg      :      1.56s CPU      1.65s WALL (      24 calls)

     Called by *egterg:
     rdiaghg      :      0.79s CPU      1.46s WALL (     230 calls)
                                        1.42s GPU  (     230 calls)
     h_psi        :      0.95s CPU      3.50s WALL (     232 calls)
                                        3.50s GPU  (     232 calls)
     g_psi        :      0.00s CPU      0.01s WALL (     207 calls)
                                        0.00s GPU  (     207 calls)

     Called by h_psi:
     h_psi:calbec :      0.42s CPU      2.90s WALL (     232 calls)
                                        2.90s GPU  (     232 calls)
     vloc_psi     :      0.41s CPU      0.48s WALL (     232 calls)
                                        0.48s GPU  (     232 calls)
     add_vuspsi   :      0.09s CPU      0.11s WALL (     232 calls)
                                        0.11s GPU  (     232 calls)

     General routines
     calbec       :      0.42s CPU      2.90s WALL (     237 calls)
     fft          :      0.57s CPU      0.70s WALL (     199 calls)
                                        0.12s GPU  (     126 calls)
     ffts         :      0.04s CPU      0.04s WALL (      24 calls)
     fftw         :      0.48s CPU      0.63s WALL (    2360 calls)
                                        0.55s GPU  (    2360 calls)
 
     Parallel routines
 
     PWSCF        :      3.53s CPU      7.08s WALL

 
   This run was terminated on:  15:21:29   9May2023            

=------------------------------------------------------------------------------=
   JOB DONE.
=------------------------------------------------------------------------------=
