An instance of this daemon is already running
An instance of this daemon is already running
An instance of this daemon is already running

     Program PWSCF v.7.1 starts on  9May2023 at 15:21:31 

     This program is part of the open-source Quantum ESPRESSO suite
     for quantum simulation of materials; please cite
         "P. Giannozzi et al., J. Phys.:Condens. Matter 21 395502 (2009);
         "P. Giannozzi et al., J. Phys.:Condens. Matter 29 465901 (2017);
         "P. Giannozzi et al., J. Chem. Phys. 152 154105 (2020);
          URL http://www.quantum-espresso.org", 
     in publications or presentations arising from this work. More details at
     http://www.quantum-espresso.org/quote

     Parallel version (MPI & OpenMP), running on       4 processor cores
     Number of MPI processes:                 4
     Threads/MPI process:                     1

     MPI processes distributed on     1 nodes
     49121 MiB available memory on the printing compute node when the environment starts
 
     Reading input from pw-si-80.in
Warning: card &CELL ignored
Warning: card / ignored

     Current dimensions of program PWSCF are:
     Max number of different atomic species (ntypx) = 10
     Max number of k-points (npk) =  40000
     Max angular momentum in pseudopotentials (lmaxx) =  4

     IMPORTANT: XC functional enforced from input :
     Exchange-correlation= PBE
                           (   1   4   3   4   0   0   0)
     Any further DFT definition will be discarded
     Please, verify this is what you really want


     gamma-point specific algorithms are used
 
     K-points division:     npool     =       2
     R & G space division:  proc/nbgrp/npool/nimage =       2
     Subspace diagonalization in iterative solution of the eigenvalue problem:
     a serial algorithm will be used

     Message from routine divide_et_impera:
     suboptimal parallelization: some nodes have no k-points
 
     Parallelization info
     --------------------
     sticks:   dense  smooth     PW     G-vecs:    dense   smooth      PW
     Min        1972    1972    520                92819    92819   12668
     Max        1973    1973    521                92820    92820   12673
     Sum        3945    3945   1041               185639   185639   25341
 
     Using Slab Decomposition
 


     bravais-lattice index     =            0
     lattice parameter (alat)  =      20.2996  a.u.
     unit-cell volume          =    8364.9270 (a.u.)^3
     number of atoms/cell      =           64
     number of atomic types    =            1
     number of electrons       =       256.00
     number of Kohn-Sham states=          128
     kinetic-energy cutoff     =      30.0000  Ry
     charge density cutoff     =     120.0000  Ry
     scf convergence threshold =      1.0E-06
     mixing beta               =       0.5000
     number of iterations used =            8  plain     mixing
     Exchange-correlation= PBE
                           (   1   4   3   4   0   0   0)

     GPU acceleration is ACTIVE.
     GPU-aware MPI enabled

     Message from routine print_cuda_info:
     High GPU oversubscription detected. Are you sure this is what you want?

     celldm(1)=  20.299596  celldm(2)=   0.000000  celldm(3)=   0.000000
     celldm(4)=   0.000000  celldm(5)=   0.000000  celldm(6)=   0.000000

     crystal axes: (cart. coord. in units of alat)
               a(1) = (   1.000000   0.000000   0.000000 )  
               a(2) = (   0.000000   1.000000   0.000000 )  
               a(3) = (   0.000000   0.000000   1.000000 )  

     reciprocal axes: (cart. coord. in units 2 pi/alat)
               b(1) = (  1.000000  0.000000  0.000000 )  
               b(2) = (  0.000000  1.000000  0.000000 )  
               b(3) = (  0.000000  0.000000  1.000000 )  


     PseudoPot. # 1 for Si read from file:
     /home/ppiaggi/pseudos/Si_ONCV_PBE_sr.upf
     MD5 check sum: 8553c464762ac42b85b1eed164b4d029
     Pseudo is Norm-conserving, Zval =  4.0
     Generated using ONCVPSP code by D. R. Hamann
     Using radial grid of 1510 points,  4 beta functions with: 
                l(1) =   0
                l(2) =   0
                l(3) =   1
                l(4) =   1

     atomic species   valence    mass     pseudopotential
        Si             4.00    28.08500     Si( 1.00)

     No symmetry found



   Cartesian axes

     site n.     atom                  positions (alat units)
         1           Si  tau(   1) = (   0.2216530   0.5366940   0.3854030  )
         2           Si  tau(   2) = (   0.7138740   0.3907530   0.4245470  )
         3           Si  tau(   3) = (   0.2408780   0.2403520   0.3593950  )
         4           Si  tau(   4) = (   0.3020530   0.8974550   0.7359380  )
         5           Si  tau(   5) = (   0.6099580   0.4626080   0.6164610  )
         6           Si  tau(   6) = (   0.3570740   0.0188372   0.4026970  )
         7           Si  tau(   7) = (   0.0827057   0.9843720   0.4088730  )
         8           Si  tau(   8) = (   0.2591660   0.7563840   0.2804710  )
         9           Si  tau(   9) = (   0.7036030   0.6755760   0.9631790  )
        10           Si  tau(  10) = (   0.0395821   0.4073910   0.5289200  )
        11           Si  tau(  11) = (   0.6047270   0.1241310   0.3622630  )
        12           Si  tau(  12) = (   0.2416620   0.4337250   0.1929670  )
        13           Si  tau(  13) = (   0.4013790   0.1616080   0.1125430  )
        14           Si  tau(  14) = (   0.0730287   0.1296370   0.9292330  )
        15           Si  tau(  15) = (   0.5220280   0.2363850   0.7993980  )
        16           Si  tau(  16) = (   0.9847290   0.0219060   0.6846860  )
        17           Si  tau(  17) = (   0.8882220   0.8974580   0.3276860  )
        18           Si  tau(  18) = (   0.4864450   0.6411780   0.0312581  )
        19           Si  tau(  19) = (   0.9115030   0.7446150   0.1560860  )
        20           Si  tau(  20) = (   0.4017070   0.8360960   0.5403010  )
        21           Si  tau(  21) = (   0.5067520   0.9785950   0.2081890  )
        22           Si  tau(  22) = (   0.6134110   0.0900958   0.5938210  )
        23           Si  tau(  23) = (   0.4501490   0.6251540   0.7213170  )
        24           Si  tau(  24) = (   0.7257110   0.1886260   0.8565300  )
        25           Si  tau(  25) = (   0.9177780   0.6972390   0.4773660  )
        26           Si  tau(  26) = (   0.5308110   0.6433120   0.4229870  )
        27           Si  tau(  27) = (   0.9818540   0.1767440   0.2923690  )
        28           Si  tau(  28) = (   0.2146250   0.2741870   0.5945630  )
        29           Si  tau(  29) = (   0.3778540   0.0857041   0.9131420  )
        30           Si  tau(  30) = (   0.1810890   0.0572550   0.6450280  )
        31           Si  tau(  31) = (   0.2001660   0.9252380   0.9696820  )
        32           Si  tau(  32) = (   0.1332940   0.6801170   0.1151650  )
        33           Si  tau(  33) = (   0.7314830   0.5353010   0.8017010  )
        34           Si  tau(  34) = (   0.8369800   0.8971910   0.5795450  )
        35           Si  tau(  35) = (   0.6854430   0.3785580   0.9776460  )
        36           Si  tau(  36) = (   0.7581110   0.6055290   0.3549240  )
        37           Si  tau(  37) = (   0.8903860   0.2430580   0.4701380  )
        38           Si  tau(  38) = (   0.8327840   0.9039070   0.0239956  )
        39           Si  tau(  39) = (   0.7824470   0.0620211   0.2244940  )
        40           Si  tau(  40) = (   0.8800040   0.1530630   0.0293019  )
        41           Si  tau(  41) = (   0.5188030   0.8544660   0.8493810  )
        42           Si  tau(  42) = (   0.1924000   0.7134630   0.7348150  )
        43           Si  tau(  43) = (   0.1642380   0.7678410   0.4899430  )
        44           Si  tau(  44) = (   0.5846240   0.3283790   0.2351170  )
        45           Si  tau(  45) = (   0.1750840   0.3193100   0.8377790  )
        46           Si  tau(  46) = (   0.8314080   0.1696390   0.6648040  )
        47           Si  tau(  47) = (   0.4146590   0.3621930   0.5819550  )
        48           Si  tau(  48) = (   0.0049378   0.8662360   0.8570090  )
        49           Si  tau(  49) = (   0.0035920   0.5078050   0.3165090  )
        50           Si  tau(  50) = (   0.6094890   0.8756570   0.6598720  )
        51           Si  tau(  51) = (   0.9348080   0.3850430   0.1264420  )
        52           Si  tau(  52) = (   0.6221920   0.0082908   0.9701200  )
        53           Si  tau(  53) = (   0.9181050   0.3864780   0.8385490  )
        54           Si  tau(  54) = (   0.0141732   0.5345510   0.7122740  )
        55           Si  tau(  55) = (   0.1022080   0.4659430   0.0076511  )
        56           Si  tau(  56) = (   0.2146820   0.9793060   0.2052890  )
        57           Si  tau(  57) = (   0.3936010   0.4210220   0.8341750  )
        58           Si  tau(  58) = (   0.1677830   0.1892730   0.1310510  )
        59           Si  tau(  59) = (   0.2838400   0.6921860   0.9450680  )
        60           Si  tau(  60) = (   0.4449610   0.4675810   0.3640990  )
        61           Si  tau(  61) = (   0.7375940   0.5140090   0.1483770  )
        62           Si  tau(  62) = (   0.4514300   0.4236920   0.0549338  )
        63           Si  tau(  63) = (   0.4739830   0.7335060   0.2247310  )
        64           Si  tau(  64) = (   0.8965200   0.6949880   0.7137410  )

     number of k points=     1
                       cart. coord. in units 2pi/alat
        k(    1) = (   0.0000000   0.0000000   0.0000000), wk =   2.0000000

     Dense  grid:    92820 G-vectors     FFT dimensions: (  72,  72,  72)

     Estimated max dynamical RAM per process >     136.35 MB

     Estimated total dynamical RAM >     522.75 MB

     Initial potential from superposition of free atoms

     starting charge     255.9608, renormalised to     256.0000
     Starting wfcs are  256 randomized atomic wfcs

     total cpu time spent up to now is        4.2 secs

     Self-consistent Calculation

     iteration #  1     ecut=    30.00 Ry     beta= 0.50
     Davidson diagonalization with overlap
     ethr =  1.00E-02,  avg # of iterations =  2.0

     Threshold (ethr) on eigenvalues was too large:
     Diagonalizing with lowered threshold

     Davidson diagonalization with overlap
     ethr =  3.97E-04,  avg # of iterations =  6.0

     total cpu time spent up to now is        4.4 secs

     total energy              =    -501.18168577 Ry
     estimated scf accuracy    <       1.25260298 Ry

     iteration #  2     ecut=    30.00 Ry     beta= 0.50
     Davidson diagonalization with overlap
     ethr =  4.89E-04,  avg # of iterations =  9.0

     total cpu time spent up to now is        4.5 secs

     total energy              =    -501.05686424 Ry
     estimated scf accuracy    <       1.62326964 Ry

     iteration #  3     ecut=    30.00 Ry     beta= 0.50
     Davidson diagonalization with overlap
     ethr =  4.89E-04,  avg # of iterations = 11.0

     total cpu time spent up to now is        4.7 secs

     total energy              =    -501.19780639 Ry
     estimated scf accuracy    <       1.85669224 Ry

     iteration #  4     ecut=    30.00 Ry     beta= 0.50
     Davidson diagonalization with overlap
     ethr =  4.89E-04,  avg # of iterations =  7.0

     total cpu time spent up to now is        4.8 secs

     total energy              =    -501.35919961 Ry
     estimated scf accuracy    <       0.25476490 Ry

     iteration #  5     ecut=    30.00 Ry     beta= 0.50
     Davidson diagonalization with overlap
     ethr =  9.95E-05,  avg # of iterations =  8.0

     total cpu time spent up to now is        4.9 secs

     total energy              =    -501.38875159 Ry
     estimated scf accuracy    <       0.11166945 Ry

     iteration #  6     ecut=    30.00 Ry     beta= 0.50
     Davidson diagonalization with overlap
     ethr =  4.36E-05,  avg # of iterations = 10.0

     total cpu time spent up to now is        5.0 secs

     total energy              =    -501.39863847 Ry
     estimated scf accuracy    <       0.11476120 Ry

     iteration #  7     ecut=    30.00 Ry     beta= 0.50
     Davidson diagonalization with overlap
     ethr =  4.36E-05,  avg # of iterations =  3.0

     total cpu time spent up to now is        5.1 secs

     total energy              =    -501.40303772 Ry
     estimated scf accuracy    <       0.02302678 Ry

     iteration #  8     ecut=    30.00 Ry     beta= 0.50
     Davidson diagonalization with overlap
     ethr =  8.99E-06,  avg # of iterations = 14.0

     total cpu time spent up to now is        5.2 secs

     total energy              =    -501.40848669 Ry
     estimated scf accuracy    <       0.01811557 Ry

     iteration #  9     ecut=    30.00 Ry     beta= 0.50
     Davidson diagonalization with overlap
     ethr =  7.08E-06,  avg # of iterations =  3.0

     total cpu time spent up to now is        5.3 secs

     total energy              =    -501.40776219 Ry
     estimated scf accuracy    <       0.01207335 Ry

     iteration # 10     ecut=    30.00 Ry     beta= 0.50
     Davidson diagonalization with overlap
     ethr =  4.72E-06,  avg # of iterations = 11.0

     total cpu time spent up to now is        5.4 secs

     total energy              =    -501.40855803 Ry
     estimated scf accuracy    <       0.00129628 Ry

     iteration # 11     ecut=    30.00 Ry     beta= 0.50
     Davidson diagonalization with overlap
     c_bands:  1 eigenvalues not converged
     ethr =  5.06E-07,  avg # of iterations = 20.0

     total cpu time spent up to now is        5.6 secs

     total energy              =    -501.40909355 Ry
     estimated scf accuracy    <       0.00316056 Ry

     iteration # 12     ecut=    30.00 Ry     beta= 0.50
     Davidson diagonalization with overlap
     ethr =  5.06E-07,  avg # of iterations = 12.0

     total cpu time spent up to now is        5.7 secs

     total energy              =    -501.40890419 Ry
     estimated scf accuracy    <       0.00268067 Ry

     iteration # 13     ecut=    30.00 Ry     beta= 0.50
     Davidson diagonalization with overlap
     ethr =  5.06E-07,  avg # of iterations =  3.0

     total cpu time spent up to now is        5.8 secs

     total energy              =    -501.40880834 Ry
     estimated scf accuracy    <       0.00125591 Ry

     iteration # 14     ecut=    30.00 Ry     beta= 0.50
     Davidson diagonalization with overlap
     c_bands:  1 eigenvalues not converged
     ethr =  4.91E-07,  avg # of iterations = 20.0

     total cpu time spent up to now is        5.9 secs

     total energy              =    -501.40888073 Ry
     estimated scf accuracy    <       0.00087949 Ry

     iteration # 15     ecut=    30.00 Ry     beta= 0.50
     Davidson diagonalization with overlap
     c_bands:  1 eigenvalues not converged
     ethr =  3.44E-07,  avg # of iterations = 20.0

     total cpu time spent up to now is        6.1 secs

     total energy              =    -501.40898086 Ry
     estimated scf accuracy    <       0.00030542 Ry

     iteration # 16     ecut=    30.00 Ry     beta= 0.50
     Davidson diagonalization with overlap
     c_bands:  1 eigenvalues not converged
     ethr =  1.19E-07,  avg # of iterations = 20.0

     total cpu time spent up to now is        6.3 secs

     total energy              =    -501.40899849 Ry
     estimated scf accuracy    <       0.00040685 Ry

     iteration # 17     ecut=    30.00 Ry     beta= 0.50
     Davidson diagonalization with overlap
     ethr =  1.19E-07,  avg # of iterations = 13.0

     total cpu time spent up to now is        6.4 secs

     total energy              =    -501.40898910 Ry
     estimated scf accuracy    <       0.00021820 Ry

     iteration # 18     ecut=    30.00 Ry     beta= 0.50
     Davidson diagonalization with overlap
     ethr =  8.52E-08,  avg # of iterations =  7.0

     total cpu time spent up to now is        6.5 secs

     total energy              =    -501.40898428 Ry
     estimated scf accuracy    <       0.00012497 Ry

     iteration # 19     ecut=    30.00 Ry     beta= 0.50
     Davidson diagonalization with overlap
     c_bands:  1 eigenvalues not converged
     ethr =  4.88E-08,  avg # of iterations = 20.0

     total cpu time spent up to now is        6.6 secs

     total energy              =    -501.40900578 Ry
     estimated scf accuracy    <       0.00013180 Ry

     iteration # 20     ecut=    30.00 Ry     beta= 0.50
     Davidson diagonalization with overlap
     c_bands:  1 eigenvalues not converged
     ethr =  4.88E-08,  avg # of iterations = 20.0

     total cpu time spent up to now is        6.8 secs

     total energy              =    -501.40902545 Ry
     estimated scf accuracy    <       0.00033165 Ry

     iteration # 21     ecut=    30.00 Ry     beta= 0.50
     Davidson diagonalization with overlap
     c_bands:  1 eigenvalues not converged
     ethr =  4.88E-08,  avg # of iterations = 20.0

     total cpu time spent up to now is        6.9 secs

     total energy              =    -501.40906055 Ry
     estimated scf accuracy    <       0.00063664 Ry

     iteration # 22     ecut=    30.00 Ry     beta= 0.50
     Davidson diagonalization with overlap
     c_bands:  1 eigenvalues not converged
     ethr =  4.88E-08,  avg # of iterations = 20.0

     total cpu time spent up to now is        7.1 secs

     total energy              =    -501.40911291 Ry
     estimated scf accuracy    <       0.00324624 Ry

     iteration # 23     ecut=    30.00 Ry     beta= 0.50
     Davidson diagonalization with overlap
     c_bands:  1 eigenvalues not converged
     ethr =  4.88E-08,  avg # of iterations = 20.0

     total cpu time spent up to now is        7.2 secs

     total energy              =    -501.40927679 Ry
     estimated scf accuracy    <       0.00586923 Ry

     iteration # 24     ecut=    30.00 Ry     beta= 0.50
     Davidson diagonalization with overlap
     c_bands:  1 eigenvalues not converged
     ethr =  4.88E-08,  avg # of iterations = 20.0

     total cpu time spent up to now is        7.4 secs

     total energy              =    -501.40942267 Ry
     estimated scf accuracy    <       0.01526737 Ry

     iteration # 25     ecut=    30.00 Ry     beta= 0.50
     Davidson diagonalization with overlap
     c_bands:  1 eigenvalues not converged
     ethr =  4.88E-08,  avg # of iterations = 20.0

     total cpu time spent up to now is        7.5 secs

     total energy              =    -501.40959756 Ry
     estimated scf accuracy    <       0.02074647 Ry

     iteration # 26     ecut=    30.00 Ry     beta= 0.50
     Davidson diagonalization with overlap
     c_bands:  1 eigenvalues not converged
     ethr =  4.88E-08,  avg # of iterations = 20.0

     total cpu time spent up to now is        7.7 secs

     total energy              =    -501.40981361 Ry
     estimated scf accuracy    <       0.03275489 Ry

     iteration # 27     ecut=    30.00 Ry     beta= 0.50
     Davidson diagonalization with overlap
     c_bands:  1 eigenvalues not converged
     ethr =  4.88E-08,  avg # of iterations = 20.0

     total cpu time spent up to now is        7.8 secs

     total energy              =    -501.41002656 Ry
     estimated scf accuracy    <       0.03807063 Ry

     iteration # 28     ecut=    30.00 Ry     beta= 0.50
     Davidson diagonalization with overlap
     c_bands:  1 eigenvalues not converged
     ethr =  4.88E-08,  avg # of iterations = 20.0

     total cpu time spent up to now is        8.0 secs

     total energy              =    -501.41026235 Ry
     estimated scf accuracy    <       0.04881440 Ry

     iteration # 29     ecut=    30.00 Ry     beta= 0.50
     Davidson diagonalization with overlap
     c_bands:  1 eigenvalues not converged
     ethr =  4.88E-08,  avg # of iterations = 20.0

     total cpu time spent up to now is        8.1 secs

     total energy              =    -501.41039983 Ry
     estimated scf accuracy    <       0.05007669 Ry

     iteration # 30     ecut=    30.00 Ry     beta= 0.50
     Davidson diagonalization with overlap
     c_bands:  1 eigenvalues not converged
     ethr =  4.88E-08,  avg # of iterations = 20.0

     total cpu time spent up to now is        8.3 secs

     total energy              =    -501.41054233 Ry
     estimated scf accuracy    <       0.05072238 Ry

     iteration # 31     ecut=    30.00 Ry     beta= 0.50
     Davidson diagonalization with overlap
     c_bands:  1 eigenvalues not converged
     ethr =  4.88E-08,  avg # of iterations = 20.0

     total cpu time spent up to now is        8.4 secs

     total energy              =    -501.41061351 Ry
     estimated scf accuracy    <       0.05069150 Ry

     iteration # 32     ecut=    30.00 Ry     beta= 0.50
     Davidson diagonalization with overlap
     c_bands:  2 eigenvalues not converged
     ethr =  4.88E-08,  avg # of iterations = 20.0

     total cpu time spent up to now is        8.6 secs

     total energy              =    -501.41062539 Ry
     estimated scf accuracy    <       0.05336626 Ry

     iteration # 33     ecut=    30.00 Ry     beta= 0.50
     Davidson diagonalization with overlap
     c_bands:  2 eigenvalues not converged
     ethr =  4.88E-08,  avg # of iterations = 20.0

     total cpu time spent up to now is        8.8 secs

     total energy              =    -501.41042684 Ry
     estimated scf accuracy    <       0.05334522 Ry

     iteration # 34     ecut=    30.00 Ry     beta= 0.50
     Davidson diagonalization with overlap
     c_bands:  1 eigenvalues not converged
     ethr =  4.88E-08,  avg # of iterations = 20.0

     total cpu time spent up to now is        9.0 secs

     total energy              =    -501.40481310 Ry
     estimated scf accuracy    <       0.05114331 Ry

     iteration # 35     ecut=    30.00 Ry     beta= 0.50
     Davidson diagonalization with overlap
     c_bands:  3 eigenvalues not converged
     ethr =  4.88E-08,  avg # of iterations = 20.0

     total cpu time spent up to now is        9.2 secs

     total energy              =    -501.39910686 Ry
     estimated scf accuracy    <       0.15300894 Ry

     iteration # 36     ecut=    30.00 Ry     beta= 0.50
     Davidson diagonalization with overlap
     c_bands:  3 eigenvalues not converged
     ethr =  4.88E-08,  avg # of iterations = 20.0

     total cpu time spent up to now is        9.4 secs

     total energy              =    -501.40816519 Ry
     estimated scf accuracy    <       0.01391952 Ry

     iteration # 37     ecut=    30.00 Ry     beta= 0.50
     Davidson diagonalization with overlap
     c_bands:  4 eigenvalues not converged
     ethr =  4.88E-08,  avg # of iterations = 20.0

     total cpu time spent up to now is        9.6 secs

     total energy              =    -501.40632576 Ry
     estimated scf accuracy    <       0.04987123 Ry

     iteration # 38     ecut=    30.00 Ry     beta= 0.50
     Davidson diagonalization with overlap
     c_bands:  3 eigenvalues not converged
     ethr =  4.88E-08,  avg # of iterations = 20.0

     total cpu time spent up to now is        9.8 secs

     total energy              =    -501.40767723 Ry
     estimated scf accuracy    <       0.01012650 Ry

     iteration # 39     ecut=    30.00 Ry     beta= 0.50
     Davidson diagonalization with overlap
     c_bands:  1 eigenvalues not converged
     ethr =  4.88E-08,  avg # of iterations = 20.0

     total cpu time spent up to now is       10.0 secs

     total energy              =    -501.40742663 Ry
     estimated scf accuracy    <       0.01717069 Ry

     iteration # 40     ecut=    30.00 Ry     beta= 0.50
     Davidson diagonalization with overlap
     c_bands:  2 eigenvalues not converged
     ethr =  4.88E-08,  avg # of iterations = 20.0

     total cpu time spent up to now is       10.2 secs

     total energy              =    -501.40892556 Ry
     estimated scf accuracy    <       0.00409918 Ry

     iteration # 41     ecut=    30.00 Ry     beta= 0.50
     Davidson diagonalization with overlap
     c_bands:  1 eigenvalues not converged
     ethr =  4.88E-08,  avg # of iterations = 20.0

     total cpu time spent up to now is       10.4 secs

     total energy              =    -501.40918063 Ry
     estimated scf accuracy    <       0.00449290 Ry

     iteration # 42     ecut=    30.00 Ry     beta= 0.50
     Davidson diagonalization with overlap
     ethr =  4.88E-08,  avg # of iterations = 16.0

     total cpu time spent up to now is       10.5 secs

     total energy              =    -501.40910608 Ry
     estimated scf accuracy    <       0.00256451 Ry

     iteration # 43     ecut=    30.00 Ry     beta= 0.50
     Davidson diagonalization with overlap
     c_bands:  1 eigenvalues not converged
     ethr =  4.88E-08,  avg # of iterations = 20.0

     total cpu time spent up to now is       10.7 secs

     total energy              =    -501.40906543 Ry
     estimated scf accuracy    <       0.00192510 Ry

     iteration # 44     ecut=    30.00 Ry     beta= 0.50
     Davidson diagonalization with overlap
     c_bands:  1 eigenvalues not converged
     ethr =  4.88E-08,  avg # of iterations = 20.0

     total cpu time spent up to now is       10.9 secs

     total energy              =    -501.40898322 Ry
     estimated scf accuracy    <       0.00331966 Ry

     iteration # 45     ecut=    30.00 Ry     beta= 0.50
     Davidson diagonalization with overlap
     c_bands:  1 eigenvalues not converged
     ethr =  4.88E-08,  avg # of iterations = 20.0

     total cpu time spent up to now is       11.1 secs

     total energy              =    -501.40902911 Ry
     estimated scf accuracy    <       0.00601413 Ry

     iteration # 46     ecut=    30.00 Ry     beta= 0.50
     Davidson diagonalization with overlap
     c_bands:  1 eigenvalues not converged
     ethr =  4.88E-08,  avg # of iterations = 20.0

     total cpu time spent up to now is       11.3 secs

     total energy              =    -501.40844298 Ry
     estimated scf accuracy    <       0.02244778 Ry

     iteration # 47     ecut=    30.00 Ry     beta= 0.50
     Davidson diagonalization with overlap
     c_bands:  1 eigenvalues not converged
     ethr =  4.88E-08,  avg # of iterations = 20.0

     total cpu time spent up to now is       11.5 secs

     total energy              =    -501.40912902 Ry
     estimated scf accuracy    <       0.00252338 Ry

     iteration # 48     ecut=    30.00 Ry     beta= 0.50
     Davidson diagonalization with overlap
     ethr =  4.88E-08,  avg # of iterations = 14.0

     total cpu time spent up to now is       11.6 secs

     total energy              =    -501.40912966 Ry
     estimated scf accuracy    <       0.00227639 Ry

     iteration # 49     ecut=    30.00 Ry     beta= 0.50
     Davidson diagonalization with overlap
     c_bands:  1 eigenvalues not converged
     ethr =  4.88E-08,  avg # of iterations = 20.0

     total cpu time spent up to now is       11.7 secs

     total energy              =    -501.40910338 Ry
     estimated scf accuracy    <       0.00218970 Ry

     iteration # 50     ecut=    30.00 Ry     beta= 0.50
     Davidson diagonalization with overlap
     c_bands:  1 eigenvalues not converged
     ethr =  4.88E-08,  avg # of iterations = 20.0

     total cpu time spent up to now is       11.9 secs

     total energy              =    -501.40910177 Ry
     estimated scf accuracy    <       0.00169935 Ry

     iteration # 51     ecut=    30.00 Ry     beta= 0.50
     Davidson diagonalization with overlap
     c_bands:  1 eigenvalues not converged
     ethr =  4.88E-08,  avg # of iterations = 20.0

     total cpu time spent up to now is       12.1 secs

     total energy              =    -501.40909871 Ry
     estimated scf accuracy    <       0.00172242 Ry

     iteration # 52     ecut=    30.00 Ry     beta= 0.50
     Davidson diagonalization with overlap
     c_bands:  1 eigenvalues not converged
     ethr =  4.88E-08,  avg # of iterations = 20.0

     total cpu time spent up to now is       12.3 secs

     total energy              =    -501.40896319 Ry
     estimated scf accuracy    <       0.01506483 Ry

     iteration # 53     ecut=    30.00 Ry     beta= 0.50
     Davidson diagonalization with overlap
     c_bands:  1 eigenvalues not converged
     ethr =  4.88E-08,  avg # of iterations = 20.0

     total cpu time spent up to now is       12.4 secs

     total energy              =    -501.40907680 Ry
     estimated scf accuracy    <       0.00947445 Ry

     iteration # 54     ecut=    30.00 Ry     beta= 0.50
     Davidson diagonalization with overlap
     c_bands:  1 eigenvalues not converged
     ethr =  4.88E-08,  avg # of iterations = 20.0

     total cpu time spent up to now is       12.6 secs

     total energy              =    -501.40907926 Ry
     estimated scf accuracy    <       0.00772251 Ry

     iteration # 55     ecut=    30.00 Ry     beta= 0.50
     Davidson diagonalization with overlap
     ethr =  4.88E-08,  avg # of iterations = 19.0

     total cpu time spent up to now is       12.8 secs

     total energy              =    -501.40883512 Ry
     estimated scf accuracy    <       0.00779841 Ry

     iteration # 56     ecut=    30.00 Ry     beta= 0.50
     Davidson diagonalization with overlap
     c_bands:  1 eigenvalues not converged
     ethr =  4.88E-08,  avg # of iterations = 20.0

     total cpu time spent up to now is       12.9 secs

     total energy              =    -501.40890661 Ry
     estimated scf accuracy    <       0.00256834 Ry

     iteration # 57     ecut=    30.00 Ry     beta= 0.50
     Davidson diagonalization with overlap
     c_bands:  1 eigenvalues not converged
     ethr =  4.88E-08,  avg # of iterations = 20.0

     total cpu time spent up to now is       13.1 secs

     total energy              =    -501.40895661 Ry
     estimated scf accuracy    <       0.00148043 Ry

     iteration # 58     ecut=    30.00 Ry     beta= 0.50
     Davidson diagonalization with overlap
     c_bands:  1 eigenvalues not converged
     ethr =  4.88E-08,  avg # of iterations = 20.0

     total cpu time spent up to now is       13.3 secs

     total energy              =    -501.40880810 Ry
     estimated scf accuracy    <       0.00384849 Ry

     iteration # 59     ecut=    30.00 Ry     beta= 0.50
     Davidson diagonalization with overlap
     c_bands:  1 eigenvalues not converged
     ethr =  4.88E-08,  avg # of iterations = 20.0

     total cpu time spent up to now is       13.5 secs

     total energy              =    -501.40870004 Ry
     estimated scf accuracy    <       0.00172919 Ry

     iteration # 60     ecut=    30.00 Ry     beta= 0.50
     Davidson diagonalization with overlap
     c_bands:  1 eigenvalues not converged
     ethr =  4.88E-08,  avg # of iterations = 20.0

     total cpu time spent up to now is       13.7 secs

     total energy              =    -501.40844427 Ry
     estimated scf accuracy    <       0.00999214 Ry

     iteration # 61     ecut=    30.00 Ry     beta= 0.50
     Davidson diagonalization with overlap
     c_bands:  1 eigenvalues not converged
     ethr =  4.88E-08,  avg # of iterations = 20.0

     total cpu time spent up to now is       13.8 secs

     total energy              =    -501.40910847 Ry
     estimated scf accuracy    <       0.00178369 Ry

     iteration # 62     ecut=    30.00 Ry     beta= 0.50
     Davidson diagonalization with overlap
     c_bands:  1 eigenvalues not converged
     ethr =  4.88E-08,  avg # of iterations = 20.0

     total cpu time spent up to now is       14.0 secs

     total energy              =    -501.40918066 Ry
     estimated scf accuracy    <       0.00412742 Ry

     iteration # 63     ecut=    30.00 Ry     beta= 0.50
     Davidson diagonalization with overlap
     c_bands:  1 eigenvalues not converged
     ethr =  4.88E-08,  avg # of iterations = 20.0

     total cpu time spent up to now is       14.2 secs

     total energy              =    -501.40922991 Ry
     estimated scf accuracy    <       0.00416418 Ry

     iteration # 64     ecut=    30.00 Ry     beta= 0.50
     Davidson diagonalization with overlap
     c_bands:  1 eigenvalues not converged
     ethr =  4.88E-08,  avg # of iterations = 20.0

     total cpu time spent up to now is       14.3 secs

     total energy              =    -501.40924605 Ry
     estimated scf accuracy    <       0.00453860 Ry

     iteration # 65     ecut=    30.00 Ry     beta= 0.50
     Davidson diagonalization with overlap
     c_bands:  1 eigenvalues not converged
     ethr =  4.88E-08,  avg # of iterations = 20.0

     total cpu time spent up to now is       14.5 secs

     total energy              =    -501.40925087 Ry
     estimated scf accuracy    <       0.00465545 Ry

     iteration # 66     ecut=    30.00 Ry     beta= 0.50
     Davidson diagonalization with overlap
     c_bands:  1 eigenvalues not converged
     ethr =  4.88E-08,  avg # of iterations = 20.0

     total cpu time spent up to now is       14.6 secs

     total energy              =    -501.40927215 Ry
     estimated scf accuracy    <       0.00590442 Ry

     iteration # 67     ecut=    30.00 Ry     beta= 0.50
     Davidson diagonalization with overlap
     c_bands:  1 eigenvalues not converged
     ethr =  4.88E-08,  avg # of iterations = 20.0

     total cpu time spent up to now is       14.8 secs

     total energy              =    -501.40944279 Ry
     estimated scf accuracy    <       0.00879701 Ry

     iteration # 68     ecut=    30.00 Ry     beta= 0.50
     Davidson diagonalization with overlap
     c_bands:  1 eigenvalues not converged
     ethr =  4.88E-08,  avg # of iterations = 20.0

     total cpu time spent up to now is       15.0 secs

     total energy              =    -501.40987541 Ry
     estimated scf accuracy    <       0.06476938 Ry

     iteration # 69     ecut=    30.00 Ry     beta= 0.50
     Davidson diagonalization with overlap
     c_bands:  2 eigenvalues not converged
     ethr =  4.88E-08,  avg # of iterations = 20.0

     total cpu time spent up to now is       15.2 secs

     total energy              =    -501.40953880 Ry
     estimated scf accuracy    <       0.05582646 Ry

     iteration # 70     ecut=    30.00 Ry     beta= 0.50
     Davidson diagonalization with overlap
     c_bands:  2 eigenvalues not converged
     ethr =  4.88E-08,  avg # of iterations = 20.0

     total cpu time spent up to now is       15.4 secs

     total energy              =    -501.40912590 Ry
     estimated scf accuracy    <       0.04666948 Ry

     iteration # 71     ecut=    30.00 Ry     beta= 0.50
     Davidson diagonalization with overlap
     c_bands:  1 eigenvalues not converged
     ethr =  4.88E-08,  avg # of iterations = 20.0

     total cpu time spent up to now is       15.6 secs

     total energy              =    -501.40816661 Ry
     estimated scf accuracy    <       0.05383600 Ry

     iteration # 72     ecut=    30.00 Ry     beta= 0.50
     Davidson diagonalization with overlap
     c_bands:  1 eigenvalues not converged
     ethr =  4.88E-08,  avg # of iterations = 20.0

     total cpu time spent up to now is       15.8 secs

     total energy              =    -501.40894801 Ry
     estimated scf accuracy    <       0.00319469 Ry

     iteration # 73     ecut=    30.00 Ry     beta= 0.50
     Davidson diagonalization with overlap
     c_bands:  1 eigenvalues not converged
     ethr =  4.88E-08,  avg # of iterations = 20.0

     total cpu time spent up to now is       16.0 secs

     total energy              =    -501.40899261 Ry
     estimated scf accuracy    <       0.00706046 Ry

     iteration # 74     ecut=    30.00 Ry     beta= 0.50
     Davidson diagonalization with overlap
     c_bands:  1 eigenvalues not converged
     ethr =  4.88E-08,  avg # of iterations = 20.0

     total cpu time spent up to now is       16.1 secs

     total energy              =    -501.40912040 Ry
     estimated scf accuracy    <       0.00397665 Ry

     iteration # 75     ecut=    30.00 Ry     beta= 0.50
     Davidson diagonalization with overlap
     c_bands:  1 eigenvalues not converged
     ethr =  4.88E-08,  avg # of iterations = 20.0

     total cpu time spent up to now is       16.3 secs

     total energy              =    -501.40909469 Ry
     estimated scf accuracy    <       0.00447428 Ry

     iteration # 76     ecut=    30.00 Ry     beta= 0.50
     Davidson diagonalization with overlap
     ethr =  4.88E-08,  avg # of iterations = 18.0

     total cpu time spent up to now is       16.5 secs

     total energy              =    -501.40911535 Ry
     estimated scf accuracy    <       0.00258806 Ry

     iteration # 77     ecut=    30.00 Ry     beta= 0.50
     Davidson diagonalization with overlap
     c_bands:  1 eigenvalues not converged
     ethr =  4.88E-08,  avg # of iterations = 20.0

     total cpu time spent up to now is       16.7 secs

     total energy              =    -501.40903491 Ry
     estimated scf accuracy    <       0.00316629 Ry

     iteration # 78     ecut=    30.00 Ry     beta= 0.50
     Davidson diagonalization with overlap
     c_bands:  1 eigenvalues not converged
     ethr =  4.88E-08,  avg # of iterations = 20.0

     total cpu time spent up to now is       16.8 secs

     total energy              =    -501.40916424 Ry
     estimated scf accuracy    <       0.00146964 Ry

     iteration # 79     ecut=    30.00 Ry     beta= 0.50
     Davidson diagonalization with overlap
     ethr =  4.88E-08,  avg # of iterations = 12.0

     total cpu time spent up to now is       17.0 secs

     total energy              =    -501.40916310 Ry
     estimated scf accuracy    <       0.00149530 Ry

     iteration # 80     ecut=    30.00 Ry     beta= 0.50
     Davidson diagonalization with overlap
     ethr =  4.88E-08,  avg # of iterations =  8.0

     total cpu time spent up to now is       17.1 secs

     total energy              =    -501.40863726 Ry
     estimated scf accuracy    <       0.00150103 Ry

     iteration # 81     ecut=    30.00 Ry     beta= 0.50
     Davidson diagonalization with overlap
     c_bands:  2 eigenvalues not converged
     ethr =  4.88E-08,  avg # of iterations = 20.0

     total cpu time spent up to now is       17.3 secs

     total energy              =    -501.40813443 Ry
     estimated scf accuracy    <       0.00977527 Ry

     iteration # 82     ecut=    30.00 Ry     beta= 0.50
     Davidson diagonalization with overlap
     c_bands:  1 eigenvalues not converged
     ethr =  4.88E-08,  avg # of iterations = 20.0

     total cpu time spent up to now is       17.5 secs

     total energy              =    -501.40884270 Ry
     estimated scf accuracy    <       0.00158390 Ry

     iteration # 83     ecut=    30.00 Ry     beta= 0.50
     Davidson diagonalization with overlap
     c_bands:  1 eigenvalues not converged
     ethr =  4.88E-08,  avg # of iterations = 20.0

     total cpu time spent up to now is       17.6 secs

     total energy              =    -501.40891790 Ry
     estimated scf accuracy    <       0.00179940 Ry

     iteration # 84     ecut=    30.00 Ry     beta= 0.50
     Davidson diagonalization with overlap
     ethr =  4.88E-08,  avg # of iterations = 15.0

     total cpu time spent up to now is       17.8 secs

     total energy              =    -501.40896054 Ry
     estimated scf accuracy    <       0.00121076 Ry

     iteration # 85     ecut=    30.00 Ry     beta= 0.50
     Davidson diagonalization with overlap
     c_bands:  1 eigenvalues not converged
     ethr =  4.88E-08,  avg # of iterations = 20.0

     total cpu time spent up to now is       18.0 secs

     total energy              =    -501.40899177 Ry
     estimated scf accuracy    <       0.00108642 Ry

     iteration # 86     ecut=    30.00 Ry     beta= 0.50
     Davidson diagonalization with overlap
     ethr =  4.88E-08,  avg # of iterations =  8.0

     total cpu time spent up to now is       18.1 secs

     total energy              =    -501.40899009 Ry
     estimated scf accuracy    <       0.00089561 Ry

     iteration # 87     ecut=    30.00 Ry     beta= 0.50
     Davidson diagonalization with overlap
     ethr =  4.88E-08,  avg # of iterations =  9.0

     total cpu time spent up to now is       18.2 secs

     total energy              =    -501.40897543 Ry
     estimated scf accuracy    <       0.00119105 Ry

     iteration # 88     ecut=    30.00 Ry     beta= 0.50
     Davidson diagonalization with overlap
     ethr =  4.88E-08,  avg # of iterations = 10.0

     total cpu time spent up to now is       18.3 secs

     total energy              =    -501.40895322 Ry
     estimated scf accuracy    <       0.00088868 Ry

     iteration # 89     ecut=    30.00 Ry     beta= 0.50
     Davidson diagonalization with overlap
     c_bands:  1 eigenvalues not converged
     ethr =  4.88E-08,  avg # of iterations = 20.0

     total cpu time spent up to now is       18.5 secs

     total energy              =    -501.40891043 Ry
     estimated scf accuracy    <       0.00049320 Ry

     iteration # 90     ecut=    30.00 Ry     beta= 0.50
     Davidson diagonalization with overlap
     c_bands:  1 eigenvalues not converged
     ethr =  4.88E-08,  avg # of iterations = 20.0

     total cpu time spent up to now is       18.7 secs

     total energy              =    -501.40963018 Ry
     estimated scf accuracy    <       0.01645050 Ry

     iteration # 91     ecut=    30.00 Ry     beta= 0.50
     Davidson diagonalization with overlap
     c_bands:  1 eigenvalues not converged
     ethr =  4.88E-08,  avg # of iterations = 20.0

     total cpu time spent up to now is       18.8 secs

     total energy              =    -501.40945253 Ry
     estimated scf accuracy    <       0.01105612 Ry

     iteration # 92     ecut=    30.00 Ry     beta= 0.50
     Davidson diagonalization with overlap
     c_bands:  1 eigenvalues not converged
     ethr =  4.88E-08,  avg # of iterations = 20.0

     total cpu time spent up to now is       19.0 secs

     total energy              =    -501.40953560 Ry
     estimated scf accuracy    <       0.01211078 Ry

     iteration # 93     ecut=    30.00 Ry     beta= 0.50
     Davidson diagonalization with overlap
     c_bands:  1 eigenvalues not converged
     ethr =  4.88E-08,  avg # of iterations = 20.0

     total cpu time spent up to now is       19.2 secs

     total energy              =    -501.40950599 Ry
     estimated scf accuracy    <       0.01272238 Ry

     iteration # 94     ecut=    30.00 Ry     beta= 0.50
     Davidson diagonalization with overlap
     c_bands:  1 eigenvalues not converged
     ethr =  4.88E-08,  avg # of iterations = 20.0

     total cpu time spent up to now is       19.3 secs

     total energy              =    -501.40956218 Ry
     estimated scf accuracy    <       0.01437537 Ry

     iteration # 95     ecut=    30.00 Ry     beta= 0.50
     Davidson diagonalization with overlap
     c_bands:  1 eigenvalues not converged
     ethr =  4.88E-08,  avg # of iterations = 20.0

     total cpu time spent up to now is       19.5 secs

     total energy              =    -501.40954127 Ry
     estimated scf accuracy    <       0.01601616 Ry

     iteration # 96     ecut=    30.00 Ry     beta= 0.50
     Davidson diagonalization with overlap
     ethr =  4.88E-08,  avg # of iterations = 19.0

     total cpu time spent up to now is       19.6 secs

     total energy              =    -501.40960664 Ry
     estimated scf accuracy    <       0.01585164 Ry

     iteration # 97     ecut=    30.00 Ry     beta= 0.50
     Davidson diagonalization with overlap
     c_bands:  1 eigenvalues not converged
     ethr =  4.88E-08,  avg # of iterations = 20.0

     total cpu time spent up to now is       19.8 secs

     total energy              =    -501.40954980 Ry
     estimated scf accuracy    <       0.01792168 Ry

     iteration # 98     ecut=    30.00 Ry     beta= 0.50
     Davidson diagonalization with overlap
     c_bands:  1 eigenvalues not converged
     ethr =  4.88E-08,  avg # of iterations = 20.0

     total cpu time spent up to now is       20.0 secs

     total energy              =    -501.40629641 Ry
     estimated scf accuracy    <       0.01938268 Ry

     iteration # 99     ecut=    30.00 Ry     beta= 0.50
     Davidson diagonalization with overlap
     c_bands:  2 eigenvalues not converged
     ethr =  4.88E-08,  avg # of iterations = 20.0

     total cpu time spent up to now is       20.2 secs

     total energy              =    -501.39742541 Ry
     estimated scf accuracy    <       0.11827605 Ry

     iteration #100     ecut=    30.00 Ry     beta= 0.50
     Davidson diagonalization with overlap
     c_bands:  4 eigenvalues not converged
     ethr =  4.88E-08,  avg # of iterations = 20.0

     total cpu time spent up to now is       20.4 secs

     total energy              =    -501.40327435 Ry
     estimated scf accuracy    <       0.11402089 Ry

     End of self-consistent calculation

     convergence NOT achieved after 100 iterations: stopping

     Writing config to output data dir ./pwscf.save/
     Message from routine punch:
     wavefunctions written to file
 
     init_run     :      1.10s CPU      4.19s WALL (       1 calls)
     electrons    :     15.40s CPU     16.19s WALL (       1 calls)

     Called by init_run:
     wfcinit      :      0.59s CPU      3.53s WALL (       1 calls)
                                        3.53s GPU  (       1 calls)
     potinit      :      0.04s CPU      0.12s WALL (       1 calls)
     hinit0       :      0.45s CPU      0.48s WALL (       1 calls)

     Called by electrons:
     c_bands      :     12.22s CPU     12.68s WALL (     101 calls)
     sum_band     :      1.43s CPU      1.65s WALL (     101 calls)
     v_of_rho     :      0.59s CPU      0.70s WALL (     101 calls)
     mix_rho      :      0.92s CPU      0.96s WALL (     101 calls)

     Called by c_bands:
     init_us_2    :      0.25s CPU      0.27s WALL (     203 calls)
     init_us_2:gp :      0.25s CPU      0.27s WALL (     203 calls)
     regterg      :     11.55s CPU     11.98s WALL (     101 calls)

     Called by *egterg:
     rdiaghg      :      6.16s CPU      6.91s WALL (    1867 calls)
                                        6.62s GPU  (    1867 calls)
     h_psi        :      4.39s CPU      6.95s WALL (    1869 calls)
                                        6.93s GPU  (    1869 calls)
     g_psi        :      0.01s CPU      0.04s WALL (    1767 calls)
                                        0.03s GPU  (    1767 calls)

     Called by h_psi:
     h_psi:calbec :      1.05s CPU      3.38s WALL (    1869 calls)
                                        3.37s GPU  (    1869 calls)
     vloc_psi     :      2.39s CPU      2.59s WALL (    1869 calls)
                                        2.55s GPU  (    1869 calls)
     add_vuspsi   :      0.74s CPU      0.90s WALL (    1869 calls)
                                        0.89s GPU  (    1869 calls)

     General routines
     calbec       :      1.03s CPU      3.34s WALL (    1869 calls)
     fft          :      0.95s CPU      1.10s WALL (     809 calls)
                                        0.17s GPU  (     505 calls)
     ffts         :      0.18s CPU      0.19s WALL (     101 calls)
     fftw         :      2.57s CPU      3.19s WALL (   12162 calls)
                                        2.77s GPU  (   12162 calls)
     davcio       :      0.00s CPU      0.00s WALL (      19 calls)
 
     Parallel routines
 
     PWSCF        :     16.54s CPU     20.47s WALL

 
   This run was terminated on:  15:21:51   9May2023            

=------------------------------------------------------------------------------=
   JOB DONE.
=------------------------------------------------------------------------------=
