An instance of this daemon is already running

     Program PWSCF v.7.1 starts on  9May2023 at 15:11:14 

     This program is part of the open-source Quantum ESPRESSO suite
     for quantum simulation of materials; please cite
         "P. Giannozzi et al., J. Phys.:Condens. Matter 21 395502 (2009);
         "P. Giannozzi et al., J. Phys.:Condens. Matter 29 465901 (2017);
         "P. Giannozzi et al., J. Chem. Phys. 152 154105 (2020);
          URL http://www.quantum-espresso.org", 
     in publications or presentations arising from this work. More details at
     http://www.quantum-espresso.org/quote

     Parallel version (MPI & OpenMP), running on       4 processor cores
     Number of MPI processes:                 4
     Threads/MPI process:                     1

     MPI processes distributed on     1 nodes
     64904 MiB available memory on the printing compute node when the environment starts
 
     Reading input from pw-si-31.in
Warning: card &CELL ignored
Warning: card / ignored

     Current dimensions of program PWSCF are:
     Max number of different atomic species (ntypx) = 10
     Max number of k-points (npk) =  40000
     Max angular momentum in pseudopotentials (lmaxx) =  4

     IMPORTANT: XC functional enforced from input :
     Exchange-correlation= PBE
                           (   1   4   3   4   0   0   0)
     Any further DFT definition will be discarded
     Please, verify this is what you really want


     gamma-point specific algorithms are used
 
     K-points division:     npool     =       2
     R & G space division:  proc/nbgrp/npool/nimage =       2
     Subspace diagonalization in iterative solution of the eigenvalue problem:
     a serial algorithm will be used

     Message from routine divide_et_impera:
     suboptimal parallelization: some nodes have no k-points
 
     Parallelization info
     --------------------
     sticks:   dense  smooth     PW     G-vecs:    dense   smooth      PW
     Min        1941    1941    516                91047    91047   12416
     Max        1944    1944    517                91052    91052   12421
     Sum        3885    3885   1033               182099   182099   24837
 
     Using Slab Decomposition
 


     bravais-lattice index     =            0
     lattice parameter (alat)  =      20.1664  a.u.
     unit-cell volume          =    8201.4056 (a.u.)^3
     number of atoms/cell      =           64
     number of atomic types    =            1
     number of electrons       =       256.00
     number of Kohn-Sham states=          128
     kinetic-energy cutoff     =      30.0000  Ry
     charge density cutoff     =     120.0000  Ry
     scf convergence threshold =      1.0E-06
     mixing beta               =       0.5000
     number of iterations used =            8  plain     mixing
     Exchange-correlation= PBE
                           (   1   4   3   4   0   0   0)

     GPU acceleration is ACTIVE.
     GPU-aware MPI enabled

     Message from routine print_cuda_info:
     High GPU oversubscription detected. Are you sure this is what you want?

     celldm(1)=  20.166449  celldm(2)=   0.000000  celldm(3)=   0.000000
     celldm(4)=   0.000000  celldm(5)=   0.000000  celldm(6)=   0.000000

     crystal axes: (cart. coord. in units of alat)
               a(1) = (   1.000000   0.000000   0.000000 )  
               a(2) = (   0.000000   1.000000   0.000000 )  
               a(3) = (   0.000000   0.000000   1.000000 )  

     reciprocal axes: (cart. coord. in units 2 pi/alat)
               b(1) = (  1.000000  0.000000  0.000000 )  
               b(2) = (  0.000000  1.000000  0.000000 )  
               b(3) = (  0.000000  0.000000  1.000000 )  


     PseudoPot. # 1 for Si read from file:
     /home/ppiaggi/pseudos/Si_ONCV_PBE_sr.upf
     MD5 check sum: 8553c464762ac42b85b1eed164b4d029
     Pseudo is Norm-conserving, Zval =  4.0
     Generated using ONCVPSP code by D. R. Hamann
     Using radial grid of 1510 points,  4 beta functions with: 
                l(1) =   0
                l(2) =   0
                l(3) =   1
                l(4) =   1

     atomic species   valence    mass     pseudopotential
        Si             4.00    28.08500     Si( 1.00)

     No symmetry found



   Cartesian axes

     site n.     atom                  positions (alat units)
         1           Si  tau(   1) = (   0.8214350   0.8386170   0.6119950  )
         2           Si  tau(   2) = (   0.9991410   0.8100400   0.3371700  )
         3           Si  tau(   3) = (   0.8683420   0.1852160   0.9481510  )
         4           Si  tau(   4) = (   0.5208180   0.9733960   0.4517470  )
         5           Si  tau(   5) = (   0.5204660   0.5543460   0.3096700  )
         6           Si  tau(   6) = (   0.7143130   0.3838120   0.0281515  )
         7           Si  tau(   7) = (   0.3010090   0.0676475   0.9043130  )
         8           Si  tau(   8) = (   0.5415190   0.2368890   0.7573970  )
         9           Si  tau(   9) = (   0.6408360   0.0677823   0.6115260  )
        10           Si  tau(  10) = (   0.0905445   0.5608280   0.7997290  )
        11           Si  tau(  11) = (   0.3127730   0.8779390   0.4119630  )
        12           Si  tau(  12) = (   0.3703810   0.3226750   0.0938761  )
        13           Si  tau(  13) = (   0.2408030   0.6491980   0.3959250  )
        14           Si  tau(  14) = (   0.4364350   0.7838620   0.2323140  )
        15           Si  tau(  15) = (   0.7010630   0.6733860   0.8582600  )
        16           Si  tau(  16) = (   0.2632080   0.4562010   0.2462300  )
        17           Si  tau(  17) = (   0.3121450   0.2584010   0.7658250  )
        18           Si  tau(  18) = (   0.8301010   0.7263360   0.2185040  )
        19           Si  tau(  19) = (   0.8732920   0.5819220   0.7160950  )
        20           Si  tau(  20) = (   0.1166330   0.0928152   0.6215120  )
        21           Si  tau(  21) = (   0.0915550   0.4943980   0.0166003  )
        22           Si  tau(  22) = (   0.8756460   0.8542560   0.9624820  )
        23           Si  tau(  23) = (   0.6772840   0.9368600   0.8023310  )
        24           Si  tau(  24) = (   0.7566780   0.5103750   0.2727900  )
        25           Si  tau(  25) = (   0.6878760   0.7418350   0.4643930  )
        26           Si  tau(  26) = (   0.0940287   0.3341770   0.6418370  )
        27           Si  tau(  27) = (   0.9580640   0.3519800   0.3147870  )
        28           Si  tau(  28) = (   0.8637480   0.2998760   0.7219550  )
        29           Si  tau(  29) = (   0.3244450   0.4206580   0.9133580  )
        30           Si  tau(  30) = (   0.5486070   0.2159490   0.9791470  )
        31           Si  tau(  31) = (   0.7730440   0.5133070   0.5093270  )
        32           Si  tau(  32) = (   0.7766080   0.2275950   0.2322030  )
        33           Si  tau(  33) = (   0.0690753   0.5590230   0.5164980  )
        34           Si  tau(  34) = (   0.7677210   0.0205980   0.0786272  )
        35           Si  tau(  35) = (   0.5415320   0.5077340   0.0869516  )
        36           Si  tau(  36) = (   0.2897390   0.5765780   0.6811170  )
        37           Si  tau(  37) = (   0.1339130   0.0274852   0.3789450  )
        38           Si  tau(  38) = (   0.1179670   0.6642420   0.1858880  )
        39           Si  tau(  39) = (   0.3338460   0.7840440   0.6255620  )
        40           Si  tau(  40) = (   0.8617140   0.9942830   0.3088110  )
        41           Si  tau(  41) = (   0.5598800   0.5275910   0.6268310  )
        42           Si  tau(  42) = (   0.6748050   0.4282930   0.8033360  )
        43           Si  tau(  43) = (   0.9514820   0.0310280   0.7895480  )
        44           Si  tau(  44) = (   0.1749910   0.8230750   0.0397680  )
        45           Si  tau(  45) = (   0.0392595   0.9663950   0.1280760  )
        46           Si  tau(  46) = (   0.8772950   0.0456446   0.5239570  )
        47           Si  tau(  47) = (   0.0607820   0.7861330   0.5583340  )
        48           Si  tau(  48) = (   0.8024320   0.2550270   0.5162500  )
        49           Si  tau(  49) = (   0.1999040   0.1343670   0.0987153  )
        50           Si  tau(  50) = (   0.0204182   0.2885360   0.1004000  )
        51           Si  tau(  51) = (   0.5282950   0.1480060   0.2401610  )
        52           Si  tau(  52) = (   0.2093420   0.9443180   0.7379230  )
        53           Si  tau(  53) = (   0.3910140   0.8109690   0.0356266  )
        54           Si  tau(  54) = (   0.1566270   0.3341630   0.4255990  )
        55           Si  tau(  55) = (   0.4023270   0.1980170   0.5092620  )
        56           Si  tau(  56) = (   0.6314190   0.8861350   0.2376210  )
        57           Si  tau(  57) = (   0.2943580   0.1675680   0.3146470  )
        58           Si  tau(  58) = (   0.5494660   0.7766670   0.6813890  )
        59           Si  tau(  59) = (   0.5888340   0.3096840   0.4151880  )
        60           Si  tau(  60) = (   0.3767530   0.4516260   0.4845930  )
        61           Si  tau(  61) = (   0.5332280   0.9966710   0.9740150  )
        62           Si  tau(  62) = (   0.0740570   0.7847750   0.8336640  )
        63           Si  tau(  63) = (   0.8749470   0.5837240   0.0264953  )
        64           Si  tau(  64) = (   0.4419650   0.6439440   0.9025320  )

     number of k points=     1
                       cart. coord. in units 2pi/alat
        k(    1) = (   0.0000000   0.0000000   0.0000000), wk =   2.0000000

     Dense  grid:    91050 G-vectors     FFT dimensions: (  72,  72,  72)

     Estimated max dynamical RAM per process >     134.00 MB

     Estimated total dynamical RAM >     513.76 MB

     Initial potential from superposition of free atoms

     starting charge     255.9608, renormalised to     256.0000
     Starting wfcs are  256 randomized atomic wfcs

     total cpu time spent up to now is        4.3 secs

     Self-consistent Calculation

     iteration #  1     ecut=    30.00 Ry     beta= 0.50
     Davidson diagonalization with overlap
     ethr =  1.00E-02,  avg # of iterations =  2.0

     Threshold (ethr) on eigenvalues was too large:
     Diagonalizing with lowered threshold

     Davidson diagonalization with overlap
     ethr =  3.34E-04,  avg # of iterations =  8.0

     total cpu time spent up to now is        4.5 secs

     total energy              =    -501.27611988 Ry
     estimated scf accuracy    <       1.05664188 Ry

     iteration #  2     ecut=    30.00 Ry     beta= 0.50
     Davidson diagonalization with overlap
     ethr =  4.13E-04,  avg # of iterations =  6.0

     total cpu time spent up to now is        4.6 secs

     total energy              =    -501.14016524 Ry
     estimated scf accuracy    <       1.44484746 Ry

     iteration #  3     ecut=    30.00 Ry     beta= 0.50
     Davidson diagonalization with overlap
     ethr =  4.13E-04,  avg # of iterations =  6.0

     total cpu time spent up to now is        4.7 secs

     total energy              =    -501.29083891 Ry
     estimated scf accuracy    <       1.52425964 Ry

     iteration #  4     ecut=    30.00 Ry     beta= 0.50
     Davidson diagonalization with overlap
     ethr =  4.13E-04,  avg # of iterations =  5.0

     total cpu time spent up to now is        4.8 secs

     total energy              =    -501.40132469 Ry
     estimated scf accuracy    <       0.26135363 Ry

     iteration #  5     ecut=    30.00 Ry     beta= 0.50
     Davidson diagonalization with overlap
     ethr =  1.02E-04,  avg # of iterations = 13.0

     total cpu time spent up to now is        4.9 secs

     total energy              =    -501.43149115 Ry
     estimated scf accuracy    <       0.14554896 Ry

     iteration #  6     ecut=    30.00 Ry     beta= 0.50
     Davidson diagonalization with overlap
     ethr =  5.69E-05,  avg # of iterations = 20.0

     total cpu time spent up to now is        5.1 secs

     total energy              =    -501.44218320 Ry
     estimated scf accuracy    <       0.16214914 Ry

     iteration #  7     ecut=    30.00 Ry     beta= 0.50
     Davidson diagonalization with overlap
     ethr =  5.69E-05,  avg # of iterations =  3.0

     total cpu time spent up to now is        5.2 secs

     total energy              =    -501.43950164 Ry
     estimated scf accuracy    <       0.06756253 Ry

     iteration #  8     ecut=    30.00 Ry     beta= 0.50
     Davidson diagonalization with overlap
     c_bands:  2 eigenvalues not converged
     ethr =  2.64E-05,  avg # of iterations = 20.0

     total cpu time spent up to now is        5.3 secs

     total energy              =    -501.45203484 Ry
     estimated scf accuracy    <       0.03644061 Ry

     iteration #  9     ecut=    30.00 Ry     beta= 0.50
     Davidson diagonalization with overlap
     ethr =  1.42E-05,  avg # of iterations = 11.0

     total cpu time spent up to now is        5.4 secs

     total energy              =    -501.45245086 Ry
     estimated scf accuracy    <       0.02350604 Ry

     iteration # 10     ecut=    30.00 Ry     beta= 0.50
     Davidson diagonalization with overlap
     ethr =  9.18E-06,  avg # of iterations =  3.0

     total cpu time spent up to now is        5.5 secs

     total energy              =    -501.45143107 Ry
     estimated scf accuracy    <       0.01806301 Ry

     iteration # 11     ecut=    30.00 Ry     beta= 0.50
     Davidson diagonalization with overlap
     c_bands:  1 eigenvalues not converged
     ethr =  7.06E-06,  avg # of iterations = 20.0

     total cpu time spent up to now is        5.7 secs

     total energy              =    -501.45389446 Ry
     estimated scf accuracy    <       0.00858157 Ry

     iteration # 12     ecut=    30.00 Ry     beta= 0.50
     Davidson diagonalization with overlap
     ethr =  3.35E-06,  avg # of iterations =  2.0

     total cpu time spent up to now is        5.7 secs

     total energy              =    -501.45372512 Ry
     estimated scf accuracy    <       0.00845104 Ry

     iteration # 13     ecut=    30.00 Ry     beta= 0.50
     Davidson diagonalization with overlap
     ethr =  3.30E-06,  avg # of iterations =  2.0

     total cpu time spent up to now is        5.8 secs

     total energy              =    -501.45350780 Ry
     estimated scf accuracy    <       0.00794334 Ry

     iteration # 14     ecut=    30.00 Ry     beta= 0.50
     Davidson diagonalization with overlap
     ethr =  3.10E-06,  avg # of iterations =  2.0

     total cpu time spent up to now is        5.9 secs

     total energy              =    -501.45310356 Ry
     estimated scf accuracy    <       0.00666269 Ry

     iteration # 15     ecut=    30.00 Ry     beta= 0.50
     Davidson diagonalization with overlap
     ethr =  2.60E-06,  avg # of iterations =  2.0

     total cpu time spent up to now is        6.0 secs

     total energy              =    -501.45263425 Ry
     estimated scf accuracy    <       0.00454024 Ry

     iteration # 16     ecut=    30.00 Ry     beta= 0.50
     Davidson diagonalization with overlap
     c_bands:  2 eigenvalues not converged
     ethr =  1.77E-06,  avg # of iterations = 20.0

     total cpu time spent up to now is        6.1 secs

     total energy              =    -501.45375413 Ry
     estimated scf accuracy    <       0.00409749 Ry

     iteration # 17     ecut=    30.00 Ry     beta= 0.50
     Davidson diagonalization with overlap
     ethr =  1.60E-06,  avg # of iterations = 18.0

     total cpu time spent up to now is        6.2 secs

     total energy              =    -501.45367189 Ry
     estimated scf accuracy    <       0.00508377 Ry

     iteration # 18     ecut=    30.00 Ry     beta= 0.50
     Davidson diagonalization with overlap
     ethr =  1.60E-06,  avg # of iterations =  1.0

     total cpu time spent up to now is        6.3 secs

     total energy              =    -501.45343812 Ry
     estimated scf accuracy    <       0.00368111 Ry

     iteration # 19     ecut=    30.00 Ry     beta= 0.50
     Davidson diagonalization with overlap
     ethr =  1.44E-06,  avg # of iterations =  2.0

     total cpu time spent up to now is        6.4 secs

     total energy              =    -501.45315013 Ry
     estimated scf accuracy    <       0.00231578 Ry

     iteration # 20     ecut=    30.00 Ry     beta= 0.50
     Davidson diagonalization with overlap
     c_bands:  1 eigenvalues not converged
     ethr =  9.05E-07,  avg # of iterations = 20.0

     total cpu time spent up to now is        6.5 secs

     total energy              =    -501.45365761 Ry
     estimated scf accuracy    <       0.00547392 Ry

     iteration # 21     ecut=    30.00 Ry     beta= 0.50
     Davidson diagonalization with overlap
     ethr =  9.05E-07,  avg # of iterations =  8.0

     total cpu time spent up to now is        6.6 secs

     total energy              =    -501.45360873 Ry
     estimated scf accuracy    <       0.00462024 Ry

     iteration # 22     ecut=    30.00 Ry     beta= 0.50
     Davidson diagonalization with overlap
     ethr =  9.05E-07,  avg # of iterations =  1.0

     total cpu time spent up to now is        6.7 secs

     total energy              =    -501.45354607 Ry
     estimated scf accuracy    <       0.00408542 Ry

     iteration # 23     ecut=    30.00 Ry     beta= 0.50
     Davidson diagonalization with overlap
     ethr =  9.05E-07,  avg # of iterations =  1.0

     total cpu time spent up to now is        6.8 secs

     total energy              =    -501.45349622 Ry
     estimated scf accuracy    <       0.00361202 Ry

     iteration # 24     ecut=    30.00 Ry     beta= 0.50
     Davidson diagonalization with overlap
     ethr =  9.05E-07,  avg # of iterations =  2.0

     total cpu time spent up to now is        6.8 secs

     total energy              =    -501.45327046 Ry
     estimated scf accuracy    <       0.00310112 Ry

     iteration # 25     ecut=    30.00 Ry     beta= 0.50
     Davidson diagonalization with overlap
     c_bands:  1 eigenvalues not converged
     ethr =  9.05E-07,  avg # of iterations = 20.0

     total cpu time spent up to now is        7.0 secs

     total energy              =    -501.45366769 Ry
     estimated scf accuracy    <       0.00138217 Ry

     iteration # 26     ecut=    30.00 Ry     beta= 0.50
     Davidson diagonalization with overlap
     ethr =  5.40E-07,  avg # of iterations = 16.0

     total cpu time spent up to now is        7.1 secs

     total energy              =    -501.45362952 Ry
     estimated scf accuracy    <       0.00247188 Ry

     iteration # 27     ecut=    30.00 Ry     beta= 0.50
     Davidson diagonalization with overlap
     ethr =  5.40E-07,  avg # of iterations =  2.0

     total cpu time spent up to now is        7.2 secs

     total energy              =    -501.45347949 Ry
     estimated scf accuracy    <       0.00205032 Ry

     iteration # 28     ecut=    30.00 Ry     beta= 0.50
     Davidson diagonalization with overlap
     ethr =  5.40E-07,  avg # of iterations =  3.0

     total cpu time spent up to now is        7.3 secs

     total energy              =    -501.45344841 Ry
     estimated scf accuracy    <       0.00110807 Ry

     iteration # 29     ecut=    30.00 Ry     beta= 0.50
     Davidson diagonalization with overlap
     c_bands:  1 eigenvalues not converged
     ethr =  4.33E-07,  avg # of iterations = 20.0

     total cpu time spent up to now is        7.4 secs

     total energy              =    -501.45361220 Ry
     estimated scf accuracy    <       0.00117220 Ry

     iteration # 30     ecut=    30.00 Ry     beta= 0.50
     Davidson diagonalization with overlap
     ethr =  4.33E-07,  avg # of iterations =  2.0

     total cpu time spent up to now is        7.5 secs

     total energy              =    -501.45353118 Ry
     estimated scf accuracy    <       0.00109315 Ry

     iteration # 31     ecut=    30.00 Ry     beta= 0.50
     Davidson diagonalization with overlap
     c_bands:  1 eigenvalues not converged
     ethr =  4.27E-07,  avg # of iterations = 20.0

     total cpu time spent up to now is        7.6 secs

     total energy              =    -501.45359381 Ry
     estimated scf accuracy    <       0.00008635 Ry

     iteration # 32     ecut=    30.00 Ry     beta= 0.50
     Davidson diagonalization with overlap
     ethr =  3.37E-08,  avg # of iterations = 18.0

     total cpu time spent up to now is        7.8 secs

     total energy              =    -501.45360953 Ry
     estimated scf accuracy    <       0.00005427 Ry

     iteration # 33     ecut=    30.00 Ry     beta= 0.50
     Davidson diagonalization with overlap
     ethr =  2.12E-08,  avg # of iterations =  1.0

     total cpu time spent up to now is        7.8 secs

     total energy              =    -501.45359425 Ry
     estimated scf accuracy    <       0.00005046 Ry

     iteration # 34     ecut=    30.00 Ry     beta= 0.50
     Davidson diagonalization with overlap
     c_bands:  2 eigenvalues not converged
     ethr =  1.97E-08,  avg # of iterations = 20.0

     total cpu time spent up to now is        8.0 secs

     total energy              =    -501.45360947 Ry
     estimated scf accuracy    <       0.00306192 Ry

     iteration # 35     ecut=    30.00 Ry     beta= 0.50
     Davidson diagonalization with overlap
     c_bands:  2 eigenvalues not converged
     ethr =  1.97E-08,  avg # of iterations = 20.0

     total cpu time spent up to now is        8.2 secs

     total energy              =    -501.45361737 Ry
     estimated scf accuracy    <       0.00106718 Ry

     iteration # 36     ecut=    30.00 Ry     beta= 0.50
     Davidson diagonalization with overlap
     ethr =  1.97E-08,  avg # of iterations =  3.0

     total cpu time spent up to now is        8.3 secs

     total energy              =    -501.45358859 Ry
     estimated scf accuracy    <       0.00089505 Ry

     iteration # 37     ecut=    30.00 Ry     beta= 0.50
     Davidson diagonalization with overlap
     c_bands:  2 eigenvalues not converged
     ethr =  1.97E-08,  avg # of iterations = 20.0

     total cpu time spent up to now is        8.4 secs

     total energy              =    -501.45360818 Ry
     estimated scf accuracy    <       0.00009039 Ry

     iteration # 38     ecut=    30.00 Ry     beta= 0.50
     Davidson diagonalization with overlap
     ethr =  1.97E-08,  avg # of iterations = 11.0

     total cpu time spent up to now is        8.6 secs

     total energy              =    -501.45360171 Ry
     estimated scf accuracy    <       0.00008415 Ry

     iteration # 39     ecut=    30.00 Ry     beta= 0.50
     Davidson diagonalization with overlap
     c_bands:  2 eigenvalues not converged
     ethr =  1.97E-08,  avg # of iterations = 20.0

     total cpu time spent up to now is        8.7 secs

     total energy              =    -501.45360227 Ry
     estimated scf accuracy    <       0.00013296 Ry

     iteration # 40     ecut=    30.00 Ry     beta= 0.50
     Davidson diagonalization with overlap
     c_bands:  1 eigenvalues not converged
     ethr =  1.97E-08,  avg # of iterations = 20.0

     total cpu time spent up to now is        8.9 secs

     total energy              =    -501.45359393 Ry
     estimated scf accuracy    <       0.00020145 Ry

     iteration # 41     ecut=    30.00 Ry     beta= 0.50
     Davidson diagonalization with overlap
     c_bands:  1 eigenvalues not converged
     ethr =  1.97E-08,  avg # of iterations = 20.0

     total cpu time spent up to now is        9.1 secs

     total energy              =    -501.45360144 Ry
     estimated scf accuracy    <       0.00006078 Ry

     iteration # 42     ecut=    30.00 Ry     beta= 0.50
     Davidson diagonalization with overlap
     ethr =  1.97E-08,  avg # of iterations = 10.0

     total cpu time spent up to now is        9.2 secs

     total energy              =    -501.45360422 Ry
     estimated scf accuracy    <       0.00001797 Ry

     iteration # 43     ecut=    30.00 Ry     beta= 0.50
     Davidson diagonalization with overlap
     c_bands:  2 eigenvalues not converged
     ethr =  7.02E-09,  avg # of iterations = 20.0

     total cpu time spent up to now is        9.4 secs

     total energy              =    -501.45360667 Ry
     estimated scf accuracy    <       0.00000770 Ry

     iteration # 44     ecut=    30.00 Ry     beta= 0.50
     Davidson diagonalization with overlap
     c_bands:  1 eigenvalues not converged
     ethr =  3.01E-09,  avg # of iterations = 20.0

     total cpu time spent up to now is        9.5 secs

     total energy              =    -501.45360685 Ry
     estimated scf accuracy    <       0.00003025 Ry

     iteration # 45     ecut=    30.00 Ry     beta= 0.50
     Davidson diagonalization with overlap
     c_bands:  1 eigenvalues not converged
     ethr =  3.01E-09,  avg # of iterations = 20.0

     total cpu time spent up to now is        9.7 secs

     total energy              =    -501.45360766 Ry
     estimated scf accuracy    <       0.00001155 Ry

     iteration # 46     ecut=    30.00 Ry     beta= 0.50
     Davidson diagonalization with overlap
     ethr =  3.01E-09,  avg # of iterations =  2.0

     total cpu time spent up to now is        9.8 secs

     total energy              =    -501.45360727 Ry
     estimated scf accuracy    <       0.00000932 Ry

     iteration # 47     ecut=    30.00 Ry     beta= 0.50
     Davidson diagonalization with overlap
     ethr =  3.01E-09,  avg # of iterations =  1.0

     total cpu time spent up to now is        9.8 secs

     total energy              =    -501.45360635 Ry
     estimated scf accuracy    <       0.00000688 Ry

     iteration # 48     ecut=    30.00 Ry     beta= 0.50
     Davidson diagonalization with overlap
     c_bands:  2 eigenvalues not converged
     ethr =  2.69E-09,  avg # of iterations = 20.0

     total cpu time spent up to now is       10.0 secs

     total energy              =    -501.45360644 Ry
     estimated scf accuracy    <       0.00002286 Ry

     iteration # 49     ecut=    30.00 Ry     beta= 0.50
     Davidson diagonalization with overlap
     c_bands:  2 eigenvalues not converged
     ethr =  2.69E-09,  avg # of iterations = 20.0

     total cpu time spent up to now is       10.1 secs

     total energy              =    -501.45360720 Ry
     estimated scf accuracy    <       0.00000762 Ry

     iteration # 50     ecut=    30.00 Ry     beta= 0.50
     Davidson diagonalization with overlap
     ethr =  2.69E-09,  avg # of iterations = 10.0

     total cpu time spent up to now is       10.2 secs

     total energy              =    -501.45360735 Ry
     estimated scf accuracy    <       0.00000483 Ry

     iteration # 51     ecut=    30.00 Ry     beta= 0.50
     Davidson diagonalization with overlap
     ethr =  1.89E-09,  avg # of iterations =  2.0

     total cpu time spent up to now is       10.3 secs

     total energy              =    -501.45360706 Ry
     estimated scf accuracy    <       0.00000450 Ry

     iteration # 52     ecut=    30.00 Ry     beta= 0.50
     Davidson diagonalization with overlap
     c_bands:  1 eigenvalues not converged
     ethr =  1.76E-09,  avg # of iterations = 20.0

     total cpu time spent up to now is       10.5 secs

     total energy              =    -501.45360616 Ry
     estimated scf accuracy    <       0.00003813 Ry

     iteration # 53     ecut=    30.00 Ry     beta= 0.50
     Davidson diagonalization with overlap
     c_bands:  2 eigenvalues not converged
     ethr =  1.76E-09,  avg # of iterations = 20.0

     total cpu time spent up to now is       10.7 secs

     total energy              =    -501.45360751 Ry
     estimated scf accuracy    <       0.00000253 Ry

     iteration # 54     ecut=    30.00 Ry     beta= 0.50
     Davidson diagonalization with overlap
     ethr =  9.87E-10,  avg # of iterations = 15.0

     total cpu time spent up to now is       10.8 secs

     total energy              =    -501.45360765 Ry
     estimated scf accuracy    <       0.00000110 Ry

     iteration # 55     ecut=    30.00 Ry     beta= 0.50
     Davidson diagonalization with overlap
     c_bands:  1 eigenvalues not converged
     ethr =  4.29E-10,  avg # of iterations = 20.0

     total cpu time spent up to now is       10.9 secs

     End of self-consistent calculation

          k = 0.0000 0.0000 0.0000 ( 11444 PWs)   bands (ev):

    -5.3522  -4.3975  -4.3809  -4.2066  -4.1441  -4.0152  -3.9343  -3.3811
    -3.3039  -3.2602  -3.1641  -3.0722  -3.0098  -2.9910  -2.8867  -2.8636
    -2.7222  -2.6241  -2.4680  -2.0957  -2.0480  -1.9096  -1.8401  -1.7349
    -1.6676  -1.5176  -1.3072  -0.9373  -0.9065  -0.7892  -0.6045  -0.4544
    -0.3862  -0.1358  -0.1057  -0.0809  -0.0303   0.0727   0.1729   0.2389
     0.3486   0.3860   0.4602   0.5568   0.7202   0.7726   0.7996   0.8616
     0.9857   1.0929   1.1411   1.3158   1.3958   1.4459   1.5393   1.6284
     1.7295   1.7500   1.8325   1.9071   2.0185   2.1381   2.1987   2.3785
     2.4255   2.4992   2.5909   2.6546   2.7806   2.8207   2.8480   2.9466
     3.0370   3.0751   3.2169   3.3159   3.4586   3.4899   3.6082   3.6969
     3.8486   4.0638   4.1455   4.2784   4.3481   4.4853   4.5592   4.6685
     4.7161   4.7654   4.8115   4.8688   4.9985   5.0680   5.1217   5.1406
     5.2359   5.2837   5.3178   5.3689   5.4397   5.4756   5.5509   5.5986
     5.6232   5.6836   5.8142   5.8809   5.9237   5.9803   6.0539   6.1206
     6.1504   6.1835   6.2089   6.2439   6.2875   6.4700   6.5287   6.5795
     6.6197   6.6705   6.7026   6.7526   6.8788   6.8885   6.9692   6.9803

     highest occupied level (ev):     6.9803

!    total energy              =    -501.45360756 Ry
     estimated scf accuracy    <       0.00000027 Ry

     The total energy is the sum of the following terms:
     one-electron contribution =     188.83434399 Ry
     hartree contribution      =      23.08376219 Ry
     xc contribution           =    -150.58415874 Ry
     ewald contribution        =    -562.78755501 Ry

     convergence has been achieved in  55 iterations

     Forces acting on atoms (cartesian axes, Ry/au):

     atom    1 type  1   force =     0.03469339    0.02016559    0.02860417
     atom    2 type  1   force =     0.00843956   -0.00073718   -0.00614722
     atom    3 type  1   force =     0.02383551    0.00236211   -0.01237337
     atom    4 type  1   force =    -0.01095337    0.00317748   -0.03717156
     atom    5 type  1   force =    -0.00747068    0.00663175   -0.01922466
     atom    6 type  1   force =     0.01208973   -0.00899414    0.00688109
     atom    7 type  1   force =     0.03436925    0.02130344   -0.00735207
     atom    8 type  1   force =     0.00885332    0.00876241   -0.03012513
     atom    9 type  1   force =     0.00870669    0.03187235    0.03761295
     atom   10 type  1   force =    -0.01442330    0.01492943   -0.00590469
     atom   11 type  1   force =     0.00600806   -0.00707760   -0.00018362
     atom   12 type  1   force =     0.03049986   -0.00940917    0.04020917
     atom   13 type  1   force =    -0.01921962   -0.00615351   -0.01557791
     atom   14 type  1   force =     0.01574083   -0.04701322    0.10835078
     atom   15 type  1   force =     0.00059465    0.01242764    0.00429520
     atom   16 type  1   force =     0.00040784    0.01677840    0.02282534
     atom   17 type  1   force =    -0.01849977   -0.00869086   -0.02442838
     atom   18 type  1   force =    -0.01743937   -0.01140351   -0.01195043
     atom   19 type  1   force =     0.00131431   -0.00403029   -0.01121519
     atom   20 type  1   force =    -0.06125870    0.05283026   -0.04627149
     atom   21 type  1   force =    -0.00239589   -0.02174027    0.00934974
     atom   22 type  1   force =    -0.00165997   -0.02367634   -0.02941192
     atom   23 type  1   force =     0.02061398   -0.03508455   -0.02031144
     atom   24 type  1   force =     0.00598905   -0.01108907    0.00235161
     atom   25 type  1   force =    -0.02950575   -0.03289061   -0.00228145
     atom   26 type  1   force =     0.01379393   -0.02884864    0.01982223
     atom   27 type  1   force =    -0.00743406    0.01943890   -0.00646151
     atom   28 type  1   force =     0.01100978    0.02943799    0.03448148
     atom   29 type  1   force =    -0.02204003    0.05094716   -0.02067841
     atom   30 type  1   force =    -0.00013123    0.02139786    0.02394850
     atom   31 type  1   force =    -0.02532384    0.02373348    0.01597243
     atom   32 type  1   force =    -0.04924330   -0.01592901   -0.01503696
     atom   33 type  1   force =     0.01876438    0.01824035    0.01457037
     atom   34 type  1   force =    -0.03553483    0.02005630    0.01865638
     atom   35 type  1   force =    -0.03160290   -0.00157439    0.00963665
     atom   36 type  1   force =    -0.01507748   -0.01793827   -0.00703754
     atom   37 type  1   force =     0.00274265   -0.03053046    0.01443715
     atom   38 type  1   force =     0.01485977   -0.01289780    0.00287433
     atom   39 type  1   force =    -0.01567907    0.02570739   -0.01654515
     atom   40 type  1   force =     0.01207594    0.00583041   -0.04721348
     atom   41 type  1   force =     0.01616197    0.03076222   -0.00780851
     atom   42 type  1   force =     0.02007442   -0.02051390   -0.00248674
     atom   43 type  1   force =     0.00128436   -0.00878818    0.01561311
     atom   44 type  1   force =    -0.01128418   -0.03043514   -0.02151371
     atom   45 type  1   force =    -0.01369339    0.01782666    0.03937204
     atom   46 type  1   force =     0.03080134    0.00011889    0.02675789
     atom   47 type  1   force =    -0.02786818   -0.03354940   -0.00946232
     atom   48 type  1   force =    -0.02979552   -0.00189441   -0.03058180
     atom   49 type  1   force =    -0.01880598    0.03194526    0.01895418
     atom   50 type  1   force =     0.01810090    0.00814747   -0.02678653
     atom   51 type  1   force =     0.00553853   -0.01353253    0.02165004
     atom   52 type  1   force =     0.00376061   -0.05718808    0.03843308
     atom   53 type  1   force =     0.00014460    0.03520361   -0.07539512
     atom   54 type  1   force =     0.00924918    0.00840830   -0.03290685
     atom   55 type  1   force =     0.01003426    0.00523593    0.01377073
     atom   56 type  1   force =     0.03929067    0.01799398    0.03059870
     atom   57 type  1   force =    -0.00346606    0.00030248   -0.03933541
     atom   58 type  1   force =     0.03168897   -0.04012212   -0.00645754
     atom   59 type  1   force =     0.02437653    0.00002334   -0.00569539
     atom   60 type  1   force =    -0.00744882    0.00402620   -0.00205505
     atom   61 type  1   force =    -0.01313254   -0.02248359   -0.00666076
     atom   62 type  1   force =    -0.01576734    0.01666375    0.03190911
     atom   63 type  1   force =    -0.01429670    0.02369223    0.00852190
     atom   64 type  1   force =     0.04454305   -0.04216478   -0.00041103

     Total force =     0.334570     Total SCF correction =     0.000772


     Computing stress (Cartesian axis) and pressure

          total   stress  (Ry/bohr**3)                   (kbar)     P=      -39.65
  -0.00036849   0.00005861   0.00004914          -54.21        8.62        7.23
   0.00005861  -0.00026114  -0.00000572            8.62      -38.41       -0.84
   0.00004914  -0.00000572  -0.00017902            7.23       -0.84      -26.33

 
     init_run     :      0.96s CPU      4.25s WALL (       1 calls)
     electrons    :      6.35s CPU      6.64s WALL (       1 calls)
     forces       :      0.03s CPU      0.03s WALL (       1 calls)
     stress       :      0.12s CPU      0.13s WALL (       1 calls)

     Called by init_run:
     wfcinit      :      0.45s CPU      3.58s WALL (       1 calls)
                                        3.58s GPU  (       1 calls)
     potinit      :      0.04s CPU      0.13s WALL (       1 calls)
     hinit0       :      0.45s CPU      0.48s WALL (       1 calls)

     Called by electrons:
     c_bands      :      4.58s CPU      4.72s WALL (      56 calls)
     sum_band     :      0.85s CPU      0.95s WALL (      56 calls)
     v_of_rho     :      0.34s CPU      0.44s WALL (      56 calls)
     mix_rho      :      0.48s CPU      0.50s WALL (      56 calls)

     Called by c_bands:
     init_us_2    :      0.14s CPU      0.15s WALL (     113 calls)
     init_us_2:gp :      0.14s CPU      0.15s WALL (     113 calls)
     regterg      :      4.16s CPU      4.28s WALL (      56 calls)

     Called by *egterg:
     rdiaghg      :      2.16s CPU      2.87s WALL (     689 calls)
                                        2.77s GPU  (     689 calls)
     h_psi        :      1.84s CPU      4.38s WALL (     691 calls)
                                        4.37s GPU  (     691 calls)
     g_psi        :      0.00s CPU      0.01s WALL (     634 calls)
                                        0.01s GPU  (     634 calls)

     Called by h_psi:
     h_psi:calbec :      0.57s CPU      3.01s WALL (     691 calls)
                                        3.00s GPU  (     691 calls)
     vloc_psi     :      0.89s CPU      0.99s WALL (     691 calls)
                                        0.97s GPU  (     691 calls)
     add_vuspsi   :      0.30s CPU      0.35s WALL (     691 calls)
                                        0.35s GPU  (     691 calls)

     General routines
     calbec       :      0.57s CPU      3.00s WALL (     696 calls)
     fft          :      0.74s CPU      0.86s WALL (     455 calls)
                                        0.14s GPU  (     286 calls)
     ffts         :      0.10s CPU      0.11s WALL (      56 calls)
     fftw         :      1.07s CPU      1.35s WALL (    5718 calls)
                                        1.17s GPU  (    5718 calls)
 
     Parallel routines
 
     PWSCF        :      7.50s CPU     11.12s WALL

 
   This run was terminated on:  15:11:25   9May2023            

=------------------------------------------------------------------------------=
   JOB DONE.
=------------------------------------------------------------------------------=
