An instance of this daemon is already running
An instance of this daemon is already running

     Program PWSCF v.7.1 starts on  9May2023 at 15: 7:59 

     This program is part of the open-source Quantum ESPRESSO suite
     for quantum simulation of materials; please cite
         "P. Giannozzi et al., J. Phys.:Condens. Matter 21 395502 (2009);
         "P. Giannozzi et al., J. Phys.:Condens. Matter 29 465901 (2017);
         "P. Giannozzi et al., J. Chem. Phys. 152 154105 (2020);
          URL http://www.quantum-espresso.org", 
     in publications or presentations arising from this work. More details at
     http://www.quantum-espresso.org/quote

     Parallel version (MPI & OpenMP), running on       4 processor cores
     Number of MPI processes:                 4
     Threads/MPI process:                     1

     MPI processes distributed on     1 nodes
     75715 MiB available memory on the printing compute node when the environment starts
 
     Reading input from pw-si-17.in
Warning: card &CELL ignored
Warning: card / ignored

     Current dimensions of program PWSCF are:
     Max number of different atomic species (ntypx) = 10
     Max number of k-points (npk) =  40000
     Max angular momentum in pseudopotentials (lmaxx) =  4

     IMPORTANT: XC functional enforced from input :
     Exchange-correlation= PBE
                           (   1   4   3   4   0   0   0)
     Any further DFT definition will be discarded
     Please, verify this is what you really want


     gamma-point specific algorithms are used
 
     K-points division:     npool     =       2
     R & G space division:  proc/nbgrp/npool/nimage =       2
     Subspace diagonalization in iterative solution of the eigenvalue problem:
     a serial algorithm will be used

     Message from routine divide_et_impera:
     suboptimal parallelization: some nodes have no k-points
 
     Parallelization info
     --------------------
     sticks:   dense  smooth     PW     G-vecs:    dense   smooth      PW
     Min        1945    1945    516                91383    91383   12416
     Max        1948    1948    517                91388    91388   12421
     Sum        3893    3893   1033               182771   182771   24837
 
     Using Slab Decomposition
 


     bravais-lattice index     =            0
     lattice parameter (alat)  =      20.1932  a.u.
     unit-cell volume          =    8234.1194 (a.u.)^3
     number of atoms/cell      =           64
     number of atomic types    =            1
     number of electrons       =       256.00
     number of Kohn-Sham states=          128
     kinetic-energy cutoff     =      30.0000  Ry
     charge density cutoff     =     120.0000  Ry
     scf convergence threshold =      1.0E-06
     mixing beta               =       0.5000
     number of iterations used =            8  plain     mixing
     Exchange-correlation= PBE
                           (   1   4   3   4   0   0   0)

     GPU acceleration is ACTIVE.
     GPU-aware MPI enabled

     Message from routine print_cuda_info:
     High GPU oversubscription detected. Are you sure this is what you want?

     celldm(1)=  20.193227  celldm(2)=   0.000000  celldm(3)=   0.000000
     celldm(4)=   0.000000  celldm(5)=   0.000000  celldm(6)=   0.000000

     crystal axes: (cart. coord. in units of alat)
               a(1) = (   1.000000   0.000000   0.000000 )  
               a(2) = (   0.000000   1.000000   0.000000 )  
               a(3) = (   0.000000   0.000000   1.000000 )  

     reciprocal axes: (cart. coord. in units 2 pi/alat)
               b(1) = (  1.000000  0.000000  0.000000 )  
               b(2) = (  0.000000  1.000000  0.000000 )  
               b(3) = (  0.000000  0.000000  1.000000 )  


     PseudoPot. # 1 for Si read from file:
     /home/ppiaggi/pseudos/Si_ONCV_PBE_sr.upf
     MD5 check sum: 8553c464762ac42b85b1eed164b4d029
     Pseudo is Norm-conserving, Zval =  4.0
     Generated using ONCVPSP code by D. R. Hamann
     Using radial grid of 1510 points,  4 beta functions with: 
                l(1) =   0
                l(2) =   0
                l(3) =   1
                l(4) =   1

     atomic species   valence    mass     pseudopotential
        Si             4.00    28.08500     Si( 1.00)

     No symmetry found



   Cartesian axes

     site n.     atom                  positions (alat units)
         1           Si  tau(   1) = (   0.8205640   0.5094150   0.5937410  )
         2           Si  tau(   2) = (   0.7393010   0.6891860   0.1669090  )
         3           Si  tau(   3) = (   0.7106690   0.1506690   0.0492016  )
         4           Si  tau(   4) = (   0.0020843   0.9300820   0.9281530  )
         5           Si  tau(   5) = (   0.8412820   0.9107630   0.2556400  )
         6           Si  tau(   6) = (   0.3520360   0.9223440   0.7571610  )
         7           Si  tau(   7) = (   0.4381230   0.2354420   0.6184410  )
         8           Si  tau(   8) = (   0.9609950   0.7916380   0.1394160  )
         9           Si  tau(   9) = (   0.6180470   0.3952410   0.8750570  )
        10           Si  tau(  10) = (   0.4323150   0.1464370   0.2219990  )
        11           Si  tau(  11) = (   0.2849320   0.6741080   0.1760850  )
        12           Si  tau(  12) = (   0.2578470   0.1904490   0.0914232  )
        13           Si  tau(  13) = (   0.1636490   0.9808330   0.1214200  )
        14           Si  tau(  14) = (   0.9967330   0.6600170   0.5073560  )
        15           Si  tau(  15) = (   0.6775690   0.9877630   0.5086070  )
        16           Si  tau(  16) = (   0.2890650   0.0946750   0.3651520  )
        17           Si  tau(  17) = (   0.4864180   0.5161570   0.0069547  )
        18           Si  tau(  18) = (   0.0903772   0.0318909   0.3088390  )
        19           Si  tau(  19) = (   0.9302490   0.1832690   0.2896110  )
        20           Si  tau(  20) = (   0.1448660   0.3926590   0.8421830  )
        21           Si  tau(  21) = (   0.0413798   0.1444450   0.6456470  )
        22           Si  tau(  22) = (   0.7016170   0.7663130   0.8052950  )
        23           Si  tau(  23) = (   0.4925860   0.8369800   0.3269180  )
        24           Si  tau(  24) = (   0.7209030   0.1560130   0.3246680  )
        25           Si  tau(  25) = (   0.3020040   0.4659710   0.6199610  )
        26           Si  tau(  26) = (   0.7163790   0.9924990   0.7501710  )
        27           Si  tau(  27) = (   0.3132110   0.2158980   0.8194780  )
        28           Si  tau(  28) = (   0.9325960   0.7749160   0.7590600  )
        29           Si  tau(  29) = (   0.6071740   0.4115060   0.4962710  )
        30           Si  tau(  30) = (   0.9253010   0.3014440   0.7746920  )
        31           Si  tau(  31) = (   0.5917230   0.6332350   0.3641940  )
        32           Si  tau(  32) = (   0.8149800   0.7907710   0.4361080  )
        33           Si  tau(  33) = (   0.0946006   0.8780170   0.4884670  )
        34           Si  tau(  34) = (   0.9274580   0.2703640   0.0795090  )
        35           Si  tau(  35) = (   0.5804130   0.7383240   0.0025008  )
        36           Si  tau(  36) = (   0.9835440   0.6318330   0.9467280  )
        37           Si  tau(  37) = (   0.8271410   0.5058780   0.8117450  )
        38           Si  tau(  38) = (   0.8951630   0.5292110   0.1509040  )
        39           Si  tau(  39) = (   0.3381470   0.6285030   0.4471070  )
        40           Si  tau(  40) = (   0.9372390   0.9741530   0.5987670  )
        41           Si  tau(  41) = (   0.1960010   0.5876210   0.9827970  )
        42           Si  tau(  42) = (   0.3530780   0.6954290   0.8481050  )
        43           Si  tau(  43) = (   0.0979065   0.7159050   0.2930660  )
        44           Si  tau(  44) = (   0.0204740   0.4996600   0.3337770  )
        45           Si  tau(  45) = (   0.5177200   0.5212880   0.6902120  )
        46           Si  tau(  46) = (   0.3688730   0.9018240   0.1036740  )
        47           Si  tau(  47) = (   0.5698670   0.3114080   0.2721490  )
        48           Si  tau(  48) = (   0.4560660   0.0022863   0.5184100  )
        49           Si  tau(  49) = (   0.2427990   0.4003830   0.2984880  )
        50           Si  tau(  50) = (   0.1266100   0.3795980   0.0863536  )
        51           Si  tau(  51) = (   0.6455630   0.2215030   0.7315010  )
        52           Si  tau(  52) = (   0.4405370   0.4947810   0.2187850  )
        53           Si  tau(  53) = (   0.6393270   0.9566650   0.1640020  )
        54           Si  tau(  54) = (   0.6903480   0.3912020   0.1191800  )
        55           Si  tau(  55) = (   0.8613770   0.0967340   0.8917320  )
        56           Si  tau(  56) = (   0.6750900   0.6859680   0.5865220  )
        57           Si  tau(  57) = (   0.1587820   0.0303483   0.8084280  )
        58           Si  tau(  58) = (   0.7679410   0.2636500   0.5524440  )
        59           Si  tau(  59) = (   0.2958180   0.8330900   0.5438490  )
        60           Si  tau(  60) = (   0.4822470   0.2099360   0.9657740  )
        61           Si  tau(  61) = (   0.1595250   0.6305730   0.6856530  )
        62           Si  tau(  62) = (   0.5082610   0.9861160   0.9013500  )
        63           Si  tau(  63) = (   0.2054780   0.2721210   0.4785130  )
        64           Si  tau(  64) = (   0.9718570   0.3315170   0.4715870  )

     number of k points=     1
                       cart. coord. in units 2pi/alat
        k(    1) = (   0.0000000   0.0000000   0.0000000), wk =   2.0000000

     Dense  grid:    91386 G-vectors     FFT dimensions: (  72,  72,  72)

     Estimated max dynamical RAM per process >     134.47 MB

     Estimated total dynamical RAM >     515.57 MB

     Initial potential from superposition of free atoms

     starting charge     255.9608, renormalised to     256.0000
     Starting wfcs are  256 randomized atomic wfcs

     total cpu time spent up to now is        4.1 secs

     Self-consistent Calculation

     iteration #  1     ecut=    30.00 Ry     beta= 0.50
     Davidson diagonalization with overlap
     ethr =  1.00E-02,  avg # of iterations =  2.0

     Threshold (ethr) on eigenvalues was too large:
     Diagonalizing with lowered threshold

     Davidson diagonalization with overlap
     ethr =  3.86E-04,  avg # of iterations =  6.0

     total cpu time spent up to now is        4.3 secs

     total energy              =    -501.33057374 Ry
     estimated scf accuracy    <       1.27121770 Ry

     iteration #  2     ecut=    30.00 Ry     beta= 0.50
     Davidson diagonalization with overlap
     ethr =  4.97E-04,  avg # of iterations = 15.0

     total cpu time spent up to now is        4.5 secs

     total energy              =    -500.85763809 Ry
     estimated scf accuracy    <       5.58768275 Ry

     iteration #  3     ecut=    30.00 Ry     beta= 0.50
     Davidson diagonalization with overlap
     ethr =  4.97E-04,  avg # of iterations = 18.0

     total cpu time spent up to now is        4.6 secs

     total energy              =    -501.43714939 Ry
     estimated scf accuracy    <       1.39818516 Ry

     iteration #  4     ecut=    30.00 Ry     beta= 0.50
     Davidson diagonalization with overlap
     ethr =  4.97E-04,  avg # of iterations =  7.0

     total cpu time spent up to now is        4.7 secs

     total energy              =    -501.52889347 Ry
     estimated scf accuracy    <       0.43564793 Ry

     iteration #  5     ecut=    30.00 Ry     beta= 0.50
     Davidson diagonalization with overlap
     ethr =  1.70E-04,  avg # of iterations =  7.0

     total cpu time spent up to now is        4.8 secs

     total energy              =    -501.56220367 Ry
     estimated scf accuracy    <       0.20104540 Ry

     iteration #  6     ecut=    30.00 Ry     beta= 0.50
     Davidson diagonalization with overlap
     ethr =  7.85E-05,  avg # of iterations =  7.0

     total cpu time spent up to now is        4.9 secs

     total energy              =    -501.58907173 Ry
     estimated scf accuracy    <       0.03018244 Ry

     iteration #  7     ecut=    30.00 Ry     beta= 0.50
     Davidson diagonalization with overlap
     ethr =  1.18E-05,  avg # of iterations = 10.0

     total cpu time spent up to now is        5.0 secs

     total energy              =    -501.59190858 Ry
     estimated scf accuracy    <       0.02959166 Ry

     iteration #  8     ecut=    30.00 Ry     beta= 0.50
     Davidson diagonalization with overlap
     ethr =  1.16E-05,  avg # of iterations = 10.0

     total cpu time spent up to now is        5.1 secs

     total energy              =    -501.59431171 Ry
     estimated scf accuracy    <       0.00719183 Ry

     iteration #  9     ecut=    30.00 Ry     beta= 0.50
     Davidson diagonalization with overlap
     ethr =  2.81E-06,  avg # of iterations = 11.0

     total cpu time spent up to now is        5.3 secs

     total energy              =    -501.59504821 Ry
     estimated scf accuracy    <       0.00192989 Ry

     iteration # 10     ecut=    30.00 Ry     beta= 0.50
     Davidson diagonalization with overlap
     c_bands:  1 eigenvalues not converged
     ethr =  7.54E-07,  avg # of iterations = 20.0

     total cpu time spent up to now is        5.4 secs

     total energy              =    -501.59518001 Ry
     estimated scf accuracy    <       0.00676718 Ry

     iteration # 11     ecut=    30.00 Ry     beta= 0.50
     Davidson diagonalization with overlap
     c_bands:  1 eigenvalues not converged
     ethr =  7.54E-07,  avg # of iterations = 20.0

     total cpu time spent up to now is        5.6 secs

     total energy              =    -501.59521343 Ry
     estimated scf accuracy    <       0.00132945 Ry

     iteration # 12     ecut=    30.00 Ry     beta= 0.50
     Davidson diagonalization with overlap
     ethr =  5.19E-07,  avg # of iterations = 17.0

     total cpu time spent up to now is        5.7 secs

     total energy              =    -501.59532571 Ry
     estimated scf accuracy    <       0.00077299 Ry

     iteration # 13     ecut=    30.00 Ry     beta= 0.50
     Davidson diagonalization with overlap
     c_bands:  1 eigenvalues not converged
     ethr =  3.02E-07,  avg # of iterations = 20.0

     total cpu time spent up to now is        5.9 secs

     total energy              =    -501.59541227 Ry
     estimated scf accuracy    <       0.00028036 Ry

     iteration # 14     ecut=    30.00 Ry     beta= 0.50
     Davidson diagonalization with overlap
     c_bands:  1 eigenvalues not converged
     ethr =  1.10E-07,  avg # of iterations = 20.0

     total cpu time spent up to now is        6.1 secs

     total energy              =    -501.59541858 Ry
     estimated scf accuracy    <       0.00016466 Ry

     iteration # 15     ecut=    30.00 Ry     beta= 0.50
     Davidson diagonalization with overlap
     ethr =  6.43E-08,  avg # of iterations = 10.0

     total cpu time spent up to now is        6.2 secs

     total energy              =    -501.59542640 Ry
     estimated scf accuracy    <       0.00014017 Ry

     iteration # 16     ecut=    30.00 Ry     beta= 0.50
     Davidson diagonalization with overlap
     ethr =  5.48E-08,  avg # of iterations =  3.0

     total cpu time spent up to now is        6.2 secs

     total energy              =    -501.59542678 Ry
     estimated scf accuracy    <       0.00006282 Ry

     iteration # 17     ecut=    30.00 Ry     beta= 0.50
     Davidson diagonalization with overlap
     c_bands:  1 eigenvalues not converged
     ethr =  2.45E-08,  avg # of iterations = 20.0

     total cpu time spent up to now is        6.4 secs

     total energy              =    -501.59543434 Ry
     estimated scf accuracy    <       0.00002512 Ry

     iteration # 18     ecut=    30.00 Ry     beta= 0.50
     Davidson diagonalization with overlap
     ethr =  9.81E-09,  avg # of iterations = 13.0

     total cpu time spent up to now is        6.5 secs

     total energy              =    -501.59543505 Ry
     estimated scf accuracy    <       0.00001883 Ry

     iteration # 19     ecut=    30.00 Ry     beta= 0.50
     Davidson diagonalization with overlap
     ethr =  7.36E-09,  avg # of iterations =  3.0

     total cpu time spent up to now is        6.6 secs

     total energy              =    -501.59543519 Ry
     estimated scf accuracy    <       0.00001090 Ry

     iteration # 20     ecut=    30.00 Ry     beta= 0.50
     Davidson diagonalization with overlap
     c_bands:  1 eigenvalues not converged
     ethr =  4.26E-09,  avg # of iterations = 20.0

     total cpu time spent up to now is        6.7 secs

     total energy              =    -501.59543625 Ry
     estimated scf accuracy    <       0.00000249 Ry

     iteration # 21     ecut=    30.00 Ry     beta= 0.50
     Davidson diagonalization with overlap
     ethr =  9.71E-10,  avg # of iterations = 17.0

     total cpu time spent up to now is        6.9 secs

     total energy              =    -501.59543654 Ry
     estimated scf accuracy    <       0.00000553 Ry

     iteration # 22     ecut=    30.00 Ry     beta= 0.50
     Davidson diagonalization with overlap
     ethr =  9.71E-10,  avg # of iterations =  2.0

     total cpu time spent up to now is        7.0 secs

     total energy              =    -501.59543645 Ry
     estimated scf accuracy    <       0.00000438 Ry

     iteration # 23     ecut=    30.00 Ry     beta= 0.50
     Davidson diagonalization with overlap
     ethr =  9.71E-10,  avg # of iterations =  2.0

     total cpu time spent up to now is        7.0 secs

     total energy              =    -501.59543644 Ry
     estimated scf accuracy    <       0.00000309 Ry

     iteration # 24     ecut=    30.00 Ry     beta= 0.50
     Davidson diagonalization with overlap
     ethr =  9.71E-10,  avg # of iterations =  2.0

     total cpu time spent up to now is        7.1 secs

     total energy              =    -501.59543637 Ry
     estimated scf accuracy    <       0.00000241 Ry

     iteration # 25     ecut=    30.00 Ry     beta= 0.50
     Davidson diagonalization with overlap
     ethr =  9.40E-10,  avg # of iterations =  1.0

     total cpu time spent up to now is        7.2 secs

     total energy              =    -501.59543631 Ry
     estimated scf accuracy    <       0.00000172 Ry

     iteration # 26     ecut=    30.00 Ry     beta= 0.50
     Davidson diagonalization with overlap
     c_bands:  2 eigenvalues not converged
     ethr =  6.70E-10,  avg # of iterations = 20.0

     total cpu time spent up to now is        7.3 secs

     total energy              =    -501.59543651 Ry
     estimated scf accuracy    <       0.00000114 Ry

     iteration # 27     ecut=    30.00 Ry     beta= 0.50
     Davidson diagonalization with overlap
     ethr =  4.46E-10,  avg # of iterations = 17.0

     total cpu time spent up to now is        7.4 secs

     total energy              =    -501.59543656 Ry
     estimated scf accuracy    <       0.00000122 Ry

     iteration # 28     ecut=    30.00 Ry     beta= 0.50
     Davidson diagonalization with overlap
     ethr =  4.46E-10,  avg # of iterations =  2.0

     total cpu time spent up to now is        7.5 secs

     total energy              =    -501.59543655 Ry
     estimated scf accuracy    <       0.00000121 Ry

     iteration # 29     ecut=    30.00 Ry     beta= 0.50
     Davidson diagonalization with overlap
     ethr =  4.46E-10,  avg # of iterations =  1.0

     total cpu time spent up to now is        7.6 secs

     total energy              =    -501.59543645 Ry
     estimated scf accuracy    <       0.00000110 Ry

     iteration # 30     ecut=    30.00 Ry     beta= 0.50
     Davidson diagonalization with overlap
     ethr =  4.31E-10,  avg # of iterations =  3.0

     total cpu time spent up to now is        7.6 secs

     End of self-consistent calculation

          k = 0.0000 0.0000 0.0000 ( 11444 PWs)   bands (ev):

    -5.4666  -4.6203  -4.4981  -4.3269  -4.1520  -4.0958  -4.0439  -3.6209
    -3.4255  -3.3841  -3.2202  -3.1374  -3.0073  -2.9552  -2.9350  -2.9067
    -2.8871  -2.7811  -2.6793  -2.2111  -2.0290  -1.9877  -1.9256  -1.8486
    -1.7328  -1.6712  -1.4633  -1.1357  -1.0574  -0.8946  -0.7892  -0.6330
    -0.4047  -0.3795  -0.2504  -0.1978  -0.1125   0.0098   0.0795   0.1825
     0.2609   0.2942   0.4223   0.4947   0.5841   0.6350   0.7759   0.8375
     0.9317   1.0102   1.0821   1.1305   1.2373   1.3167   1.3782   1.4005
     1.5605   1.6090   1.8310   1.9408   2.0605   2.2260   2.3159   2.3836
     2.4281   2.4913   2.5608   2.6928   2.7453   2.8262   2.8381   2.9888
     3.0323   3.1339   3.1574   3.1969   3.2799   3.3805   3.4467   3.5562
     3.7194   3.9769   4.0973   4.1299   4.2567   4.3200   4.3468   4.4807
     4.5163   4.5790   4.7000   4.7289   4.8011   4.8990   4.9650   5.0015
     5.0415   5.1425   5.2133   5.2571   5.3456   5.3733   5.4495   5.4559
     5.5614   5.5834   5.6969   5.7278   5.7879   5.8704   5.9297   5.9841
     6.0980   6.1252   6.1326   6.1526   6.2686   6.3583   6.4076   6.4870
     6.5075   6.5342   6.6278   6.7164   6.7365   6.9012   6.9353   6.9749

     highest occupied level (ev):     6.9749

!    total energy              =    -501.59543606 Ry
     estimated scf accuracy    <       0.00000048 Ry

     The total energy is the sum of the following terms:
     one-electron contribution =     182.74222740 Ry
     hartree contribution      =      25.50269740 Ry
     xc contribution           =    -151.00656238 Ry
     ewald contribution        =    -558.83379849 Ry

     convergence has been achieved in  30 iterations

     Forces acting on atoms (cartesian axes, Ry/au):

     atom    1 type  1   force =     0.01143518    0.00933876    0.00062923
     atom    2 type  1   force =     0.00519641    0.00832243    0.02466675
     atom    3 type  1   force =    -0.01545323    0.01644011    0.00076534
     atom    4 type  1   force =     0.02798111   -0.01132281    0.04690319
     atom    5 type  1   force =    -0.05129151    0.04401524    0.03163819
     atom    6 type  1   force =    -0.03168109   -0.04107560   -0.01214348
     atom    7 type  1   force =     0.01942565   -0.01857418    0.00948930
     atom    8 type  1   force =     0.04265225   -0.03544692   -0.08529546
     atom    9 type  1   force =     0.02867954    0.00490949   -0.01768232
     atom   10 type  1   force =     0.03638838   -0.01403549   -0.06041321
     atom   11 type  1   force =     0.01821302    0.01748581    0.01291058
     atom   12 type  1   force =    -0.02033423    0.00625682   -0.02663102
     atom   13 type  1   force =    -0.01114608    0.00486545   -0.08372362
     atom   14 type  1   force =    -0.00850924   -0.01075012    0.01334227
     atom   15 type  1   force =     0.04145649    0.00583167   -0.00596470
     atom   16 type  1   force =     0.01294482    0.00161496    0.06049579
     atom   17 type  1   force =     0.00085456    0.04862910   -0.00888713
     atom   18 type  1   force =    -0.03548152   -0.02185072    0.03759117
     atom   19 type  1   force =     0.03943387    0.02160761    0.01614729
     atom   20 type  1   force =     0.01789247    0.01013908   -0.00243553
     atom   21 type  1   force =     0.05095467    0.06140171    0.02421667
     atom   22 type  1   force =     0.02876948    0.00626663   -0.03324137
     atom   23 type  1   force =    -0.02439817    0.02069275   -0.02397372
     atom   24 type  1   force =    -0.02610194   -0.05748615    0.05002957
     atom   25 type  1   force =     0.00988795   -0.01083947   -0.00654062
     atom   26 type  1   force =    -0.01811186   -0.00005713   -0.01111691
     atom   27 type  1   force =    -0.04111223    0.00353476    0.01040417
     atom   28 type  1   force =    -0.00231258    0.01267173    0.00925158
     atom   29 type  1   force =    -0.01014648    0.01282593   -0.01191543
     atom   30 type  1   force =     0.02506060   -0.02095885    0.01846193
     atom   31 type  1   force =    -0.01817376   -0.00492353   -0.00643580
     atom   32 type  1   force =    -0.00995925    0.04632227    0.00625712
     atom   33 type  1   force =     0.00618192   -0.02573864   -0.06504186
     atom   34 type  1   force =    -0.00318039    0.01328078    0.01423962
     atom   35 type  1   force =    -0.00711502   -0.00518095   -0.00483441
     atom   36 type  1   force =    -0.03667086   -0.01029126    0.02972441
     atom   37 type  1   force =    -0.00536874   -0.01955052    0.02135542
     atom   38 type  1   force =    -0.00645609   -0.00463618   -0.03151688
     atom   39 type  1   force =     0.01468411   -0.00300370   -0.00634392
     atom   40 type  1   force =    -0.07499477   -0.07068079    0.02542659
     atom   41 type  1   force =     0.00466970   -0.01839701   -0.01871714
     atom   42 type  1   force =    -0.00256049   -0.01281555   -0.01300162
     atom   43 type  1   force =     0.03125352   -0.00760967    0.00409971
     atom   44 type  1   force =     0.02033255    0.02539498   -0.01077661
     atom   45 type  1   force =    -0.02166632   -0.00365553   -0.00820697
     atom   46 type  1   force =     0.03087749   -0.03748362    0.01323485
     atom   47 type  1   force =    -0.00272276   -0.01462944    0.07168053
     atom   48 type  1   force =    -0.05632454    0.02045764   -0.02848094
     atom   49 type  1   force =    -0.03776593    0.02047996   -0.02215916
     atom   50 type  1   force =     0.00687841   -0.02273562    0.00443870
     atom   51 type  1   force =    -0.03304637   -0.02642059   -0.00086900
     atom   52 type  1   force =    -0.02273279    0.04919113    0.03474210
     atom   53 type  1   force =    -0.02033354    0.01987582    0.02307994
     atom   54 type  1   force =     0.06173975   -0.01074090   -0.06755494
     atom   55 type  1   force =    -0.01577565    0.04133388    0.00158930
     atom   56 type  1   force =    -0.01350499   -0.03154296    0.02661772
     atom   57 type  1   force =     0.03699356    0.03915822   -0.01996343
     atom   58 type  1   force =     0.01781555    0.01972296   -0.00845513
     atom   59 type  1   force =     0.02453141   -0.01913387    0.02794904
     atom   60 type  1   force =     0.00694711   -0.02796427    0.01390448
     atom   61 type  1   force =    -0.00327749   -0.00026866    0.00043242
     atom   62 type  1   force =     0.00587684    0.01383864    0.01923284
     atom   63 type  1   force =    -0.02399898    0.00999652    0.02937184
     atom   64 type  1   force =     0.02570051   -0.01610215   -0.03199735

     Total force =     0.385934     Total SCF correction =     0.001209


     Computing stress (Cartesian axis) and pressure

          total   stress  (Ry/bohr**3)                   (kbar)     P=      -29.42
  -0.00016428  -0.00005171  -0.00000383          -24.17       -7.61       -0.56
  -0.00005171  -0.00019442   0.00003077           -7.61      -28.60        4.53
  -0.00000383   0.00003077  -0.00024130           -0.56        4.53      -35.50

 
     init_run     :      0.92s CPU      4.09s WALL (       1 calls)
     electrons    :      3.31s CPU      3.50s WALL (       1 calls)
     forces       :      0.03s CPU      0.03s WALL (       1 calls)
     stress       :      0.12s CPU      0.12s WALL (       1 calls)

     Called by init_run:
     wfcinit      :      0.41s CPU      3.42s WALL (       1 calls)
                                        3.42s GPU  (       1 calls)
     potinit      :      0.04s CPU      0.12s WALL (       1 calls)
     hinit0       :      0.46s CPU      0.48s WALL (       1 calls)

     Called by electrons:
     c_bands      :      2.43s CPU      2.52s WALL (      31 calls)
     sum_band     :      0.41s CPU      0.48s WALL (      31 calls)
     v_of_rho     :      0.18s CPU      0.27s WALL (      31 calls)
     mix_rho      :      0.24s CPU      0.25s WALL (      31 calls)

     Called by c_bands:
     init_us_2    :      0.08s CPU      0.08s WALL (      63 calls)
     init_us_2:gp :      0.07s CPU      0.08s WALL (      63 calls)
     regterg      :      2.22s CPU      2.30s WALL (      31 calls)

     Called by *egterg:
     rdiaghg      :      1.18s CPU      1.80s WALL (     356 calls)
                                        1.75s GPU  (     356 calls)
     h_psi        :      1.13s CPU      3.59s WALL (     358 calls)
                                        3.59s GPU  (     358 calls)
     g_psi        :      0.00s CPU      0.01s WALL (     326 calls)
                                        0.01s GPU  (     326 calls)

     Called by h_psi:
     h_psi:calbec :      0.45s CPU      2.82s WALL (     358 calls)
                                        2.82s GPU  (     358 calls)
     vloc_psi     :      0.50s CPU      0.58s WALL (     358 calls)
                                        0.57s GPU  (     358 calls)
     add_vuspsi   :      0.14s CPU      0.17s WALL (     358 calls)
                                        0.17s GPU  (     358 calls)

     General routines
     calbec       :      0.45s CPU      2.82s WALL (     363 calls)
     fft          :      0.59s CPU      0.71s WALL (     255 calls)
                                        0.12s GPU  (     161 calls)
     ffts         :      0.04s CPU      0.05s WALL (      31 calls)
     fftw         :      0.58s CPU      0.77s WALL (    3132 calls)
                                        0.67s GPU  (    3132 calls)
 
     Parallel routines
 
     PWSCF        :      4.41s CPU      7.81s WALL

 
   This run was terminated on:  15: 8: 7   9May2023            

=------------------------------------------------------------------------------=
   JOB DONE.
=------------------------------------------------------------------------------=
