An instance of this daemon is already running

     Program PWSCF v.7.1 starts on  9May2023 at 15:25:53 

     This program is part of the open-source Quantum ESPRESSO suite
     for quantum simulation of materials; please cite
         "P. Giannozzi et al., J. Phys.:Condens. Matter 21 395502 (2009);
         "P. Giannozzi et al., J. Phys.:Condens. Matter 29 465901 (2017);
         "P. Giannozzi et al., J. Chem. Phys. 152 154105 (2020);
          URL http://www.quantum-espresso.org", 
     in publications or presentations arising from this work. More details at
     http://www.quantum-espresso.org/quote

     Parallel version (MPI & OpenMP), running on       4 processor cores
     Number of MPI processes:                 4
     Threads/MPI process:                     1

     MPI processes distributed on     1 nodes
     42789 MiB available memory on the printing compute node when the environment starts
 
     Reading input from pw-si-100.in
Warning: card &CELL ignored
Warning: card / ignored

     Current dimensions of program PWSCF are:
     Max number of different atomic species (ntypx) = 10
     Max number of k-points (npk) =  40000
     Max angular momentum in pseudopotentials (lmaxx) =  4

     IMPORTANT: XC functional enforced from input :
     Exchange-correlation= PBE
                           (   1   4   3   4   0   0   0)
     Any further DFT definition will be discarded
     Please, verify this is what you really want


     gamma-point specific algorithms are used
 
     K-points division:     npool     =       2
     R & G space division:  proc/nbgrp/npool/nimage =       2
     Subspace diagonalization in iterative solution of the eigenvalue problem:
     a serial algorithm will be used

     Message from routine divide_et_impera:
     suboptimal parallelization: some nodes have no k-points
 
     Parallelization info
     --------------------
     sticks:   dense  smooth     PW     G-vecs:    dense   smooth      PW
     Min        1954    1954    520                92054    92054   12584
     Max        1955    1955    521                92061    92061   12589
     Sum        3909    3909   1041               184115   184115   25173
 
     Using Slab Decomposition
 


     bravais-lattice index     =            0
     lattice parameter (alat)  =      20.2414  a.u.
     unit-cell volume          =    8293.1999 (a.u.)^3
     number of atoms/cell      =           64
     number of atomic types    =            1
     number of electrons       =       256.00
     number of Kohn-Sham states=          128
     kinetic-energy cutoff     =      30.0000  Ry
     charge density cutoff     =     120.0000  Ry
     scf convergence threshold =      1.0E-06
     mixing beta               =       0.5000
     number of iterations used =            8  plain     mixing
     Exchange-correlation= PBE
                           (   1   4   3   4   0   0   0)

     GPU acceleration is ACTIVE.
     GPU-aware MPI enabled

     Message from routine print_cuda_info:
     High GPU oversubscription detected. Are you sure this is what you want?

     celldm(1)=  20.241408  celldm(2)=   0.000000  celldm(3)=   0.000000
     celldm(4)=   0.000000  celldm(5)=   0.000000  celldm(6)=   0.000000

     crystal axes: (cart. coord. in units of alat)
               a(1) = (   1.000000   0.000000   0.000000 )  
               a(2) = (   0.000000   1.000000   0.000000 )  
               a(3) = (   0.000000   0.000000   1.000000 )  

     reciprocal axes: (cart. coord. in units 2 pi/alat)
               b(1) = (  1.000000  0.000000  0.000000 )  
               b(2) = (  0.000000  1.000000  0.000000 )  
               b(3) = (  0.000000  0.000000  1.000000 )  


     PseudoPot. # 1 for Si read from file:
     /home/ppiaggi/pseudos/Si_ONCV_PBE_sr.upf
     MD5 check sum: 8553c464762ac42b85b1eed164b4d029
     Pseudo is Norm-conserving, Zval =  4.0
     Generated using ONCVPSP code by D. R. Hamann
     Using radial grid of 1510 points,  4 beta functions with: 
                l(1) =   0
                l(2) =   0
                l(3) =   1
                l(4) =   1

     atomic species   valence    mass     pseudopotential
        Si             4.00    28.08500     Si( 1.00)

     No symmetry found



   Cartesian axes

     site n.     atom                  positions (alat units)
         1           Si  tau(   1) = (   0.6379230   0.0344051   0.7753930  )
         2           Si  tau(   2) = (   0.7995570   0.8335970   0.5474630  )
         3           Si  tau(   3) = (   0.9843620   0.7698900   0.4215740  )
         4           Si  tau(   4) = (   0.8474450   0.5622030   0.4471380  )
         5           Si  tau(   5) = (   0.1840810   0.1070190   0.1182210  )
         6           Si  tau(   6) = (   0.4896110   0.8149430   0.9572750  )
         7           Si  tau(   7) = (   0.3799010   0.8387530   0.3007540  )
         8           Si  tau(   8) = (   0.4789330   0.3237360   0.1226790  )
         9           Si  tau(   9) = (   0.3676130   0.1045370   0.8616050  )
        10           Si  tau(  10) = (   0.9436440   0.9275370   0.8297620  )
        11           Si  tau(  11) = (   0.9962060   0.7144360   0.7791290  )
        12           Si  tau(  12) = (   0.9336640   0.7229090   0.2058000  )
        13           Si  tau(  13) = (   0.6909250   0.0642206   0.9735450  )
        14           Si  tau(  14) = (   0.9642280   0.1756210   0.5268220  )
        15           Si  tau(  15) = (   0.8147520   0.4317840   0.7421600  )
        16           Si  tau(  16) = (   0.2503330   0.9538810   0.4967080  )
        17           Si  tau(  17) = (   0.3651360   0.0720181   0.2542950  )
        18           Si  tau(  18) = (   0.8609510   0.4732600   0.2482740  )
        19           Si  tau(  19) = (   0.4532410   0.9014830   0.7422840  )
        20           Si  tau(  20) = (   0.6884080   0.3563150   0.0701533  )
        21           Si  tau(  21) = (   0.4832320   0.0106735   0.5488390  )
        22           Si  tau(  22) = (   0.8975790   0.1808860   0.8272630  )
        23           Si  tau(  23) = (   0.1954960   0.7756670   0.1795440  )
        24           Si  tau(  24) = (   0.2099890   0.1622160   0.5719160  )
        25           Si  tau(  25) = (   0.3930280   0.4823410   0.2854680  )
        26           Si  tau(  26) = (   0.0630178   0.4816160   0.4966100  )
        27           Si  tau(  27) = (   0.9883990   0.9783870   0.0585935  )
        28           Si  tau(  28) = (   0.6355560   0.9363430   0.4107960  )
        29           Si  tau(  29) = (   0.4935070   0.0526227   0.0702075  )
        30           Si  tau(  30) = (   0.8428920   0.0295241   0.6405750  )
        31           Si  tau(  31) = (   0.4642500   0.4084540   0.8871470  )
        32           Si  tau(  32) = (   0.2942970   0.3502050   0.4458160  )
        33           Si  tau(  33) = (   0.2462470   0.8547970   0.7279500  )
        34           Si  tau(  34) = (   0.6495010   0.2951200   0.8388130  )
        35           Si  tau(  35) = (   0.9422330   0.5307480   0.9209680  )
        36           Si  tau(  36) = (   0.5868400   0.6193570   0.9271120  )
        37           Si  tau(  37) = (   0.4479720   0.2117390   0.6512660  )
        38           Si  tau(  38) = (   0.7514170   0.8281190   0.9402280  )
        39           Si  tau(  39) = (   0.7926430   0.3424630   0.5287500  )
        40           Si  tau(  40) = (   0.9858520   0.1720160   0.3169910  )
        41           Si  tau(  41) = (   0.0810387   0.9606780   0.3162010  )
        42           Si  tau(  42) = (   0.8762810   0.2105680   0.0624430  )
        43           Si  tau(  43) = (   0.2587000   0.2636280   0.9957830  )
        44           Si  tau(  44) = (   0.0762242   0.3855200   0.0644551  )
        45           Si  tau(  45) = (   0.2223830   0.5383080   0.1536300  )
        46           Si  tau(  46) = (   0.3694550   0.6496800   0.4558490  )
        47           Si  tau(  47) = (   0.7737800   0.5767630   0.0471629  )
        48           Si  tau(  48) = (   0.0438777   0.3627080   0.6902630  )
        49           Si  tau(  49) = (   0.7628710   0.0739891   0.2672810  )
        50           Si  tau(  50) = (   0.6211970   0.6896520   0.4609860  )
        51           Si  tau(  51) = (   0.1912530   0.5346870   0.7706380  )
        52           Si  tau(  52) = (   0.0643079   0.3692350   0.3151380  )
        53           Si  tau(  53) = (   0.4675120   0.2181620   0.3966530  )
        54           Si  tau(  54) = (   0.2075520   0.9058130   0.9569680  )
        55           Si  tau(  55) = (   0.6783950   0.2910900   0.3366780  )
        56           Si  tau(  56) = (   0.1386120   0.1738560   0.8007070  )
        57           Si  tau(  57) = (   0.5674490   0.7901210   0.1804590  )
        58           Si  tau(  58) = (   0.5161270   0.6805180   0.6985700  )
        59           Si  tau(  59) = (   0.3890190   0.4689480   0.6623730  )
        60           Si  tau(  60) = (   0.7633250   0.6688240   0.7201910  )
        61           Si  tau(  61) = (   0.3024750   0.6263190   0.9564440  )
        62           Si  tau(  62) = (   0.1502160   0.6771930   0.5774410  )
        63           Si  tau(  63) = (   0.8030030   0.8780950   0.1681130  )
        64           Si  tau(  64) = (   0.6123130   0.5787200   0.2675770  )

     number of k points=     1
                       cart. coord. in units 2pi/alat
        k(    1) = (   0.0000000   0.0000000   0.0000000), wk =   2.0000000

     Dense  grid:    92058 G-vectors     FFT dimensions: (  72,  72,  72)

     Estimated max dynamical RAM per process >     135.33 MB

     Estimated total dynamical RAM >     518.85 MB

     Initial potential from superposition of free atoms

     starting charge     255.9608, renormalised to     256.0000
     Starting wfcs are  256 randomized atomic wfcs

     total cpu time spent up to now is        4.0 secs

     Self-consistent Calculation

     iteration #  1     ecut=    30.00 Ry     beta= 0.50
     Davidson diagonalization with overlap
     ethr =  1.00E-02,  avg # of iterations =  2.0

     Threshold (ethr) on eigenvalues was too large:
     Diagonalizing with lowered threshold

     Davidson diagonalization with overlap
     ethr =  3.38E-04,  avg # of iterations =  6.0

     total cpu time spent up to now is        4.2 secs

     total energy              =    -501.31175693 Ry
     estimated scf accuracy    <       1.11289342 Ry

     iteration #  2     ecut=    30.00 Ry     beta= 0.50
     Davidson diagonalization with overlap
     ethr =  4.35E-04,  avg # of iterations =  4.0

     total cpu time spent up to now is        4.3 secs

     total energy              =    -501.29022025 Ry
     estimated scf accuracy    <       1.02433763 Ry

     iteration #  3     ecut=    30.00 Ry     beta= 0.50
     Davidson diagonalization with overlap
     ethr =  4.00E-04,  avg # of iterations =  7.0

     total cpu time spent up to now is        4.4 secs

     total energy              =    -501.36314538 Ry
     estimated scf accuracy    <       1.05452729 Ry

     iteration #  4     ecut=    30.00 Ry     beta= 0.50
     Davidson diagonalization with overlap
     ethr =  4.00E-04,  avg # of iterations =  8.0

     total cpu time spent up to now is        4.5 secs

     total energy              =    -501.46895519 Ry
     estimated scf accuracy    <       0.29332148 Ry

     iteration #  5     ecut=    30.00 Ry     beta= 0.50
     Davidson diagonalization with overlap
     ethr =  1.15E-04,  avg # of iterations =  7.0

     total cpu time spent up to now is        4.6 secs

     total energy              =    -501.49941144 Ry
     estimated scf accuracy    <       0.06377017 Ry

     iteration #  6     ecut=    30.00 Ry     beta= 0.50
     Davidson diagonalization with overlap
     c_bands:  1 eigenvalues not converged
     ethr =  2.49E-05,  avg # of iterations = 20.0

     total cpu time spent up to now is        4.8 secs

     total energy              =    -501.50474517 Ry
     estimated scf accuracy    <       0.15471203 Ry

     iteration #  7     ecut=    30.00 Ry     beta= 0.50
     Davidson diagonalization with overlap
     ethr =  2.49E-05,  avg # of iterations = 20.0

     total cpu time spent up to now is        4.9 secs

     total energy              =    -501.51101759 Ry
     estimated scf accuracy    <       0.03886650 Ry

     iteration #  8     ecut=    30.00 Ry     beta= 0.50
     Davidson diagonalization with overlap
     ethr =  1.52E-05,  avg # of iterations =  3.0

     total cpu time spent up to now is        5.0 secs

     total energy              =    -501.51098604 Ry
     estimated scf accuracy    <       0.01771585 Ry

     iteration #  9     ecut=    30.00 Ry     beta= 0.50
     Davidson diagonalization with overlap
     c_bands:  1 eigenvalues not converged
     ethr =  6.92E-06,  avg # of iterations = 20.0

     total cpu time spent up to now is        5.2 secs

     total energy              =    -501.51221131 Ry
     estimated scf accuracy    <       0.01956088 Ry

     iteration # 10     ecut=    30.00 Ry     beta= 0.50
     Davidson diagonalization with overlap
     ethr =  6.92E-06,  avg # of iterations = 20.0

     total cpu time spent up to now is        5.3 secs

     total energy              =    -501.51496542 Ry
     estimated scf accuracy    <       0.01441228 Ry

     iteration # 11     ecut=    30.00 Ry     beta= 0.50
     Davidson diagonalization with overlap
     ethr =  5.63E-06,  avg # of iterations =  3.0

     total cpu time spent up to now is        5.4 secs

     total energy              =    -501.51445499 Ry
     estimated scf accuracy    <       0.01039206 Ry

     iteration # 12     ecut=    30.00 Ry     beta= 0.50
     Davidson diagonalization with overlap
     ethr =  4.06E-06,  avg # of iterations = 13.0

     total cpu time spent up to now is        5.5 secs

     total energy              =    -501.51444971 Ry
     estimated scf accuracy    <       0.00677805 Ry

     iteration # 13     ecut=    30.00 Ry     beta= 0.50
     Davidson diagonalization with overlap
     ethr =  2.65E-06,  avg # of iterations =  6.0

     total cpu time spent up to now is        5.6 secs

     total energy              =    -501.51444546 Ry
     estimated scf accuracy    <       0.00424487 Ry

     iteration # 14     ecut=    30.00 Ry     beta= 0.50
     Davidson diagonalization with overlap
     ethr =  1.66E-06,  avg # of iterations =  2.0

     total cpu time spent up to now is        5.7 secs

     total energy              =    -501.51412039 Ry
     estimated scf accuracy    <       0.00278105 Ry

     iteration # 15     ecut=    30.00 Ry     beta= 0.50
     Davidson diagonalization with overlap
     ethr =  1.09E-06,  avg # of iterations =  8.0

     total cpu time spent up to now is        5.8 secs

     total energy              =    -501.51434030 Ry
     estimated scf accuracy    <       0.00072732 Ry

     iteration # 16     ecut=    30.00 Ry     beta= 0.50
     Davidson diagonalization with overlap
     c_bands:  1 eigenvalues not converged
     ethr =  2.84E-07,  avg # of iterations = 20.0

     total cpu time spent up to now is        5.9 secs

     total energy              =    -501.51776403 Ry
     estimated scf accuracy    <       0.04684827 Ry

     iteration # 17     ecut=    30.00 Ry     beta= 0.50
     Davidson diagonalization with overlap
     ethr =  2.84E-07,  avg # of iterations = 20.0

     total cpu time spent up to now is        6.1 secs

     total energy              =    -501.51783707 Ry
     estimated scf accuracy    <       0.04195115 Ry

     iteration # 18     ecut=    30.00 Ry     beta= 0.50
     Davidson diagonalization with overlap
     ethr =  2.84E-07,  avg # of iterations =  2.0

     total cpu time spent up to now is        6.2 secs

     total energy              =    -501.51633098 Ry
     estimated scf accuracy    <       0.04034660 Ry

     iteration # 19     ecut=    30.00 Ry     beta= 0.50
     Davidson diagonalization with overlap
     ethr =  2.84E-07,  avg # of iterations = 10.0

     total cpu time spent up to now is        6.3 secs

     total energy              =    -501.51596313 Ry
     estimated scf accuracy    <       0.03208055 Ry

     iteration # 20     ecut=    30.00 Ry     beta= 0.50
     Davidson diagonalization with overlap
     ethr =  2.84E-07,  avg # of iterations =  3.0

     total cpu time spent up to now is        6.4 secs

     total energy              =    -501.51593555 Ry
     estimated scf accuracy    <       0.02888944 Ry

     iteration # 21     ecut=    30.00 Ry     beta= 0.50
     Davidson diagonalization with overlap
     ethr =  2.84E-07,  avg # of iterations =  8.0

     total cpu time spent up to now is        6.5 secs

     total energy              =    -501.51578674 Ry
     estimated scf accuracy    <       0.02670436 Ry

     iteration # 22     ecut=    30.00 Ry     beta= 0.50
     Davidson diagonalization with overlap
     ethr =  2.84E-07,  avg # of iterations =  2.0

     total cpu time spent up to now is        6.5 secs

     total energy              =    -501.51551238 Ry
     estimated scf accuracy    <       0.02581884 Ry

     iteration # 23     ecut=    30.00 Ry     beta= 0.50
     Davidson diagonalization with overlap
     ethr =  2.84E-07,  avg # of iterations =  1.0

     total cpu time spent up to now is        6.6 secs

     total energy              =    -501.51480615 Ry
     estimated scf accuracy    <       0.02458569 Ry

     iteration # 24     ecut=    30.00 Ry     beta= 0.50
     Davidson diagonalization with overlap
     ethr =  2.84E-07,  avg # of iterations =  2.0

     total cpu time spent up to now is        6.7 secs

     total energy              =    -501.50907105 Ry
     estimated scf accuracy    <       0.02116366 Ry

     iteration # 25     ecut=    30.00 Ry     beta= 0.50
     Davidson diagonalization with overlap
     c_bands:  1 eigenvalues not converged
     ethr =  2.84E-07,  avg # of iterations = 20.0

     total cpu time spent up to now is        6.9 secs

     total energy              =    -501.51495716 Ry
     estimated scf accuracy    <       0.06024586 Ry

     iteration # 26     ecut=    30.00 Ry     beta= 0.50
     Davidson diagonalization with overlap
     ethr =  2.84E-07,  avg # of iterations = 19.0

     total cpu time spent up to now is        7.1 secs

     total energy              =    -501.51615520 Ry
     estimated scf accuracy    <       0.01591177 Ry

     iteration # 27     ecut=    30.00 Ry     beta= 0.50
     Davidson diagonalization with overlap
     ethr =  2.84E-07,  avg # of iterations = 10.0

     total cpu time spent up to now is        7.2 secs

     total energy              =    -501.51567311 Ry
     estimated scf accuracy    <       0.01277375 Ry

     iteration # 28     ecut=    30.00 Ry     beta= 0.50
     Davidson diagonalization with overlap
     ethr =  2.84E-07,  avg # of iterations =  7.0

     total cpu time spent up to now is        7.3 secs

     total energy              =    -501.51532217 Ry
     estimated scf accuracy    <       0.00987105 Ry

     iteration # 29     ecut=    30.00 Ry     beta= 0.50
     Davidson diagonalization with overlap
     ethr =  2.84E-07,  avg # of iterations =  7.0

     total cpu time spent up to now is        7.4 secs

     total energy              =    -501.51512865 Ry
     estimated scf accuracy    <       0.00740301 Ry

     iteration # 30     ecut=    30.00 Ry     beta= 0.50
     Davidson diagonalization with overlap
     ethr =  2.84E-07,  avg # of iterations =  2.0

     total cpu time spent up to now is        7.5 secs

     total energy              =    -501.51497715 Ry
     estimated scf accuracy    <       0.00579132 Ry

     iteration # 31     ecut=    30.00 Ry     beta= 0.50
     Davidson diagonalization with overlap
     ethr =  2.84E-07,  avg # of iterations =  2.0

     total cpu time spent up to now is        7.5 secs

     total energy              =    -501.51483647 Ry
     estimated scf accuracy    <       0.00470655 Ry

     iteration # 32     ecut=    30.00 Ry     beta= 0.50
     Davidson diagonalization with overlap
     ethr =  2.84E-07,  avg # of iterations =  1.0

     total cpu time spent up to now is        7.6 secs

     total energy              =    -501.51459924 Ry
     estimated scf accuracy    <       0.00390958 Ry

     iteration # 33     ecut=    30.00 Ry     beta= 0.50
     Davidson diagonalization with overlap
     ethr =  2.84E-07,  avg # of iterations =  2.0

     total cpu time spent up to now is        7.7 secs

     total energy              =    -501.51392401 Ry
     estimated scf accuracy    <       0.00263272 Ry

     iteration # 34     ecut=    30.00 Ry     beta= 0.50
     Davidson diagonalization with overlap
     c_bands:  1 eigenvalues not converged
     ethr =  2.84E-07,  avg # of iterations = 20.0

     total cpu time spent up to now is        7.9 secs

     total energy              =    -501.51703839 Ry
     estimated scf accuracy    <       0.05129693 Ry

     iteration # 35     ecut=    30.00 Ry     beta= 0.50
     Davidson diagonalization with overlap
     ethr =  2.84E-07,  avg # of iterations = 10.0

     total cpu time spent up to now is        8.0 secs

     total energy              =    -501.51637009 Ry
     estimated scf accuracy    <       0.03789596 Ry

     iteration # 36     ecut=    30.00 Ry     beta= 0.50
     Davidson diagonalization with overlap
     ethr =  2.84E-07,  avg # of iterations =  2.0

     total cpu time spent up to now is        8.1 secs

     total energy              =    -501.51595630 Ry
     estimated scf accuracy    <       0.03285929 Ry

     iteration # 37     ecut=    30.00 Ry     beta= 0.50
     Davidson diagonalization with overlap
     ethr =  2.84E-07,  avg # of iterations =  2.0

     total cpu time spent up to now is        8.1 secs

     total energy              =    -501.51646191 Ry
     estimated scf accuracy    <       0.03012448 Ry

     iteration # 38     ecut=    30.00 Ry     beta= 0.50
     Davidson diagonalization with overlap
     ethr =  2.84E-07,  avg # of iterations =  1.0

     total cpu time spent up to now is        8.2 secs

     total energy              =    -501.51645788 Ry
     estimated scf accuracy    <       0.03088094 Ry

     iteration # 39     ecut=    30.00 Ry     beta= 0.50
     Davidson diagonalization with overlap
     ethr =  2.84E-07,  avg # of iterations =  1.0

     total cpu time spent up to now is        8.3 secs

     total energy              =    -501.51688646 Ry
     estimated scf accuracy    <       0.03051202 Ry

     iteration # 40     ecut=    30.00 Ry     beta= 0.50
     Davidson diagonalization with overlap
     ethr =  2.84E-07,  avg # of iterations =  1.0

     total cpu time spent up to now is        8.3 secs

     total energy              =    -501.51694591 Ry
     estimated scf accuracy    <       0.03183069 Ry

     iteration # 41     ecut=    30.00 Ry     beta= 0.50
     Davidson diagonalization with overlap
     ethr =  2.84E-07,  avg # of iterations =  1.0

     total cpu time spent up to now is        8.4 secs

     total energy              =    -501.51686450 Ry
     estimated scf accuracy    <       0.03212067 Ry

     iteration # 42     ecut=    30.00 Ry     beta= 0.50
     Davidson diagonalization with overlap
     ethr =  2.84E-07,  avg # of iterations =  1.0

     total cpu time spent up to now is        8.5 secs

     total energy              =    -501.50766525 Ry
     estimated scf accuracy    <       0.03197646 Ry

     iteration # 43     ecut=    30.00 Ry     beta= 0.50
     Davidson diagonalization with overlap
     c_bands:  1 eigenvalues not converged
     ethr =  2.84E-07,  avg # of iterations = 20.0

     total cpu time spent up to now is        8.7 secs

     total energy              =    -501.52111885 Ry
     estimated scf accuracy    <       0.04852348 Ry

     iteration # 44     ecut=    30.00 Ry     beta= 0.50
     Davidson diagonalization with overlap
     c_bands:  1 eigenvalues not converged
     ethr =  2.84E-07,  avg # of iterations = 20.0

     total cpu time spent up to now is        8.8 secs

     total energy              =    -501.51982165 Ry
     estimated scf accuracy    <       0.06680634 Ry

     iteration # 45     ecut=    30.00 Ry     beta= 0.50
     Davidson diagonalization with overlap
     ethr =  2.84E-07,  avg # of iterations = 11.0

     total cpu time spent up to now is        9.0 secs

     total energy              =    -501.51833368 Ry
     estimated scf accuracy    <       0.04558804 Ry

     iteration # 46     ecut=    30.00 Ry     beta= 0.50
     Davidson diagonalization with overlap
     ethr =  2.84E-07,  avg # of iterations =  4.0

     total cpu time spent up to now is        9.1 secs

     total energy              =    -501.51590717 Ry
     estimated scf accuracy    <       0.03360544 Ry

     iteration # 47     ecut=    30.00 Ry     beta= 0.50
     Davidson diagonalization with overlap
     ethr =  2.84E-07,  avg # of iterations = 10.0

     total cpu time spent up to now is        9.2 secs

     total energy              =    -501.51587384 Ry
     estimated scf accuracy    <       0.01317275 Ry

     iteration # 48     ecut=    30.00 Ry     beta= 0.50
     Davidson diagonalization with overlap
     ethr =  2.84E-07,  avg # of iterations =  2.0

     total cpu time spent up to now is        9.3 secs

     total energy              =    -501.51501622 Ry
     estimated scf accuracy    <       0.01083527 Ry

     iteration # 49     ecut=    30.00 Ry     beta= 0.50
     Davidson diagonalization with overlap
     ethr =  2.84E-07,  avg # of iterations = 10.0

     total cpu time spent up to now is        9.4 secs

     total energy              =    -501.51494403 Ry
     estimated scf accuracy    <       0.00588453 Ry

     iteration # 50     ecut=    30.00 Ry     beta= 0.50
     Davidson diagonalization with overlap
     ethr =  2.84E-07,  avg # of iterations =  2.0

     total cpu time spent up to now is        9.4 secs

     total energy              =    -501.51490449 Ry
     estimated scf accuracy    <       0.00469460 Ry

     iteration # 51     ecut=    30.00 Ry     beta= 0.50
     Davidson diagonalization with overlap
     ethr =  2.84E-07,  avg # of iterations =  1.0

     total cpu time spent up to now is        9.5 secs

     total energy              =    -501.51386601 Ry
     estimated scf accuracy    <       0.00426262 Ry

     iteration # 52     ecut=    30.00 Ry     beta= 0.50
     Davidson diagonalization with overlap
     c_bands:  1 eigenvalues not converged
     ethr =  2.84E-07,  avg # of iterations = 20.0

     total cpu time spent up to now is        9.7 secs

     total energy              =    -501.51735152 Ry
     estimated scf accuracy    <       0.04547611 Ry

     iteration # 53     ecut=    30.00 Ry     beta= 0.50
     Davidson diagonalization with overlap
     ethr =  2.84E-07,  avg # of iterations = 17.0

     total cpu time spent up to now is        9.8 secs

     total energy              =    -501.51625721 Ry
     estimated scf accuracy    <       0.03789701 Ry

     iteration # 54     ecut=    30.00 Ry     beta= 0.50
     Davidson diagonalization with overlap
     ethr =  2.84E-07,  avg # of iterations =  9.0

     total cpu time spent up to now is       10.0 secs

     total energy              =    -501.51581252 Ry
     estimated scf accuracy    <       0.03033709 Ry

     iteration # 55     ecut=    30.00 Ry     beta= 0.50
     Davidson diagonalization with overlap
     ethr =  2.84E-07,  avg # of iterations =  2.0

     total cpu time spent up to now is       10.0 secs

     total energy              =    -501.51564697 Ry
     estimated scf accuracy    <       0.02738752 Ry

     iteration # 56     ecut=    30.00 Ry     beta= 0.50
     Davidson diagonalization with overlap
     ethr =  2.84E-07,  avg # of iterations =  1.0

     total cpu time spent up to now is       10.1 secs

     total energy              =    -501.51529485 Ry
     estimated scf accuracy    <       0.02627585 Ry

     iteration # 57     ecut=    30.00 Ry     beta= 0.50
     Davidson diagonalization with overlap
     ethr =  2.84E-07,  avg # of iterations =  2.0

     total cpu time spent up to now is       10.2 secs

     total energy              =    -501.51551000 Ry
     estimated scf accuracy    <       0.02393442 Ry

     iteration # 58     ecut=    30.00 Ry     beta= 0.50
     Davidson diagonalization with overlap
     ethr =  2.84E-07,  avg # of iterations =  1.0

     total cpu time spent up to now is       10.2 secs

     total energy              =    -501.51565562 Ry
     estimated scf accuracy    <       0.02413978 Ry

     iteration # 59     ecut=    30.00 Ry     beta= 0.50
     Davidson diagonalization with overlap
     ethr =  2.84E-07,  avg # of iterations =  1.0

     total cpu time spent up to now is       10.3 secs

     total energy              =    -501.51574628 Ry
     estimated scf accuracy    <       0.02439348 Ry

     iteration # 60     ecut=    30.00 Ry     beta= 0.50
     Davidson diagonalization with overlap
     ethr =  2.84E-07,  avg # of iterations =  1.0

     total cpu time spent up to now is       10.4 secs

     total energy              =    -501.50804800 Ry
     estimated scf accuracy    <       0.02462510 Ry

     iteration # 61     ecut=    30.00 Ry     beta= 0.50
     Davidson diagonalization with overlap
     c_bands:  2 eigenvalues not converged
     ethr =  2.84E-07,  avg # of iterations = 20.0

     total cpu time spent up to now is       10.6 secs

     total energy              =    -501.52030866 Ry
     estimated scf accuracy    <       0.06190926 Ry

     iteration # 62     ecut=    30.00 Ry     beta= 0.50
     Davidson diagonalization with overlap
     c_bands:  1 eigenvalues not converged
     ethr =  2.84E-07,  avg # of iterations = 20.0

     total cpu time spent up to now is       10.7 secs

     total energy              =    -501.51986092 Ry
     estimated scf accuracy    <       0.05895209 Ry

     iteration # 63     ecut=    30.00 Ry     beta= 0.50
     Davidson diagonalization with overlap
     ethr =  2.84E-07,  avg # of iterations = 17.0

     total cpu time spent up to now is       10.9 secs

     total energy              =    -501.51801414 Ry
     estimated scf accuracy    <       0.04240098 Ry

     iteration # 64     ecut=    30.00 Ry     beta= 0.50
     Davidson diagonalization with overlap
     ethr =  2.84E-07,  avg # of iterations =  8.0

     total cpu time spent up to now is       11.0 secs

     total energy              =    -501.51739320 Ry
     estimated scf accuracy    <       0.02801865 Ry

     iteration # 65     ecut=    30.00 Ry     beta= 0.50
     Davidson diagonalization with overlap
     ethr =  2.84E-07,  avg # of iterations =  2.0

     total cpu time spent up to now is       11.1 secs

     total energy              =    -501.51705603 Ry
     estimated scf accuracy    <       0.02354422 Ry

     iteration # 66     ecut=    30.00 Ry     beta= 0.50
     Davidson diagonalization with overlap
     ethr =  2.84E-07,  avg # of iterations =  1.0

     total cpu time spent up to now is       11.1 secs

     total energy              =    -501.51666768 Ry
     estimated scf accuracy    <       0.02132481 Ry

     iteration # 67     ecut=    30.00 Ry     beta= 0.50
     Davidson diagonalization with overlap
     ethr =  2.84E-07,  avg # of iterations =  2.0

     total cpu time spent up to now is       11.2 secs

     total energy              =    -501.51710194 Ry
     estimated scf accuracy    <       0.01926020 Ry

     iteration # 68     ecut=    30.00 Ry     beta= 0.50
     Davidson diagonalization with overlap
     ethr =  2.84E-07,  avg # of iterations =  1.0

     total cpu time spent up to now is       11.3 secs

     total energy              =    -501.51503703 Ry
     estimated scf accuracy    <       0.01965131 Ry

     iteration # 69     ecut=    30.00 Ry     beta= 0.50
     Davidson diagonalization with overlap
     ethr =  2.84E-07,  avg # of iterations = 12.0

     total cpu time spent up to now is       11.4 secs

     total energy              =    -501.51340357 Ry
     estimated scf accuracy    <       0.00634517 Ry

     iteration # 70     ecut=    30.00 Ry     beta= 0.50
     Davidson diagonalization with overlap
     c_bands:  1 eigenvalues not converged
     ethr =  2.84E-07,  avg # of iterations = 20.0

     total cpu time spent up to now is       11.6 secs

     total energy              =    -501.51684207 Ry
     estimated scf accuracy    <       0.05777157 Ry

     iteration # 71     ecut=    30.00 Ry     beta= 0.50
     Davidson diagonalization with overlap
     c_bands:  1 eigenvalues not converged
     ethr =  2.84E-07,  avg # of iterations = 20.0

     total cpu time spent up to now is       11.8 secs

     total energy              =    -501.51508764 Ry
     estimated scf accuracy    <       0.04715070 Ry

     iteration # 72     ecut=    30.00 Ry     beta= 0.50
     Davidson diagonalization with overlap
     c_bands:  1 eigenvalues not converged
     ethr =  2.84E-07,  avg # of iterations = 20.0

     total cpu time spent up to now is       12.0 secs

     total energy              =    -501.51377326 Ry
     estimated scf accuracy    <       0.02411288 Ry

     iteration # 73     ecut=    30.00 Ry     beta= 0.50
     Davidson diagonalization with overlap
     ethr =  2.84E-07,  avg # of iterations =  5.0

     total cpu time spent up to now is       12.0 secs

     total energy              =    -501.51411957 Ry
     estimated scf accuracy    <       0.01436419 Ry

     iteration # 74     ecut=    30.00 Ry     beta= 0.50
     Davidson diagonalization with overlap
     ethr =  2.84E-07,  avg # of iterations =  2.0

     total cpu time spent up to now is       12.1 secs

     total energy              =    -501.51414947 Ry
     estimated scf accuracy    <       0.01383714 Ry

     iteration # 75     ecut=    30.00 Ry     beta= 0.50
     Davidson diagonalization with overlap
     ethr =  2.84E-07,  avg # of iterations =  1.0

     total cpu time spent up to now is       12.2 secs

     total energy              =    -501.51402258 Ry
     estimated scf accuracy    <       0.01368438 Ry

     iteration # 76     ecut=    30.00 Ry     beta= 0.50
     Davidson diagonalization with overlap
     ethr =  2.84E-07,  avg # of iterations =  1.0

     total cpu time spent up to now is       12.3 secs

     total energy              =    -501.51377832 Ry
     estimated scf accuracy    <       0.01304703 Ry

     iteration # 77     ecut=    30.00 Ry     beta= 0.50
     Davidson diagonalization with overlap
     ethr =  2.84E-07,  avg # of iterations =  1.0

     total cpu time spent up to now is       12.3 secs

     total energy              =    -501.51272193 Ry
     estimated scf accuracy    <       0.01189366 Ry

     iteration # 78     ecut=    30.00 Ry     beta= 0.50
     Davidson diagonalization with overlap
     c_bands:  1 eigenvalues not converged
     ethr =  2.84E-07,  avg # of iterations = 20.0

     total cpu time spent up to now is       12.5 secs

     total energy              =    -501.51976206 Ry
     estimated scf accuracy    <       0.01778793 Ry

     iteration # 79     ecut=    30.00 Ry     beta= 0.50
     Davidson diagonalization with overlap
     ethr =  2.84E-07,  avg # of iterations = 17.0

     total cpu time spent up to now is       12.7 secs

     total energy              =    -501.51828642 Ry
     estimated scf accuracy    <       0.03161242 Ry

     iteration # 80     ecut=    30.00 Ry     beta= 0.50
     Davidson diagonalization with overlap
     ethr =  2.84E-07,  avg # of iterations =  3.0

     total cpu time spent up to now is       12.7 secs

     total energy              =    -501.51579820 Ry
     estimated scf accuracy    <       0.02521478 Ry

     iteration # 81     ecut=    30.00 Ry     beta= 0.50
     Davidson diagonalization with overlap
     c_bands:  1 eigenvalues not converged
     ethr =  2.84E-07,  avg # of iterations = 20.0

     total cpu time spent up to now is       12.9 secs

     total energy              =    -501.51631158 Ry
     estimated scf accuracy    <       0.01242459 Ry

     iteration # 82     ecut=    30.00 Ry     beta= 0.50
     Davidson diagonalization with overlap
     ethr =  2.84E-07,  avg # of iterations =  8.0

     total cpu time spent up to now is       13.0 secs

     total energy              =    -501.51635644 Ry
     estimated scf accuracy    <       0.01236616 Ry

     iteration # 83     ecut=    30.00 Ry     beta= 0.50
     Davidson diagonalization with overlap
     ethr =  2.84E-07,  avg # of iterations =  1.0

     total cpu time spent up to now is       13.1 secs

     total energy              =    -501.51629720 Ry
     estimated scf accuracy    <       0.01228798 Ry

     iteration # 84     ecut=    30.00 Ry     beta= 0.50
     Davidson diagonalization with overlap
     ethr =  2.84E-07,  avg # of iterations =  1.0

     total cpu time spent up to now is       13.1 secs

     total energy              =    -501.51622407 Ry
     estimated scf accuracy    <       0.01196457 Ry

     iteration # 85     ecut=    30.00 Ry     beta= 0.50
     Davidson diagonalization with overlap
     ethr =  2.84E-07,  avg # of iterations =  1.0

     total cpu time spent up to now is       13.2 secs

     total energy              =    -501.51614399 Ry
     estimated scf accuracy    <       0.01157473 Ry

     iteration # 86     ecut=    30.00 Ry     beta= 0.50
     Davidson diagonalization with overlap
     ethr =  2.84E-07,  avg # of iterations =  1.0

     total cpu time spent up to now is       13.3 secs

     total energy              =    -501.51230467 Ry
     estimated scf accuracy    <       0.01114453 Ry

     iteration # 87     ecut=    30.00 Ry     beta= 0.50
     Davidson diagonalization with overlap
     c_bands:  1 eigenvalues not converged
     ethr =  2.84E-07,  avg # of iterations = 20.0

     total cpu time spent up to now is       13.5 secs

     total energy              =    -501.51414967 Ry
     estimated scf accuracy    <       0.00845995 Ry

     iteration # 88     ecut=    30.00 Ry     beta= 0.50
     Davidson diagonalization with overlap
     c_bands:  1 eigenvalues not converged
     ethr =  2.84E-07,  avg # of iterations = 20.0

     total cpu time spent up to now is       13.6 secs

     total energy              =    -501.51442211 Ry
     estimated scf accuracy    <       0.00197903 Ry

     iteration # 89     ecut=    30.00 Ry     beta= 0.50
     Davidson diagonalization with overlap
     c_bands:  1 eigenvalues not converged
     ethr =  2.84E-07,  avg # of iterations = 20.0

     total cpu time spent up to now is       13.8 secs

     total energy              =    -501.51537925 Ry
     estimated scf accuracy    <       0.04496696 Ry

     iteration # 90     ecut=    30.00 Ry     beta= 0.50
     Davidson diagonalization with overlap
     c_bands:  1 eigenvalues not converged
     ethr =  2.84E-07,  avg # of iterations = 20.0

     total cpu time spent up to now is       14.0 secs

     total energy              =    -501.51496563 Ry
     estimated scf accuracy    <       0.04479863 Ry

     iteration # 91     ecut=    30.00 Ry     beta= 0.50
     Davidson diagonalization with overlap
     c_bands:  1 eigenvalues not converged
     ethr =  2.84E-07,  avg # of iterations = 20.0

     total cpu time spent up to now is       14.1 secs

     total energy              =    -501.51536990 Ry
     estimated scf accuracy    <       0.02231338 Ry

     iteration # 92     ecut=    30.00 Ry     beta= 0.50
     Davidson diagonalization with overlap
     ethr =  2.84E-07,  avg # of iterations =  2.0

     total cpu time spent up to now is       14.2 secs

     total energy              =    -501.51497240 Ry
     estimated scf accuracy    <       0.02104410 Ry

     iteration # 93     ecut=    30.00 Ry     beta= 0.50
     Davidson diagonalization with overlap
     ethr =  2.84E-07,  avg # of iterations =  1.0

     total cpu time spent up to now is       14.3 secs

     total energy              =    -501.51420055 Ry
     estimated scf accuracy    <       0.01920662 Ry

     iteration # 94     ecut=    30.00 Ry     beta= 0.50
     Davidson diagonalization with overlap
     c_bands:  1 eigenvalues not converged
     ethr =  2.84E-07,  avg # of iterations = 20.0

     total cpu time spent up to now is       14.4 secs

     total energy              =    -501.51461165 Ry
     estimated scf accuracy    <       0.01140495 Ry

     iteration # 95     ecut=    30.00 Ry     beta= 0.50
     Davidson diagonalization with overlap
     c_bands:  1 eigenvalues not converged
     ethr =  2.84E-07,  avg # of iterations = 20.0

     total cpu time spent up to now is       14.6 secs

     total energy              =    -501.51275585 Ry
     estimated scf accuracy    <       0.01233438 Ry

     iteration # 96     ecut=    30.00 Ry     beta= 0.50
     Davidson diagonalization with overlap
     c_bands:  1 eigenvalues not converged
     ethr =  2.84E-07,  avg # of iterations = 20.0

     total cpu time spent up to now is       14.8 secs

     total energy              =    -501.51390732 Ry
     estimated scf accuracy    <       0.02943856 Ry

     iteration # 97     ecut=    30.00 Ry     beta= 0.50
     Davidson diagonalization with overlap
     c_bands:  2 eigenvalues not converged
     ethr =  2.84E-07,  avg # of iterations = 20.0

     total cpu time spent up to now is       14.9 secs

     total energy              =    -501.51686622 Ry
     estimated scf accuracy    <       0.01440375 Ry

     iteration # 98     ecut=    30.00 Ry     beta= 0.50
     Davidson diagonalization with overlap
     ethr =  2.84E-07,  avg # of iterations = 18.0

     total cpu time spent up to now is       15.1 secs

     total energy              =    -501.51659623 Ry
     estimated scf accuracy    <       0.01996100 Ry

     iteration # 99     ecut=    30.00 Ry     beta= 0.50
     Davidson diagonalization with overlap
     ethr =  2.84E-07,  avg # of iterations = 12.0

     total cpu time spent up to now is       15.2 secs

     total energy              =    -501.51614547 Ry
     estimated scf accuracy    <       0.01565119 Ry

     iteration #100     ecut=    30.00 Ry     beta= 0.50
     Davidson diagonalization with overlap
     ethr =  2.84E-07,  avg # of iterations =  3.0

     total cpu time spent up to now is       15.3 secs

     total energy              =    -501.51585853 Ry
     estimated scf accuracy    <       0.01253584 Ry

     End of self-consistent calculation

     convergence NOT achieved after 100 iterations: stopping

     Writing config to output data dir ./pwscf.save/
     Message from routine punch:
     wavefunctions written to file
 
     init_run     :      0.98s CPU      3.97s WALL (       1 calls)
     electrons    :     10.59s CPU     11.29s WALL (       1 calls)

     Called by init_run:
     wfcinit      :      0.46s CPU      3.31s WALL (       1 calls)
                                        3.31s GPU  (       1 calls)
     potinit      :      0.05s CPU      0.13s WALL (       1 calls)
     hinit0       :      0.45s CPU      0.47s WALL (       1 calls)

     Called by electrons:
     c_bands      :      7.46s CPU      7.85s WALL (     101 calls)
     sum_band     :      1.42s CPU      1.63s WALL (     101 calls)
     v_of_rho     :      0.60s CPU      0.70s WALL (     101 calls)
     mix_rho      :      0.90s CPU      0.94s WALL (     101 calls)

     Called by c_bands:
     init_us_2    :      0.25s CPU      0.27s WALL (     203 calls)
     init_us_2:gp :      0.24s CPU      0.27s WALL (     203 calls)
     regterg      :      6.78s CPU      7.12s WALL (     101 calls)

     Called by *egterg:
     rdiaghg      :      3.40s CPU      4.10s WALL (    1001 calls)
                                        3.96s GPU  (    1001 calls)
     h_psi        :      2.92s CPU      5.35s WALL (    1003 calls)
                                        5.34s GPU  (    1003 calls)
     g_psi        :      0.00s CPU      0.02s WALL (     901 calls)
                                        0.02s GPU  (     901 calls)

     Called by h_psi:
     h_psi:calbec :      0.72s CPU      2.96s WALL (    1003 calls)
                                        2.95s GPU  (    1003 calls)
     vloc_psi     :      1.67s CPU      1.86s WALL (    1003 calls)
                                        1.83s GPU  (    1003 calls)
     add_vuspsi   :      0.40s CPU      0.49s WALL (    1003 calls)
                                        0.49s GPU  (    1003 calls)

     General routines
     calbec       :      0.71s CPU      2.94s WALL (    1003 calls)
     fft          :      0.94s CPU      1.09s WALL (     809 calls)
                                        0.18s GPU  (     505 calls)
     ffts         :      0.17s CPU      0.18s WALL (     101 calls)
     fftw         :      1.97s CPU      2.48s WALL (    9986 calls)
                                        2.15s GPU  (    9986 calls)
     davcio       :      0.00s CPU      0.00s WALL (      19 calls)
 
     Parallel routines
 
     PWSCF        :     11.61s CPU     15.36s WALL

 
   This run was terminated on:  15:26: 9   9May2023            

=------------------------------------------------------------------------------=
   JOB DONE.
=------------------------------------------------------------------------------=
