An instance of this daemon is already running

     Program PWSCF v.7.1 starts on  9May2023 at 15:16: 5 

     This program is part of the open-source Quantum ESPRESSO suite
     for quantum simulation of materials; please cite
         "P. Giannozzi et al., J. Phys.:Condens. Matter 21 395502 (2009);
         "P. Giannozzi et al., J. Phys.:Condens. Matter 29 465901 (2017);
         "P. Giannozzi et al., J. Chem. Phys. 152 154105 (2020);
          URL http://www.quantum-espresso.org", 
     in publications or presentations arising from this work. More details at
     http://www.quantum-espresso.org/quote

     Parallel version (MPI & OpenMP), running on       4 processor cores
     Number of MPI processes:                 4
     Threads/MPI process:                     1

     MPI processes distributed on     1 nodes
     59743 MiB available memory on the printing compute node when the environment starts
 
     Reading input from pw-si-54.in
Warning: card &CELL ignored
Warning: card / ignored

     Current dimensions of program PWSCF are:
     Max number of different atomic species (ntypx) = 10
     Max number of k-points (npk) =  40000
     Max angular momentum in pseudopotentials (lmaxx) =  4

     IMPORTANT: XC functional enforced from input :
     Exchange-correlation= PBE
                           (   1   4   3   4   0   0   0)
     Any further DFT definition will be discarded
     Please, verify this is what you really want


     gamma-point specific algorithms are used
 
     K-points division:     npool     =       2
     R & G space division:  proc/nbgrp/npool/nimage =       2
     Subspace diagonalization in iterative solution of the eigenvalue problem:
     a serial algorithm will be used

     Message from routine divide_et_impera:
     suboptimal parallelization: some nodes have no k-points
 
     Parallelization info
     --------------------
     sticks:   dense  smooth     PW     G-vecs:    dense   smooth      PW
     Min        1971    1971    520                93153    93153   12668
     Max        1974    1974    521                93158    93158   12673
     Sum        3945    3945   1041               186311   186311   25341
 
     Using Slab Decomposition
 


     bravais-lattice index     =            0
     lattice parameter (alat)  =      20.3251  a.u.
     unit-cell volume          =    8396.4712 (a.u.)^3
     number of atoms/cell      =           64
     number of atomic types    =            1
     number of electrons       =       256.00
     number of Kohn-Sham states=          128
     kinetic-energy cutoff     =      30.0000  Ry
     charge density cutoff     =     120.0000  Ry
     scf convergence threshold =      1.0E-06
     mixing beta               =       0.5000
     number of iterations used =            8  plain     mixing
     Exchange-correlation= PBE
                           (   1   4   3   4   0   0   0)

     GPU acceleration is ACTIVE.
     GPU-aware MPI enabled

     Message from routine print_cuda_info:
     High GPU oversubscription detected. Are you sure this is what you want?

     celldm(1)=  20.325080  celldm(2)=   0.000000  celldm(3)=   0.000000
     celldm(4)=   0.000000  celldm(5)=   0.000000  celldm(6)=   0.000000

     crystal axes: (cart. coord. in units of alat)
               a(1) = (   1.000000   0.000000   0.000000 )  
               a(2) = (   0.000000   1.000000   0.000000 )  
               a(3) = (   0.000000   0.000000   1.000000 )  

     reciprocal axes: (cart. coord. in units 2 pi/alat)
               b(1) = (  1.000000  0.000000  0.000000 )  
               b(2) = (  0.000000  1.000000  0.000000 )  
               b(3) = (  0.000000  0.000000  1.000000 )  


     PseudoPot. # 1 for Si read from file:
     /home/ppiaggi/pseudos/Si_ONCV_PBE_sr.upf
     MD5 check sum: 8553c464762ac42b85b1eed164b4d029
     Pseudo is Norm-conserving, Zval =  4.0
     Generated using ONCVPSP code by D. R. Hamann
     Using radial grid of 1510 points,  4 beta functions with: 
                l(1) =   0
                l(2) =   0
                l(3) =   1
                l(4) =   1

     atomic species   valence    mass     pseudopotential
        Si             4.00    28.08500     Si( 1.00)

     No symmetry found



   Cartesian axes

     site n.     atom                  positions (alat units)
         1           Si  tau(   1) = (   0.4252550   0.5880300   0.0698604  )
         2           Si  tau(   2) = (   0.6367100   0.4889150   0.4694110  )
         3           Si  tau(   3) = (   0.9308700   0.4085810   0.0241132  )
         4           Si  tau(   4) = (   0.1214730   0.5166390   0.2990380  )
         5           Si  tau(   5) = (   0.1449280   0.0520573   0.7078160  )
         6           Si  tau(   6) = (   0.4767190   0.7564940   0.9129480  )
         7           Si  tau(   7) = (   0.3595080   0.0577153   0.9120190  )
         8           Si  tau(   8) = (   0.5221030   0.7187230   0.7010570  )
         9           Si  tau(   9) = (   0.9579490   0.0364816   0.4723110  )
        10           Si  tau(  10) = (   0.7191580   0.2481570   0.7161550  )
        11           Si  tau(  11) = (   0.0046602   0.1728600   0.0564291  )
        12           Si  tau(  12) = (   0.1663640   0.4207130   0.0783123  )
        13           Si  tau(  13) = (   0.4130490   0.2652180   0.2108080  )
        14           Si  tau(  14) = (   0.8381570   0.7092460   0.3382080  )
        15           Si  tau(  15) = (   0.5138460   0.7316530   0.2843360  )
        16           Si  tau(  16) = (   0.9085300   0.0751867   0.2454650  )
        17           Si  tau(  17) = (   0.7087530   0.1801870   0.1629830  )
        18           Si  tau(  18) = (   0.3896260   0.3865240   0.4341430  )
        19           Si  tau(  19) = (   0.2603100   0.6250890   0.5991600  )
        20           Si  tau(  20) = (   0.0990066   0.7830850   0.7754870  )
        21           Si  tau(  21) = (   0.3328880   0.4433140   0.9600660  )
        22           Si  tau(  22) = (   0.6502130   0.8062710   0.0763797  )
        23           Si  tau(  23) = (   0.6525110   0.7472610   0.4565220  )
        24           Si  tau(  24) = (   0.7648820   0.4034160   0.1789520  )
        25           Si  tau(  25) = (   0.2026240   0.2088090   0.1980050  )
        26           Si  tau(  26) = (   0.0097915   0.8271100   0.5552700  )
        27           Si  tau(  27) = (   0.0604431   0.5508230   0.6927080  )
        28           Si  tau(  28) = (   0.8669160   0.0804315   0.9108720  )
        29           Si  tau(  29) = (   0.4701600   0.5043240   0.6444500  )
        30           Si  tau(  30) = (   0.8386430   0.3962850   0.5454990  )
        31           Si  tau(  31) = (   0.0610184   0.7503630   0.3160130  )
        32           Si  tau(  32) = (   0.2824210   0.8487370   0.9436160  )
        33           Si  tau(  33) = (   0.0662598   0.9134600   0.1359590  )
        34           Si  tau(  34) = (   0.5026260   0.2304510   0.0071358  )
        35           Si  tau(  35) = (   0.0178047   0.2595610   0.5798940  )
        36           Si  tau(  36) = (   0.5747740   0.3951710   0.8377410  )
        37           Si  tau(  37) = (   0.9698720   0.3098760   0.7910860  )
        38           Si  tau(  38) = (   0.6481850   0.0474312   0.9946790  )
        39           Si  tau(  39) = (   0.7958070   0.0422171   0.6401720  )
        40           Si  tau(  40) = (   0.3615710   0.1760390   0.6369000  )
        41           Si  tau(  41) = (   0.1565800   0.2092280   0.8693560  )
        42           Si  tau(  42) = (   0.5635400   0.1373360   0.3419780  )
        43           Si  tau(  43) = (   0.1711370   0.4070010   0.4835890  )
        44           Si  tau(  44) = (   0.5645140   0.2384250   0.5430670  )
        45           Si  tau(  45) = (   0.3927040   0.9641820   0.3092930  )
        46           Si  tau(  46) = (   0.2180640   0.1409700   0.4281740  )
        47           Si  tau(  47) = (   0.2744860   0.9994280   0.1454100  )
        48           Si  tau(  48) = (   0.9024190   0.4694070   0.3600950  )
        49           Si  tau(  49) = (   0.6865130   0.9859590   0.4236180  )
        50           Si  tau(  50) = (   0.0119014   0.6166200   0.9376770  )
        51           Si  tau(  51) = (   0.1834650   0.6787370   0.0666320  )
        52           Si  tau(  52) = (   0.5333920   0.4790510   0.2645320  )
        53           Si  tau(  53) = (   0.2127740   0.9110660   0.4660990  )
        54           Si  tau(  54) = (   0.6723110   0.9162610   0.8053290  )
        55           Si  tau(  55) = (   0.7218390   0.6143900   0.7657700  )
        56           Si  tau(  56) = (   0.3084810   0.8516930   0.6451360  )
        57           Si  tau(  57) = (   0.8681230   0.6233410   0.6020810  )
        58           Si  tau(  58) = (   0.9645530   0.8938780   0.9391350  )
        59           Si  tau(  59) = (   0.2857380   0.6792660   0.3734740  )
        60           Si  tau(  60) = (   0.6540720   0.5229490   0.0206131  )
        61           Si  tau(  61) = (   0.7975450   0.7116780   0.9539100  )
        62           Si  tau(  62) = (   0.4654570   0.0019171   0.7302270  )
        63           Si  tau(  63) = (   0.3018430   0.3561400   0.7326680  )
        64           Si  tau(  64) = (   0.7943940   0.8870900   0.2380490  )

     number of k points=     1
                       cart. coord. in units 2pi/alat
        k(    1) = (   0.0000000   0.0000000   0.0000000), wk =   2.0000000

     Dense  grid:    93156 G-vectors     FFT dimensions: (  72,  72,  72)

     Estimated max dynamical RAM per process >     136.81 MB

     Estimated total dynamical RAM >     524.49 MB

     Initial potential from superposition of free atoms

     starting charge     255.9608, renormalised to     256.0000
     Starting wfcs are  256 randomized atomic wfcs

     total cpu time spent up to now is        4.2 secs

     Self-consistent Calculation

     iteration #  1     ecut=    30.00 Ry     beta= 0.50
     Davidson diagonalization with overlap
     ethr =  1.00E-02,  avg # of iterations =  2.0

     Threshold (ethr) on eigenvalues was too large:
     Diagonalizing with lowered threshold

     Davidson diagonalization with overlap
     ethr =  3.61E-04,  avg # of iterations =  6.0

     total cpu time spent up to now is        4.4 secs

     total energy              =    -501.30919845 Ry
     estimated scf accuracy    <       1.13019903 Ry

     iteration #  2     ecut=    30.00 Ry     beta= 0.50
     Davidson diagonalization with overlap
     ethr =  4.41E-04,  avg # of iterations =  7.0

     total cpu time spent up to now is        4.5 secs

     total energy              =    -501.21528956 Ry
     estimated scf accuracy    <       1.10690489 Ry

     iteration #  3     ecut=    30.00 Ry     beta= 0.50
     Davidson diagonalization with overlap
     ethr =  4.32E-04,  avg # of iterations =  5.0

     total cpu time spent up to now is        4.6 secs

     total energy              =    -501.32196180 Ry
     estimated scf accuracy    <       1.50008051 Ry

     iteration #  4     ecut=    30.00 Ry     beta= 0.50
     Davidson diagonalization with overlap
     ethr =  4.32E-04,  avg # of iterations =  5.0

     total cpu time spent up to now is        4.7 secs

     total energy              =    -501.44956829 Ry
     estimated scf accuracy    <       0.20431554 Ry

     iteration #  5     ecut=    30.00 Ry     beta= 0.50
     Davidson diagonalization with overlap
     ethr =  7.98E-05,  avg # of iterations =  5.0

     total cpu time spent up to now is        4.8 secs

     total energy              =    -501.48014606 Ry
     estimated scf accuracy    <       0.03693696 Ry

     iteration #  6     ecut=    30.00 Ry     beta= 0.50
     Davidson diagonalization with overlap
     ethr =  1.44E-05,  avg # of iterations = 16.0

     total cpu time spent up to now is        5.0 secs

     total energy              =    -501.48031916 Ry
     estimated scf accuracy    <       0.12435302 Ry

     iteration #  7     ecut=    30.00 Ry     beta= 0.50
     Davidson diagonalization with overlap
     ethr =  1.44E-05,  avg # of iterations = 14.0

     total cpu time spent up to now is        5.1 secs

     total energy              =    -501.48842595 Ry
     estimated scf accuracy    <       0.01407620 Ry

     iteration #  8     ecut=    30.00 Ry     beta= 0.50
     Davidson diagonalization with overlap
     ethr =  5.50E-06,  avg # of iterations = 14.0

     total cpu time spent up to now is        5.2 secs

     total energy              =    -501.48916882 Ry
     estimated scf accuracy    <       0.01144218 Ry

     iteration #  9     ecut=    30.00 Ry     beta= 0.50
     Davidson diagonalization with overlap
     ethr =  4.47E-06,  avg # of iterations =  3.0

     total cpu time spent up to now is        5.3 secs

     total energy              =    -501.48982970 Ry
     estimated scf accuracy    <       0.00176114 Ry

     iteration # 10     ecut=    30.00 Ry     beta= 0.50
     Davidson diagonalization with overlap
     c_bands:  1 eigenvalues not converged
     ethr =  6.88E-07,  avg # of iterations = 20.0

     total cpu time spent up to now is        5.5 secs

     total energy              =    -501.49032686 Ry
     estimated scf accuracy    <       0.00291199 Ry

     iteration # 11     ecut=    30.00 Ry     beta= 0.50
     Davidson diagonalization with overlap
     ethr =  6.88E-07,  avg # of iterations = 20.0

     total cpu time spent up to now is        5.6 secs

     total energy              =    -501.49033010 Ry
     estimated scf accuracy    <       0.00156126 Ry

     iteration # 12     ecut=    30.00 Ry     beta= 0.50
     Davidson diagonalization with overlap
     ethr =  6.10E-07,  avg # of iterations =  2.0

     total cpu time spent up to now is        5.7 secs

     total energy              =    -501.49026535 Ry
     estimated scf accuracy    <       0.00083638 Ry

     iteration # 13     ecut=    30.00 Ry     beta= 0.50
     Davidson diagonalization with overlap
     c_bands:  1 eigenvalues not converged
     ethr =  3.27E-07,  avg # of iterations = 20.0

     total cpu time spent up to now is        5.9 secs

     total energy              =    -501.49037137 Ry
     estimated scf accuracy    <       0.00019991 Ry

     iteration # 14     ecut=    30.00 Ry     beta= 0.50
     Davidson diagonalization with overlap
     ethr =  7.81E-08,  avg # of iterations = 12.0

     total cpu time spent up to now is        6.0 secs

     total energy              =    -501.49038773 Ry
     estimated scf accuracy    <       0.00008507 Ry

     iteration # 15     ecut=    30.00 Ry     beta= 0.50
     Davidson diagonalization with overlap
     c_bands:  1 eigenvalues not converged
     ethr =  3.32E-08,  avg # of iterations = 20.0

     total cpu time spent up to now is        6.2 secs

     total energy              =    -501.49039246 Ry
     estimated scf accuracy    <       0.00005642 Ry

     iteration # 16     ecut=    30.00 Ry     beta= 0.50
     Davidson diagonalization with overlap
     ethr =  2.20E-08,  avg # of iterations = 17.0

     total cpu time spent up to now is        6.3 secs

     total energy              =    -501.49039814 Ry
     estimated scf accuracy    <       0.00002517 Ry

     iteration # 17     ecut=    30.00 Ry     beta= 0.50
     Davidson diagonalization with overlap
     ethr =  9.83E-09,  avg # of iterations =  6.0

     total cpu time spent up to now is        6.4 secs

     total energy              =    -501.49039881 Ry
     estimated scf accuracy    <       0.00001088 Ry

     iteration # 18     ecut=    30.00 Ry     beta= 0.50
     Davidson diagonalization with overlap
     c_bands:  1 eigenvalues not converged
     ethr =  4.25E-09,  avg # of iterations = 20.0

     total cpu time spent up to now is        6.6 secs

     total energy              =    -501.49039908 Ry
     estimated scf accuracy    <       0.00000772 Ry

     iteration # 19     ecut=    30.00 Ry     beta= 0.50
     Davidson diagonalization with overlap
     ethr =  3.01E-09,  avg # of iterations = 10.0

     total cpu time spent up to now is        6.7 secs

     total energy              =    -501.49039986 Ry
     estimated scf accuracy    <       0.00001022 Ry

     iteration # 20     ecut=    30.00 Ry     beta= 0.50
     Davidson diagonalization with overlap
     ethr =  3.01E-09,  avg # of iterations =  3.0

     total cpu time spent up to now is        6.7 secs

     total energy              =    -501.49039995 Ry
     estimated scf accuracy    <       0.00000522 Ry

     iteration # 21     ecut=    30.00 Ry     beta= 0.50
     Davidson diagonalization with overlap
     ethr =  2.04E-09,  avg # of iterations =  5.0

     total cpu time spent up to now is        6.8 secs

     total energy              =    -501.49039992 Ry
     estimated scf accuracy    <       0.00000248 Ry

     iteration # 22     ecut=    30.00 Ry     beta= 0.50
     Davidson diagonalization with overlap
     ethr =  9.69E-10,  avg # of iterations = 19.0

     total cpu time spent up to now is        7.0 secs

     total energy              =    -501.49040012 Ry
     estimated scf accuracy    <       0.00000139 Ry

     iteration # 23     ecut=    30.00 Ry     beta= 0.50
     Davidson diagonalization with overlap
     ethr =  5.43E-10,  avg # of iterations = 10.0

     total cpu time spent up to now is        7.1 secs

     End of self-consistent calculation

          k = 0.0000 0.0000 0.0000 ( 11564 PWs)   bands (ev):

    -5.5441  -4.6207  -4.5179  -4.5113  -4.4343  -4.3082  -4.2630  -3.6553
    -3.6147  -3.5305  -3.4596  -3.3579  -3.2654  -3.1749  -3.1364  -3.0176
    -2.9691  -2.9074  -2.7695  -2.4562  -2.2466  -2.1782  -2.0570  -2.0502
    -1.9462  -1.8446  -1.6819  -1.2653  -1.0913  -1.0031  -0.8963  -0.7208
    -0.6735  -0.5434  -0.4699  -0.3752  -0.2051  -0.0736  -0.0448   0.0325
     0.1101   0.1473   0.2057   0.2788   0.3937   0.4417   0.4980   0.5670
     0.6486   0.7106   0.8582   0.8923   1.0125   1.1100   1.2140   1.4343
     1.5025   1.5716   1.6106   1.7604   1.8212   1.9246   2.0778   2.2141
     2.3200   2.3973   2.5124   2.5490   2.6365   2.7050   2.7912   2.8477
     2.8642   2.9161   2.9791   3.0802   3.1910   3.2308   3.3215   3.4078
     3.5816   3.8226   3.9223   3.9766   4.0819   4.1431   4.1935   4.1966
     4.2471   4.3817   4.5559   4.6051   4.6410   4.6932   4.7621   4.8199
     4.8752   4.9638   4.9989   5.0389   5.1103   5.1579   5.2947   5.3349
     5.3999   5.4312   5.4922   5.5123   5.5654   5.6300   5.7050   5.7805
     5.8479   5.8872   5.9310   5.9738   6.0769   6.1228   6.2093   6.2441
     6.3254   6.3776   6.4430   6.5130   6.5356   6.6110   6.6549   6.7227

     highest occupied level (ev):     6.7227

!    total energy              =    -501.49039953 Ry
     estimated scf accuracy    <       0.00000077 Ry

     The total energy is the sum of the following terms:
     one-electron contribution =     174.87677035 Ry
     hartree contribution      =      27.44866792 Ry
     xc contribution           =    -150.50113874 Ry
     ewald contribution        =    -553.31469907 Ry

     convergence has been achieved in  23 iterations

     Forces acting on atoms (cartesian axes, Ry/au):

     atom    1 type  1   force =     0.05500156    0.06873730    0.03396159
     atom    2 type  1   force =    -0.01786340   -0.00272252    0.03513863
     atom    3 type  1   force =     0.05051245   -0.04177665   -0.00741747
     atom    4 type  1   force =    -0.00833112   -0.00238126   -0.03774357
     atom    5 type  1   force =     0.00379715   -0.01145750   -0.01555198
     atom    6 type  1   force =     0.01325454   -0.00522379    0.02397791
     atom    7 type  1   force =    -0.01428289    0.02582164    0.01968748
     atom    8 type  1   force =     0.01737803   -0.00092870    0.00333182
     atom    9 type  1   force =     0.02746245    0.02296854    0.01429998
     atom   10 type  1   force =     0.00855343    0.01576851   -0.03560920
     atom   11 type  1   force =     0.01806888    0.03664460    0.00175820
     atom   12 type  1   force =    -0.09064831   -0.00672912    0.07801455
     atom   13 type  1   force =     0.03331385    0.03187189    0.01643153
     atom   14 type  1   force =     0.03111827   -0.07309428    0.03379996
     atom   15 type  1   force =    -0.03519870    0.00086870   -0.05195371
     atom   16 type  1   force =     0.00930103   -0.02224045   -0.00442985
     atom   17 type  1   force =     0.00829057    0.01284983    0.02567062
     atom   18 type  1   force =     0.02625839   -0.01017364    0.02329256
     atom   19 type  1   force =     0.01720417   -0.01863420   -0.01176856
     atom   20 type  1   force =     0.01162726    0.04203959    0.01390348
     atom   21 type  1   force =     0.00592078   -0.05739341   -0.08804628
     atom   22 type  1   force =    -0.03084214    0.04792009    0.04178577
     atom   23 type  1   force =     0.01161152    0.00831733    0.02782388
     atom   24 type  1   force =     0.01682501   -0.01409490    0.00644691
     atom   25 type  1   force =    -0.00143688   -0.00071624    0.01835844
     atom   26 type  1   force =    -0.01368815    0.01539891   -0.00912205
     atom   27 type  1   force =     0.02004820   -0.00902464    0.03048346
     atom   28 type  1   force =    -0.03346473    0.03129179   -0.02980705
     atom   29 type  1   force =    -0.01288802   -0.00478557   -0.01413557
     atom   30 type  1   force =    -0.02925341   -0.00077154    0.04083678
     atom   31 type  1   force =     0.00700574    0.02188995   -0.01713744
     atom   32 type  1   force =    -0.02391640    0.00056099   -0.00765189
     atom   33 type  1   force =    -0.00844472   -0.00380079    0.03868150
     atom   34 type  1   force =    -0.00630333    0.00017774   -0.03254460
     atom   35 type  1   force =     0.02720707   -0.03334744   -0.04866350
     atom   36 type  1   force =     0.01721229    0.00014539    0.00400193
     atom   37 type  1   force =    -0.00026691   -0.00063258    0.02682818
     atom   38 type  1   force =     0.00741538   -0.02411504   -0.00492364
     atom   39 type  1   force =    -0.02920950    0.00630105   -0.00542704
     atom   40 type  1   force =     0.01515360   -0.01698021   -0.03385979
     atom   41 type  1   force =     0.01096678   -0.01276001    0.00587689
     atom   42 type  1   force =    -0.01557652    0.00842318   -0.01665799
     atom   43 type  1   force =     0.00324363   -0.00695768    0.03678118
     atom   44 type  1   force =    -0.03669093    0.02860301   -0.01354302
     atom   45 type  1   force =     0.03934086   -0.02112444    0.06156838
     atom   46 type  1   force =    -0.01933932   -0.00796540    0.00607270
     atom   47 type  1   force =    -0.04250350    0.00708115   -0.06473283
     atom   48 type  1   force =    -0.01593763    0.04881331   -0.07856809
     atom   49 type  1   force =     0.03378604   -0.05999704    0.02248934
     atom   50 type  1   force =    -0.00561479   -0.01434484   -0.02434594
     atom   51 type  1   force =     0.01837421   -0.00080144    0.00868089
     atom   52 type  1   force =    -0.01111504    0.00174350   -0.01677803
     atom   53 type  1   force =    -0.03295598    0.01425368   -0.04081067
     atom   54 type  1   force =    -0.02256226    0.00623488   -0.01398461
     atom   55 type  1   force =    -0.02240447   -0.00032696    0.02967961
     atom   56 type  1   force =    -0.00570869   -0.01550498    0.05292057
     atom   57 type  1   force =     0.01612453    0.00632200   -0.02241231
     atom   58 type  1   force =     0.00790063   -0.03848565   -0.01598152
     atom   59 type  1   force =     0.00861039   -0.00527739    0.01180376
     atom   60 type  1   force =    -0.00769978    0.01070472   -0.00920349
     atom   61 type  1   force =     0.03346843   -0.02064505   -0.03342383
     atom   62 type  1   force =     0.01653963   -0.02128073    0.00123008
     atom   63 type  1   force =    -0.01970339    0.03567005    0.04672979
     atom   64 type  1   force =    -0.03404583    0.02907276   -0.03611283

     Total force =     0.387942     Total SCF correction =     0.001768


     Computing stress (Cartesian axis) and pressure

          total   stress  (Ry/bohr**3)                   (kbar)     P=      -35.28
  -0.00019260  -0.00006110   0.00011728          -28.33       -8.99       17.25
  -0.00006110  -0.00032908   0.00003778           -8.99      -48.41        5.56
   0.00011728   0.00003778  -0.00019789           17.25        5.56      -29.11

 
     init_run     :      0.96s CPU      4.18s WALL (       1 calls)
     electrons    :      2.66s CPU      2.85s WALL (       1 calls)
     forces       :      0.03s CPU      0.03s WALL (       1 calls)
     stress       :      0.12s CPU      0.12s WALL (       1 calls)

     Called by init_run:
     wfcinit      :      0.45s CPU      3.52s WALL (       1 calls)
                                        3.52s GPU  (       1 calls)
     potinit      :      0.04s CPU      0.12s WALL (       1 calls)
     hinit0       :      0.45s CPU      0.48s WALL (       1 calls)

     Called by electrons:
     c_bands      :      1.94s CPU      2.05s WALL (      24 calls)
     sum_band     :      0.35s CPU      0.40s WALL (      24 calls)
     v_of_rho     :      0.16s CPU      0.25s WALL (      24 calls)
     mix_rho      :      0.18s CPU      0.20s WALL (      24 calls)

     Called by c_bands:
     init_us_2    :      0.06s CPU      0.07s WALL (      49 calls)
     init_us_2:gp :      0.06s CPU      0.06s WALL (      49 calls)
     regterg      :      1.77s CPU      1.86s WALL (      24 calls)

     Called by *egterg:
     rdiaghg      :      0.93s CPU      1.57s WALL (     284 calls)
                                        1.53s GPU  (     284 calls)
     h_psi        :      1.02s CPU      3.52s WALL (     286 calls)
                                        3.52s GPU  (     286 calls)
     g_psi        :      0.00s CPU      0.01s WALL (     261 calls)
                                        0.00s GPU  (     261 calls)

     Called by h_psi:
     h_psi:calbec :      0.46s CPU      2.88s WALL (     286 calls)
                                        2.88s GPU  (     286 calls)
     vloc_psi     :      0.41s CPU      0.48s WALL (     286 calls)
                                        0.48s GPU  (     286 calls)
     add_vuspsi   :      0.12s CPU      0.15s WALL (     286 calls)
                                        0.15s GPU  (     286 calls)

     General routines
     calbec       :      0.46s CPU      2.88s WALL (     291 calls)
     fft          :      0.58s CPU      0.69s WALL (     199 calls)
                                        0.12s GPU  (     126 calls)
     ffts         :      0.04s CPU      0.04s WALL (      24 calls)
     fftw         :      0.48s CPU      0.64s WALL (    2462 calls)
                                        0.56s GPU  (    2462 calls)
 
     Parallel routines
 
     PWSCF        :      3.81s CPU      7.26s WALL

 
   This run was terminated on:  15:16:12   9May2023            

=------------------------------------------------------------------------------=
   JOB DONE.
=------------------------------------------------------------------------------=
