10.811673519946455 0.0 0.0 0.0 11.17632964442721 0.0 0.0 0.0 10.91558451414666
11.283370441574217 0.0 0.0 0.0 11.219687098801971 0.0 0.0 0.0 10.715083489284332
11.127920403202697 0.0 0.0 0.0 10.73988981874302 0.0 0.0 0.0 10.824406374205344
10.94492880784521 0.0 0.0 0.0 10.820342683225508 0.0 0.0 0.0 11.131441339659702
10.737531030461248 0.0 0.0 0.0 11.064950564173104 0.0 0.0 0.0 10.778827574804403
11.044537421305224 0.0 0.0 0.0 11.003573232009604 0.0 0.0 0.0 11.256868653229818
11.279702185165911 0.0 0.0 0.0 11.290790132413928 0.0 0.0 0.0 10.974236570289433
11.177221197818957 0.0 0.0 0.0 10.69040850576915 0.0 0.0 0.0 10.836695976806205
10.700088038729778 0.0 0.0 0.0 11.18366781755213 0.0 0.0 0.0 10.7501002502228
10.951625016239715 0.0 0.0 0.0 10.924180243949019 0.0 0.0 0.0 10.900141427038372
11.301313253177861 0.0 0.0 0.0 11.014293800486904 0.0 0.0 0.0 10.939513010690625
10.75591464667945 0.0 0.0 0.0 10.668598131577706 0.0 0.0 0.0 10.743427029774656
11.041083481666298 0.0 0.0 0.0 11.186582879787696 0.0 0.0 0.0 11.00285925065277
10.95599813668955 0.0 0.0 0.0 11.145438300471048 0.0 0.0 0.0 11.09036249783791
10.815289387811134 0.0 0.0 0.0 11.301133817690385 0.0 0.0 0.0 10.841105483579838
10.91650722916175 0.0 0.0 0.0 11.268531837780529 0.0 0.0 0.0 10.682118902444419
10.84794226745259 0.0 0.0 0.0 10.89401347826246 0.0 0.0 0.0 11.226958522335115
11.04538357566138 0.0 0.0 0.0 10.660496139583882 0.0 0.0 0.0 10.827546520782185
11.21992103593821 0.0 0.0 0.0 11.221166447173198 0.0 0.0 0.0 11.08790744502936
10.992636779064323 0.0 0.0 0.0 11.211247346689575 0.0 0.0 0.0 10.972421320027623
10.673157152242247 0.0 0.0 0.0 11.290663332442373 0.0 0.0 0.0 10.905917363418347
11.159457777288944 0.0 0.0 0.0 11.234092230903453 0.0 0.0 0.0 10.884120475549894
11.22643944079071 0.0 0.0 0.0 11.194545126339424 0.0 0.0 0.0 10.766312593870461
10.85378173794677 0.0 0.0 0.0 11.217318303477558 0.0 0.0 0.0 10.720367052823928
11.29471229668086 0.0 0.0 0.0 11.296553334785218 0.0 0.0 0.0 10.981329209297153
11.151678872326148 0.0 0.0 0.0 11.206277492085057 0.0 0.0 0.0 10.994194863291158
11.16352503331235 0.0 0.0 0.0 10.82851881058768 0.0 0.0 0.0 11.128337602407349
11.199967880120033 0.0 0.0 0.0 11.14375524132971 0.0 0.0 0.0 11.117110517742905
11.192038159652855 0.0 0.0 0.0 10.78695353050238 0.0 0.0 0.0 10.766662365318929
10.686299797388916 0.0 0.0 0.0 10.761980172554024 0.0 0.0 0.0 11.237381591640464
11.294409078140474 0.0 0.0 0.0 10.816260269817397 0.0 0.0 0.0 11.27158307739355
10.88431208780552 0.0 0.0 0.0 10.84126463349825 0.0 0.0 0.0 10.999653142999996
11.181251940614985 0.0 0.0 0.0 11.232573887022408 0.0 0.0 0.0 10.785491528176918
11.287383192345162 0.0 0.0 0.0 11.135895222520698 0.0 0.0 0.0 10.99940818495886
11.074651308700997 0.0 0.0 0.0 11.037052867507956 0.0 0.0 0.0 10.711823582525335
10.818482443086339 0.0 0.0 0.0 11.111371218268014 0.0 0.0 0.0 10.899318143901079
11.070052758760404 0.0 0.0 0.0 10.688135938583171 0.0 0.0 0.0 10.774094898254946
10.708317273496881 0.0 0.0 0.0 11.274573090919397 0.0 0.0 0.0 10.782183246049463
10.886496002144396 0.0 0.0 0.0 10.85438083893807 0.0 0.0 0.0 10.814851971954285
10.86421446660946 0.0 0.0 0.0 10.676730717559181 0.0 0.0 0.0 10.887920182575602
11.099471836481612 0.0 0.0 0.0 10.85681518319245 0.0 0.0 0.0 10.806689968378901
10.909334761279727 0.0 0.0 0.0 10.679213253825292 0.0 0.0 0.0 11.27744844412959
10.912465902821554 0.0 0.0 0.0 11.262505071586359 0.0 0.0 0.0 11.120533890190652
11.19570694523837 0.0 0.0 0.0 11.288385007331055 0.0 0.0 0.0 10.93004401513481
10.996296568637296 0.0 0.0 0.0 11.173051039681571 0.0 0.0 0.0 11.287236583250303
11.108939345916266 0.0 0.0 0.0 10.872185630576098 0.0 0.0 0.0 11.007692472717585
11.187671918506728 0.0 0.0 0.0 11.031100450007226 0.0 0.0 0.0 10.897094515767353
10.921030106761547 0.0 0.0 0.0 11.190572050826528 0.0 0.0 0.0 11.057280878373504
10.88920697698279 0.0 0.0 0.0 10.836753666974664 0.0 0.0 0.0 11.058969713753951
10.925454557400592 0.0 0.0 0.0 10.699832995335713 0.0 0.0 0.0 11.305572972361672
11.205013584801684 0.0 0.0 0.0 11.195254017969322 0.0 0.0 0.0 11.109838199412378
10.65729506542185 0.0 0.0 0.0 10.695160434789294 0.0 0.0 0.0 10.876291821721203
10.875852131775574 0.0 0.0 0.0 11.185313628333116 0.0 0.0 0.0 11.207358980604225
10.902625323455013 0.0 0.0 0.0 11.270796078002764 0.0 0.0 0.0 11.1937908353432
11.296451702164717 0.0 0.0 0.0 11.284341905939996 0.0 0.0 0.0 11.260721025430769
10.811079253941474 0.0 0.0 0.0 10.830593251994838 0.0 0.0 0.0 11.2867667411149
11.12604923259396 0.0 0.0 0.0 10.749209945086003 0.0 0.0 0.0 10.907066331598045
11.143658133379132 0.0 0.0 0.0 10.961303311684516 0.0 0.0 0.0 11.144193028969534
10.780961662305241 0.0 0.0 0.0 10.86246573247227 0.0 0.0 0.0 10.85690275625452
11.243836141515333 0.0 0.0 0.0 11.003071878217066 0.0 0.0 0.0 10.761093280615514
10.655376268864362 0.0 0.0 0.0 11.036210072089844 0.0 0.0 0.0 11.076263631484506
10.872018242901051 0.0 0.0 0.0 10.72802923329207 0.0 0.0 0.0 10.993143398145213
11.14111967031066 0.0 0.0 0.0 10.997610907837387 0.0 0.0 0.0 10.896471823470309
10.786053934581227 0.0 0.0 0.0 11.2076160665604 0.0 0.0 0.0 10.996856572678682
10.886827796254032 0.0 0.0 0.0 10.934109289373163 0.0 0.0 0.0 11.063836729393326
11.112847848777164 0.0 0.0 0.0 10.870132138912023 0.0 0.0 0.0 10.99311802605444
10.654438566851159 0.0 0.0 0.0 11.003211613337031 0.0 0.0 0.0 10.825847174514662
11.119648305081714 0.0 0.0 0.0 10.680655709645393 0.0 0.0 0.0 11.229087883700327
10.798871664921966 0.0 0.0 0.0 10.810469653090093 0.0 0.0 0.0 10.738095615191787
10.879300779642412 0.0 0.0 0.0 11.058765725303394 0.0 0.0 0.0 11.128599957007918
11.241961266666136 0.0 0.0 0.0 10.653759369271631 0.0 0.0 0.0 10.88609698276982
11.282021568870125 0.0 0.0 0.0 11.006999729085777 0.0 0.0 0.0 10.883788771532146
11.00129676407903 0.0 0.0 0.0 11.305757652024916 0.0 0.0 0.0 11.021396133267002
11.031819705456861 0.0 0.0 0.0 10.90040866912546 0.0 0.0 0.0 11.186993281433816
10.984054583099248 0.0 0.0 0.0 10.818184374839866 0.0 0.0 0.0 10.672414986467556
10.759176494991742 0.0 0.0 0.0 11.219023698387689 0.0 0.0 0.0 11.040475164453301
11.257830232790242 0.0 0.0 0.0 11.088782654014663 0.0 0.0 0.0 10.995263858270876
10.712108299017528 0.0 0.0 0.0 11.064836601087578 0.0 0.0 0.0 10.674305268830295
10.776171021038015 0.0 0.0 0.0 11.057579951081403 0.0 0.0 0.0 11.039346669713805
11.082787408279433 0.0 0.0 0.0 11.24455177329068 0.0 0.0 0.0 11.15874883317578
10.880218902098905 0.0 0.0 0.0 11.14731739592653 0.0 0.0 0.0 11.072918459073978
11.214299586453873 0.0 0.0 0.0 11.23217517999468 0.0 0.0 0.0 11.261287501721114
10.92533919676917 0.0 0.0 0.0 10.710874788336591 0.0 0.0 0.0 10.907312387094501
11.036908273492388 0.0 0.0 0.0 11.1718896616772 0.0 0.0 0.0 10.689576770125583
11.075407502931736 0.0 0.0 0.0 10.956479777165255 0.0 0.0 0.0 10.657875715478712
11.257485209250396 0.0 0.0 0.0 10.90524975453816 0.0 0.0 0.0 10.905745083887368
11.21826947387094 0.0 0.0 0.0 11.248525146641969 0.0 0.0 0.0 10.750950022397898
11.255120845483473 0.0 0.0 0.0 10.876881254350156 0.0 0.0 0.0 10.943275212217662
11.095528937102168 0.0 0.0 0.0 10.741648137182231 0.0 0.0 0.0 10.997732945050549
10.85160946550648 0.0 0.0 0.0 10.967222512751984 0.0 0.0 0.0 10.790287020416903
10.664318305331118 0.0 0.0 0.0 11.288756799381476 0.0 0.0 0.0 10.823888500133789
11.29153300001307 0.0 0.0 0.0 10.847346674858557 0.0 0.0 0.0 11.090611461810838
10.730084448785298 0.0 0.0 0.0 11.041042296111096 0.0 0.0 0.0 10.750417958815746
11.116797627460315 0.0 0.0 0.0 10.918329439417265 0.0 0.0 0.0 10.729799668453166
10.961491525289468 0.0 0.0 0.0 11.073068547525388 0.0 0.0 0.0 11.086715604474376
10.973875859496566 0.0 0.0 0.0 10.84605215348515 0.0 0.0 0.0 10.99884142707692
