-6852.771708170284
-6851.143285896836
-6847.346857431342
-6849.728418836079
-6850.800591306766
-6848.821003811566
-6849.291910415051
-6850.703757284314
-6848.213270206589
-6849.712510108672
-6852.08839276971
-6848.2570365882275
-6847.562345332572
-6852.4453386417945
-6851.943972159437
-6847.986170799692
-6847.80766874747
-6849.768288955718
-6850.001925489417
-6849.741161110802
-6851.171346139821
-6847.97495399515
-6850.793634716481
-6849.15435292396
-6849.042908429225
-6847.977184104115
-6850.858806252953
-6850.446401947868
-6849.961018071825
-6848.6842025248325
-6848.07212067677
-6848.444307644958
-6852.077815160574
-6849.980713127238
-6849.783802437774
-6852.017925217653
-6849.336243745873
-6848.764953530966
-6848.023767952438
-6848.411357244178
-6849.7622593212245
-6850.024522094693
-6846.995568125679
-6851.085924707818
-6849.61038156726
-6848.445620322115
-6852.039566567299
-6851.901485937353
-6851.177691426368
-6851.095834141423
-6850.371306147586
-6847.677792621874
-6847.248013440019
-6849.733253618707
-6848.729328251152
-6846.185600604268
-6848.442425977764
-6851.429947077363
-6851.113062620947
-6851.2213043358015
-6849.889484921975
-6849.169788309344
-6850.924348952701
-6852.157050220512
-6850.944546330261
-6851.737081286769
-6850.330073553956
-6848.201894895735
-6847.794473403205
-6849.35184770578
-6851.411624836264
-6848.142521152766
-6850.7987835184795
-6849.395232583816
-6851.297907782806
-6849.06658532644
-6850.054811630302
-6849.068784822598
-6847.359968012145
-6851.816692816203
-6849.0175599366985
-6851.088176313776
-6847.825868673398
-6850.84282895286
-6849.085677241531
-6852.5800552644105
-6851.438364374734
-6848.488328316979
-6850.4331143570125
-6850.495814827716
-6851.445745462607
-6846.790218913963
-6848.39155905762
-6847.526639234948
-6850.878338448235
-6852.373256774389
