0.5754869352668283 -1.098782790352398 -1.5976709060175647 1.3028993278927754 -0.9178635168640903 0.40726762584369214 -0.6685045625461454 -0.7378924662216647 -1.5665289331971215 -0.6874733903391643 -1.4008886973550712 0.042409832424778575 0.5415815407686351 1.3674962379375546 0.3608784970561914 0.5376356687470096 -1.5377032672146809 0.4897018211802083 0.6487003833360249 0.7973479412748202 0.02080510967080933 1.059191915433653 0.6162774869206289 0.9401423828669486 -1.3399674363896665 -0.641312575512386 -0.9124372036421963 0.7694962091698747 -0.010860339753271619 -0.22183992296206956 -0.6032533067468191 -1.2773585033091934 1.1654417251325284 0.6329464629358776 -1.4243926940142824 0.6371954680202188 -0.7624161623946417 1.0808357189556739 -0.10484573026249686 0.7789830656143875 1.3696461944010219 0.4911123283744897 0.6164932024758608 -0.8175506414749403 -0.26145110959578843 -0.4677978220182653 0.4647523503237222 -0.7020281482248877 -1.4669310815971253 1.7613815289370696 -1.240067223057903 1.705844929322346 -0.1251304486534619 -0.5156128846190152 1.764789526177354 1.5855892922626822 -1.6320277862308794 -0.17893258207558219 -0.22104930873997414 0.006837334636807579 0.11234126730859363 0.42567209649280885 -0.5651127911213558 -0.8136641619363406 -1.6635389694652831 -0.029838937738303453 -0.7936632933343816 0.4856705885336281 -0.20145595998907884 0.16124622053941262 -0.5418149969356798 1.0752610530813738 -0.9439748692391614 -0.4970518337873762 0.5628221953149662 1.8562115268347776 -0.10061163757649123 -0.6867997613109076 -0.7157601530989995 1.0620869775932613 1.3459200544286756 0.12229529319751198 1.5669845326773013 1.8093480295140192 -0.20516169097544024 -0.04199794169834058 1.2381062426767901 0.5927724618201533 0.4430710086955466 -1.2726603265025758 0.9981207591539457 -0.4286201233775392 -0.6230364029110174 -1.9256284839760192 0.5314071713387944 1.297671503834933 -0.8241912867199096 1.3333841267451938 0.07852431875914863 0.3170676705188281 -1.0312846475004238 0.4026226708725131 -0.4976447301763687 -0.6280271712573894 0.8938836090097251 0.17578812290932952 -2.069571180239978 -0.4033490075155763 1.1269667089857816 0.48171391787872525 -0.6251063980661686 -0.9365232980571225 0.04845269618474881 -0.032269658666983135 -1.4801018146511284 0.31029281368883976 0.2909280360089828 0.6598908527352055 1.4620961221023272 -1.2495021432185578 -1.4301432233448144 -1.554961025853864 1.2014086301454407 0.8377340584013507 1.2133364919312781 -0.6760846888862486 -0.487847798690605 -0.9769191853756659 -0.037487712532812856 -0.399405449486796 -0.3021046214510926 0.005915337043170457 0.9465467437313958 1.131168405771955 0.1562618799509438 -0.08894191454804683 0.7399064113278999 -0.9791583591188298 -0.5517762219134497 -1.0847779914328737 0.7067358381132022 -0.5999360694481279 1.2522395967543787 0.12440231223818575 0.026304185112167602 -1.1052593992156772 -0.5608277905927567 0.25440397294101996 -0.3827310741549086 0.08192228869710408 -1.588508779902322 0.8692215874866707 -0.17959644091182617 0.4317800091627596 -0.3020035770968541 -0.734833881900999 1.170177954265933 -0.06250737450560202 -1.008722703039508 -0.7450866699772587 0.6667130178633615 0.6320501763738534 0.1492329981286204 -0.07314994182111273 -0.42341492502751593 0.2639170546377777 0.9321760768320203 -0.9694244196605175 -0.6709566236310639 1.210096901948058 1.1761269727605164 -0.11001236206510086 -0.5391199666020199 0.19346985645980871 1.110621691968855 -1.2783380936136435 0.7339597068261619 -0.6350773932359514 0.5585176544023414 -0.12149465167308754 0.4572434435411868 -0.8067967453925461 -0.7708771486778014 -0.23541303366081393 0.9778522387128966 1.0905570600084962 0.4807798361002301 0.31421914532643946 0.41328195035857207 -0.33079633295883026 -1.3776335834818725 0.8325915949684628
1.2678513351497067 -2.3204558271738294 1.0390650627767912 1.6746060259127225 -0.7859294150252336 0.2746259564148496 -0.17271822573475415 -1.525772834325682 0.9172022291310075 2.0409468316350656 -0.25675550389233204 1.073561553891764 -1.1104203745913264 0.3246578241612602 -0.3915563857560224 -0.09733888036249043 -1.5737228798423994 1.0046634453684697 -0.19549562864058587 0.7987520207111986 1.1848484117939142 1.6754616890447982 -1.2728115073684596 -0.21079652066371438 -1.243523814147936 -0.14189121305156852 -0.7380981544745675 -1.5170020301115872 -0.6789674097506824 -1.3449682320383676 0.7427845042066433 0.9802011985610473 -0.7374327529764267 0.6099767415135817 -0.5685596120193757 0.8407651319181907 0.39038113450099865 1.2211320767162968 -0.2873575450489051 -1.3195587908263273 -0.47220803527081895 -0.5784799564568812 0.8424636026665363 -0.4670041224723764 0.03929159851077104 0.8041685637410796 0.5644900699356924 0.5456140589667958 -0.6645862013283458 0.6185032909273541 1.2139116477084577 -1.2866317010810036 -0.7773560715339256 -0.4607707399681548 1.6713088432186893 0.4580412568521337 0.22611798151213314 -0.10761532258783402 -1.4039321121670854 0.6819645447057933 0.2464044996753111 1.870575251755617 -0.3763737644783131 0.17514791822216935 -0.9669101378790961 -0.4598423146166145 -0.8133839116917605 -0.09551288289734518 1.4198364421021676 -0.15720007549449702 1.4132775579377275 -0.9868523853289779 0.6971412524462316 -1.911739898919385 0.600483714421482 1.3711855138636835 -0.2505668585831169 0.03794639733678626 -0.6229623551399722 -0.045123117590883575 -0.09212828269582843 -0.6971286540407414 -0.03596459102006709 -0.061551438350235924 0.5133572558156191 -1.0872670764033145 0.31632590725679716 -0.3060386663981762 0.762320517357042 -0.6253779065600004 -0.8044801814442274 0.3060749189527503 -0.34456818993194205 -0.38265136995690874 0.09927363549135806 0.652463964143515 -0.45602988284905976 0.7644941279695932 -0.04004724572987296 0.616337393624287 0.6004888566278045 -0.9447387439883793 -1.0274732441741339 1.7661113303125713 -1.471675795370962 0.5520603288127718 0.5215500760390567 -0.10681725216657087 0.9713350064196691 -0.8696676738851539 -0.9575572359092864 -1.6166315062804675 0.009027657419907034 0.5982933916383826 0.47477913843210495 0.3631842623712326 -1.025268266103015 0.3659947352368342 0.8966038361543656 -0.7258653598538015 -0.023386754355056497 -0.14602477560396787 1.3063348359368856 -0.5922384436935543 -1.2909622101355573 -0.6830711475064106 0.8369125909413199 0.24843207162830117 -0.535435318661581 -1.607018665781052 1.7186541652718723 1.4222450515436604 0.6034083442674446 0.6474006906879947 1.2213292803287676 -0.1280843890754633 -0.0372992506710906 -0.230082622586836 -1.2259752637412111 0.09632843682010507 0.15363549807169025 -1.1934209839542735 2.179875619624201 -0.9551072317068972 1.9825563075113146 1.5411452030166943 -1.0654489520869586 0.19906303427687005 -1.1154517663676466 0.7836786713178439 -1.6192396333272758 -0.3037413857235672 0.07961343805826934 1.6279983533565123 0.3366653901450976 -0.46965904359672017 0.26392296817504873 -2.0389051186146885 0.9469545206927755 -2.701669693353263 -0.6509812089504015 0.5537395162874076 -0.8317058499293999 0.3651868946235582 -1.5420746568094992 2.1066948245651522 -1.4582448666770371 1.7438982845506417 -0.5630672214462367 -0.8136230242857599 0.36729571343644485 -0.8629380684708042 1.09214471621059 -1.6846099312029699 -0.5430406418126648 0.7388355468612243 0.601429366164203 0.13464815833591004 -0.6003464175126693 -0.3633660393647355 1.436086585412443 -0.6010588701986616 0.7641022918478131 -0.5025192846598506 1.7851552343178996 -1.1246082360559342 0.18424113877268916 0.24389998808590255 0.8515902475581527 -0.08604890927096795 1.232273438045097 -1.8412399931266097
-1.5097026682366967 -0.6902802636603402 0.9580987102350532 -1.4143579354860996 1.20714604684985 1.2049140721955378 -0.6618598035361182 -2.5525698783683977 -1.1619105720508183 1.5736246637016382 -1.2824271760813526 2.437910504449589 0.34265683184184215 -0.15679744073943963 0.291448170178511 0.9334647137364569 -2.523819288598266 1.4387397067645737 1.3120776519579338 0.8155202413084729 -0.12026746413420579 -0.08950627169194908 -0.5208900738575546 1.9507268217055436 0.26114771942275666 0.19622633615902335 0.6669775843786578 -0.8533488821204723 2.2861897069021078 1.7126246712483408 -2.152312108183635 0.5974235874389195 1.301212941329288 -0.09883860483646849 0.2157376667190736 0.54915755334368 0.055453810092930295 0.18754577766588992 -0.0001272696064836518 -1.0490712820598835 -0.8212620288882565 0.3147091975889806 -1.7145691965692214 2.5399192794839225 2.0736813457536094 0.5218871476635012 1.5204617065254138 0.3631348971905359 2.1555640394620292 -0.4922790949890813 0.08490991057051828 -0.6991150883431508 -0.7614738530860304 0.39576553874136355 -1.32189103850393 0.18454247206319185 -0.1823035554303441 -1.1084298265238586 0.14315928113071472 2.0748311430873363 -0.3405359288440974 2.149066090442512 1.0972506699785878 1.095135680518114 -0.4755653817788261 -1.134774892176291 -0.603602976776754 -0.5484870096392167 1.5260394577235072 1.931888348842802 0.6922160472304724 0.7714011395020715 -2.1328367730678433 -2.2137666159446905 -2.083066386512935 -0.8541248410545483 -0.27250556763773714 -1.0330869908164853 1.1421997238854522 0.2482389817808886 2.2272397107304607 0.19370176996495672 -0.2175970885253156 0.7880989118727265 -0.6718459682145526 -1.908215173595578 -0.45955100862844084 1.6884426746854984 1.0777676215533116 0.5974279583142936 1.092621912957325 -1.006913160634595 -1.0102532807514213 -1.4159409637025036 -0.5251136250205989 -0.614164040122052 -1.214440266518418 -0.08316824528906322 -0.7670521185047564 -0.9791622157735719 -0.49155070146348895 -1.2280558004193236 -0.01411947012051762 -0.31143129816865717 0.754950707255532 0.40446435206694215 -0.9427728785112601 -0.7356293812191008 -1.6000784870177926 -0.039200324348545396 -0.04239517713675925 0.7811350789603837 1.1077934784914405 -0.09485853714279793 0.0801975926965135 -1.0422023228541921 0.04439215296213 0.7116805837129873 1.4316023243888443 0.8605690540179952 2.9040777328429663 -0.15499432609242986 -0.46927646344632085 2.6867989468890183 -0.793924003194936 0.39882926526835183 -0.19287181786449364 1.6107074274865485 0.149804040140742 0.9818053098233737 1.1535835402423615 -0.16562326656118573 -0.44996619315348313 1.846373200588117 -0.3478342622777235 -1.0618280675049196 1.0757202521059797 -1.3675276053961223 -0.44141290426683333 0.27341573815683234 1.6558968795389932 0.7411737080760977 0.6656017870770536 1.1232134125909365 -1.4915468232632765 0.24549304360463525 -0.1089255567588253 -0.392699241111214 -0.25704578143924117 -0.9519229204416444 -1.5745412619786368 0.6765539152131832 -1.6304681550532436 0.436283553460068 -0.291384149709795 0.27141927655209386 -0.01850654344461974 -1.7419514452369163 0.016287681416430014 2.8385081744722727 -2.0622111403304806 -2.993472161547399 -1.5508680867314129 0.3060852033653954 -2.036918170091647 0.16659462933551952 1.129284558485681 -0.14839430427740896 2.3874140383619333 -2.2965486815389284 -3.2043044205450557 -0.07922211615712162 -1.159660342564061 -1.6596943989082125 -0.8901855913328476 1.237794367863326 0.6149011753983925 1.7042868408066068 -0.9093783622112146 -0.8475438454029209 -1.3325685728224341 0.9066306242627483 -0.9046945835822999 -0.564037555779306 0.7520211923135628 -1.2265990133681393 1.5809957593547288 -0.9171335806766011 0.01058703148722693 -0.16533838833091524 1.9846990648859304 -1.9964556912012266
-3.547793518480206 2.932208429640911 2.7330278959495704 -0.5461928142884012 0.11995970308579985 -0.6381902278333202 -0.5911498386150658 2.9471735355911757 1.93374005733956 -0.21328020631751657 1.5562013260188683 0.711298260672904 -1.1263223905335633 0.24671611737845894 0.27002908107278656 -0.4616706260746049 2.2968119625026446 2.269727961801659 -0.07545133626077974 1.2559818374056304 -0.2868541230499253 -0.9417878888901715 1.1171391813723985 -1.4000800854108468 0.3847018247280342 -0.69921741824897 0.5984713119771435 1.1462857210293678 -1.562341377478335 1.765689155173488 -2.0559679876342467 0.060359474924663786 0.8874697350635813 -0.8755706696331501 -1.0817685151825887 -0.7994356770417845 0.8443898731549716 0.7018548558718171 0.569388021457942 0.9285155972612977 -0.3448931773715286 0.7085176126039733 -1.314781424042342 -0.262349967260974 0.9108004393697217 0.18145509138711974 0.769768746104971 1.5268416419098285 1.8981030248622406 -0.8157200160241047 -0.614349930880613 -0.6101245799453556 0.5966903088173208 0.2819250611794241 -2.0608209448511734 -0.7840543094897077 -0.4930789651825572 0.4036909642360273 -0.7473690382535323 1.6914279825660676 1.6851007547964594 -3.5721302954533574 -1.1107214507715129 1.2374909776902947 1.4227055361198466 -1.8527798754454088 -0.8050499379047684 -0.3403217559507623 -0.013452525960480058 1.6865832528792564 -0.6360726672696853 0.2883839294308904 -0.9322220995786074 1.3086259459639076 -0.8247515300987538 -1.8200515319744528 -0.05547669291106574 -0.6628692186372391 0.5281218157193034 0.18030477983276044 0.5205499169093165 0.31934669636099194 -1.4961542401283008 -0.43017435523853653 1.4826855162179047 2.8953678637737945 -2.441286877120989 0.23413082451428063 0.6208136842280856 0.6603420813400112 1.6324957270062337 0.8637996451401512 1.229749643181979 0.8619155407435607 0.2631341537251662 0.0946937294301595 0.5502608137101879 0.6071783528328382 0.6223524894701152 -1.2021269963687038 -0.8492379452758922 -0.020464438501938947 -0.40502305278388956 0.23158748926713663 -1.5960634523211286 -0.9164524954491765 0.153634983851058 0.2680781279940028 -0.583036722589628 -1.5117832049148092 1.6074644950692185 -0.2251805572995283 1.3031806065786202 1.0571558588402308 1.340068480743905 1.0443887889825496 -0.7063499155286932 -0.6496061829797458 -1.331842750400003 -0.12254726130731797 0.5682420807789569 0.38037954320359646 0.4405891228139573 1.0953015166720168 -0.29927203709830397 -0.5602330944315513 0.8013544913310522 -1.2746570452176307 1.3468165981010158 -1.1221358632560416 0.19491841598087722 -0.8255218326058751 -0.8005556495788406 -0.8188606185356155 -0.7535119179264764 -1.4037328516720857 -2.316887393096281 1.9798134546588553 1.7728324510864888 -0.2491527518444096 0.4226610775806269 -0.7256216192741117 -1.5109267704517848 -0.02974920623797457 -0.870257742060669 0.08893728656235651 -0.6978346789688304 -0.20160456975180116 2.2506472910211235 0.515860481853447 -0.5014864725199621 -0.4709839330557307 -1.980489911900589 0.09716121713404557 -0.7708779200087499 0.0769006671127966 0.15436851958297285 0.7131029179818106 -1.5028463074364955 1.3892238594226332 1.2707163154023278 0.4253633070031384 0.16319743072851248 -1.2913157368202342 -0.8108156367439521 0.8599954409027124 -1.6454229765908628 0.04658170441428107 -0.15654650107089813 1.0168265630935651 -2.5877492544830076 0.823492203770356 0.7313724057149598 -0.3832656065021399 -1.2036616878456754 0.2710130422526107 0.1384798733771744 1.8643760649234409 0.3290047882760463 -0.7841980341564235 -0.7863539041571618 0.43706285482825374 1.4970093890397445 1.205180695593363 -2.9725760348246806 -3.8616925614630655 0.9339555373299463 -0.30901728941052586 0.2622607499812774 0.6575961431637578 -3.158884340539043 -1.5681019341111961
1.161078048847194 1.0989352567698623 -0.11479641371730552 0.2821595457877334 -1.7760931241156315 0.37384996961519484 -1.1452495664553695 3.018811925863769 0.23676671947523092 -1.221464263244735 0.16988358449943647 -1.2122077776434736 -0.2344110747588608 0.0356534875375515 -0.509760025382664 0.12648696268135637 -0.20423892205085473 -0.004532854873347033 1.7529246564189682 -1.6859456192952578 1.0616203223694878 -0.662185305196337 0.828474744586612 -0.047596775942356735 -0.9416040550141396 -0.4016777904607404 -0.5229510701516413 -0.677321389506827 -0.4319741274514367 -0.8197106252407367 0.638163745470759 0.37899834658535375 -0.6221593996227027 0.6486687587671409 -2.4480928442992287 0.7118011684512515 -0.0341578768286315 -0.2915258174939818 -2.584727179827232 -2.0535917740925855 2.0930358390208212 -0.32397751026478394 0.6011771409440808 1.314110880337879 -1.3435201867379314 -0.8239717145099357 -1.3942555083092698 0.7237729961011471 -0.8808527439676959 1.5383373012542538 -0.21338819265029055 -0.0818803797155751 -0.4242430773557661 -0.019402830006644004 0.6179119372002584 2.0213056603653707 0.5789545821004545 -0.9134964981446462 -0.7846603185048229 -0.5069055866530043 2.7332652087713574 -1.0320145836879129 -2.0761452339130693 0.3231143909335403 0.04515474215976739 -0.29264836113419923 1.152064275384358 0.37111225896905764 -1.5194654040504154 0.1034547634522412 -1.407764341428982 0.40844030599555464 -0.8503121521766774 1.0982999371787086 0.6545005349575695 1.234912418329841 0.029699841057277885 -1.0997394978387125 -1.318208190335704 -0.9833284313361194 0.8958031946299412 0.7299014775963881 0.3618426607416736 0.9731571472300724 -0.9798008777988351 0.6509819802813498 -0.7009562553169476 -0.1714920666371369 0.08844646296886702 1.3594718249711812 0.7833557407607863 1.5412045954997198 1.1606872411666784 1.5887517491510637 -0.10397618317334996 -0.823290115061879 0.3357305370356541 2.0033323637164013 -0.7131229725864686 0.24608748265552458 0.24883727748651985 -0.434386079327039 0.21312979678258134 1.0561852673968457 -1.2547459081160004 -0.08597640416181968 1.1041443117746275 0.38051092657513824 0.8902434411539766 -0.24404602674546355 1.1610564515806392 -0.24936975295122216 0.22518801349869605 1.183299836359872 0.08765044943013292 0.8951750741276389 -1.0626788455409892 1.0773616443641447 -1.436321070020752 -1.03563958203501 -0.4141617818603642 -1.1425365383995807 1.1532258997926268 -0.937423698384205 -0.23419664475520957 -1.3895686443565618 -1.5882856081479226 -2.4878428705036573 -0.08543184451225931 -0.6961732321060075 -1.2182341863432116 1.2040676650348425 -0.6474528840821688 -0.27533429533578385 -1.0888066529762925 0.6933645590126187 -1.086684464426967 -1.8244344915334965 -0.07520759568108983 -1.5642699619596157 -0.3391477902473191 1.0231175383085993 0.3171471176065119 -1.5115158101860355 0.26166785359228484 -1.3002366934589478 0.8370912826110293 -0.694680449610565 2.3515129535899497 0.7100672164792804 0.8365840039573076 -0.026174087292206532 0.2806963309786456 -0.374921862523135 0.3942285332715469 0.6308201606214943 -0.5603356814476866 2.475545026972911 0.054969671367660164 -0.1670844244877445 1.0351161054313722 -0.4006861159714325 0.4517178857372672 0.5115428283146997 1.354720426329125 1.0148740673528844 -1.0536190493315662 -0.005601662457493579 -0.30643615894691095 -1.0731805164032615 1.1229079655353758 -0.8252333548311788 -1.5167899141007812 1.9418973963393718 -0.2891696585569794 1.8908337448943373 0.5621071715258125 -1.0402469989000342 -0.6804568498120153 1.284613127989078 1.3479807936124462 -1.2778344145043476 0.08857424679598296 -0.4659368575501266 -0.8153600615815247 1.6694735897821635 0.9745735679616249 0.8568836347466081 1.0286572371799059 -1.523377594620628 -1.2470523961264846 0.7160653430442441
0.7401555512242285 0.5344320742080473 1.2002580614807652 0.6658247017211372 -0.4120074545215227 -0.21121432492742334 0.8890417075363914 -0.045424965102018544 -0.03013564304311584 -0.3818111334438005 -0.10504653341939327 0.6149106884800893 0.6333257006521673 -0.08932732291192358 0.31447137054656166 -0.3162832269443198 0.11968176683406487 2.0997782999509775 0.41806111691477027 -0.7232446344015028 0.7465622260815207 -0.5957071189684451 0.925139224589897 -0.6087431262167968 1.2310261959015574 -1.2480378999682056 1.1253847092106424 -0.2709541639902172 -0.7740810003270797 1.8500948724140784 4.48264842769597 -2.7966711838318288 3.0584390533370875 0.7281492707919718 -1.4380074565842396 0.77524519583851 -0.7847577633146355 1.6023870805463114 -1.6407484539333292 0.07928330841236023 0.9759203117975064 -0.023412208276353225 -0.7966987377265957 -0.6800945813765901 0.04094404651252949 0.4641674243545297 0.39546523389212535 0.4415926243778073 -1.6918139051505767 0.5658206158216578 1.0070725690305944 0.021223685265466675 -0.6983625264478424 0.8217968183458041 1.283029585552042 -1.8908602272568984 1.3225903785637998 -1.607751173071702 1.5865148894007453 3.434075168318428 -0.6543910059628988 -0.0341650759174831 0.00495065913705599 0.9698363103869555 0.475073272633756 -0.37037409525145243 -1.4114389620670917 1.7626138586822742 2.009651878176526 -2.753914509590593 0.9235428266370547 -0.7365832604919378 2.038961168663605 -0.9910394268271318 0.3159520688571462 -0.26062835658417693 -0.9779003183420126 0.43594956715941696 -1.112737195649961 1.4219838274624736 -2.551879280059276 0.17985895054459347 -0.30352232773422566 -0.07228450849702389 1.1665035907381394 0.4300709968914529 -0.5773026483193284 -0.6609707160629454 -0.08614532563951616 0.36306984828055533 -0.8372483770141839 -0.3588825496720851 -1.204009043882765 -0.47863347918118865 0.15354293835788393 0.8603384260644279 -0.19786464309339472 0.3593605177497682 0.4687792120949281 3.5335231246041205 -1.7792470963635811 1.2955814540751234 -0.7532560931619285 1.4056421528796568 -0.04189509757188914 -0.48616681144375623 0.043627506881963575 -0.9123664983052611 -0.7830353813068902 1.0370243781976785 0.8671929870924161 0.5054768246262779 -0.01648694191142967 -0.3851507393399948 0.6873898294864227 0.263089930750792 0.5242571905575746 0.3108898238428904 -0.48322469809629687 -1.088683240024551 -2.9583979435520855 2.3030265759537882 -3.0317319763595467 -1.995397682250357 -0.5849974458604247 0.4619318501557915 -0.6418494218524623 1.9403529346703874 0.5118061092784154 1.342301740949798 -1.414508859241667 0.33003065843739937 -1.0199625376193853 0.6105480406360195 -0.5102318228127599 -1.3441195108848272 0.15100500242737863 0.8091958417523419 -0.05197767861887178 0.02886860340523415 0.8609385215422721 -2.3603269523371546 1.5138485720842703 -1.484735456768398 1.1567503680061175 0.599125914842007 0.660903867380752 2.355888971170459 -1.8288287639464504 1.5812976068658637 -0.7226849052432909 0.1408100641722478 -2.1773780500133273 -0.4117503442053941 -1.3107818159646458 -0.7445865904123886 0.06934008115671929 0.357106688718585 -0.2582894240383552 -0.9079737685542041 -1.2205700335652399 -1.784202126376011 0.29964613260827105 -0.34203462487681097 -1.134181481566666 -0.3071997765858128 -0.3597322992668901 0.5821373507038103 -0.8992795832143158 1.2804158020782785 0.1037085313342601 2.3633446561175555 -1.352051107027078 -2.5762050012888342 0.8694460447926509 0.44911978599278785 -0.847581897729708 -2.5968123931265406 2.272014186732674 -4.841698356183856 2.794262574390336 -1.9317608221260019 1.306181598188473 0.27596704382377635 -0.20308372540048894 -2.1458828076185235 -0.9539718325508731 0.11952107288648449 -0.15705995037220694 1.4524431723935953 -0.2665686333280119 -1.0585239428323514
-1.3962787093868856 -0.6535847080115196 -1.225339172819109 -1.8835886332961493 -0.29273397886947 -0.8715998579108601 0.7618224946747009 0.8958721001946636 -0.05354862265041746 -0.23921055303003316 0.11946116618282651 -1.6527475352767342 0.4880334323388498 0.7846328077009971 0.5053755231617232 -0.1956280404533921 -0.07074236082088461 -1.9617236870366794 1.2385119627556411 -1.1727261746090833 0.8869313460616081 0.3801247468803131 1.7851292661759708 -0.22796531913351709 0.5817655691866884 0.20371544544721687 -1.2727521148854337 -0.33183942951136397 -1.6771035955235953 -1.7477618812711062 -0.9601262821880433 0.3394277833815832 -0.6865583347240627 0.12765321507531563 -0.9772400590501944 -0.06350753363534224 -0.7899009980784719 -0.15773717894488962 -0.5303813011774414 -1.1218725822923261 0.9118718180570295 -0.5195039921433052 0.3909979421493911 0.7915038237892175 -0.9313926616987765 0.07184459274612788 -1.3018829708131192 -0.4356389778975336 1.4608635352468067 0.8711180331784352 1.0579842682787972 0.05062862079014506 -0.07962603646375965 -0.35245864842361235 -0.3575358058362036 -0.40003665531289173 -0.5843641831518 -0.386402866579541 0.11157739255937558 -1.0189009291240902 -0.9317726707460147 0.01647408639562324 -1.1164562963727613 1.3942886755400503 0.8203762838491936 0.012179058564695155 -0.2588542954028897 -0.1539815685571993 -2.178870575398454 1.1234692373554844 0.640688825885458 0.38738734197999736 -2.953234654183591 0.6191018437433016 0.2901273944845584 0.05074637731493196 -2.05120064815259 -0.8224691618224802 0.5877680666270264 1.4485770045699697 0.42252738021624003 -1.3117953448308246 1.125855478199474 -0.06644681876932428 0.1515279648103842 0.5719876638643182 1.227412253298054 -0.8710570980335128 1.5980519435060672 -1.2753301600252553 1.7351786452894569 0.6116579858707465 0.744333336751002 -0.28158079046612794 -0.9135684890331621 0.9329234965210063 0.009190922470648686 1.0058070720546097 -0.5474233442613926 -1.6719575325462819 -0.9460186391420675 -0.2330890135133276 -0.28344972535406665 0.05186686407262035 1.5231824478906864 0.0116075023319413 0.38031320874203534 -0.7542698791384235 -0.7023803893579839 -0.273041128426233 1.274198360413657 0.8060974053326762 1.6179880203083619 1.1871269234154458 -0.8245846655035863 -1.274567827937934 -0.6507372112603954 1.2702779423133284 -0.22137301062798004 0.36005625826521215 0.8724807178539168 -0.39505848537200994 0.04480790034330993 1.9561299949989863 0.31373269260832415 -0.3059237380868667 0.09672670069978825 -1.4080913857510977 -0.5579561254719165 0.4769949151365011 0.29883006446487886 -1.1595973505366095 0.07540711328640562 -2.2455907024338226 0.19332664601372512 -0.30710053200378723 0.06542711925555829 -0.011104851663909907 -0.7240871849074562 -0.034435555970050366 -0.262899926227173 3.127847268727581 -0.8835979108130008 -0.2840927582547043 -1.3068128040145686 -0.2508658778807744 0.3364334766399496 1.1348530537123938 1.35224291132291 -0.13483199221194198 -0.22443570871370377 -0.21168149437182898 1.0729645437377135 0.5777813877279598 -1.0014961033840817 -0.25770424095884653 -0.07549941588989578 0.7943353797007416 1.8930240676774366 0.4680276786408843 0.7282130341503718 0.737621214838149 -0.152445334418331 0.10450145954920068 0.7590063653821444 -0.17142496084462733 -0.8880803720643867 -0.1200795164931158 -0.25878436139690275 0.6693180595863764 1.7514020491268547 -0.16577521875801773 -0.477426603357281 1.532225274819245 -0.513092946410639 -0.16868750730880624 -0.5313724614461172 1.6200551872500357 0.8530292939975245 1.7689200034059602 -2.1544345538432768 -0.6056130652282473 -0.7138603649731254 0.007546701999006359 -1.0505067289548295 2.5482326844456242 0.39909845976933844 0.7945816913835929 0.9812257831708199 0.3015958001354741 -1.058971571892731 1.6897256551629802