An instance of this daemon is already running

     Program PWSCF v.7.1 starts on  8May2023 at 15:26:42 

     This program is part of the open-source Quantum ESPRESSO suite
     for quantum simulation of materials; please cite
         "P. Giannozzi et al., J. Phys.:Condens. Matter 21 395502 (2009);
         "P. Giannozzi et al., J. Phys.:Condens. Matter 29 465901 (2017);
         "P. Giannozzi et al., J. Chem. Phys. 152 154105 (2020);
          URL http://www.quantum-espresso.org", 
     in publications or presentations arising from this work. More details at
     http://www.quantum-espresso.org/quote

     Parallel version (MPI & OpenMP), running on       4 processor cores
     Number of MPI processes:                 4
     Threads/MPI process:                     1

     MPI processes distributed on     1 nodes
     612685 MiB available memory on the printing compute node when the environment starts
 
     Reading input from pw-si-18.in
Warning: card &CELL ignored
Warning: card / ignored

     Current dimensions of program PWSCF are:
     Max number of different atomic species (ntypx) = 10
     Max number of k-points (npk) =  40000
     Max angular momentum in pseudopotentials (lmaxx) =  4

     IMPORTANT: XC functional enforced from input :
     Exchange-correlation= PBE
                           (   1   4   3   4   0   0   0)
     Any further DFT definition will be discarded
     Please, verify this is what you really want


     gamma-point specific algorithms are used
 
     K-points division:     npool     =       2
     R & G space division:  proc/nbgrp/npool/nimage =       2
     Subspace diagonalization in iterative solution of the eigenvalue problem:
     a serial algorithm will be used

     Message from routine divide_et_impera:
     suboptimal parallelization: some nodes have no k-points
 
     Parallelization info
     --------------------
     sticks:   dense  smooth     PW     G-vecs:    dense   smooth      PW
     Min        2012    2012    534                99349    99349   13489
     Max        2013    2013    535                99352    99352   13490
     Sum        4025    4025   1069               198701   198701   26979
 
     Using Slab Decomposition
 


     bravais-lattice index     =            0
     lattice parameter (alat)  =      20.4996  a.u.
     unit-cell volume          =    8953.5260 (a.u.)^3
     number of atoms/cell      =           64
     number of atomic types    =            1
     number of electrons       =       256.00
     number of Kohn-Sham states=          128
     kinetic-energy cutoff     =      30.0000  Ry
     charge density cutoff     =     120.0000  Ry
     scf convergence threshold =      1.0E-06
     mixing beta               =       0.5000
     number of iterations used =            8  plain     mixing
     Exchange-correlation= PBE
                           (   1   4   3   4   0   0   0)

     GPU acceleration is ACTIVE.
     GPU-aware MPI enabled

     Message from routine print_cuda_info:
     High GPU oversubscription detected. Are you sure this is what you want?

     celldm(1)=  20.499640  celldm(2)=   0.000000  celldm(3)=   0.000000
     celldm(4)=   0.000000  celldm(5)=   0.000000  celldm(6)=   0.000000

     crystal axes: (cart. coord. in units of alat)
               a(1) = (   1.000000   0.000000   0.000000 )  
               a(2) = (   0.000000   1.004247   0.000000 )  
               a(3) = (   0.000000   0.000000   1.034939 )  

     reciprocal axes: (cart. coord. in units 2 pi/alat)
               b(1) = (  1.000000  0.000000  0.000000 )  
               b(2) = (  0.000000  0.995771  0.000000 )  
               b(3) = (  0.000000  0.000000  0.966241 )  


     PseudoPot. # 1 for Si read from file:
     /home/ppiaggi/pseudos/Si_ONCV_PBE_sr.upf
     MD5 check sum: 8553c464762ac42b85b1eed164b4d029
     Pseudo is Norm-conserving, Zval =  4.0
     Generated using ONCVPSP code by D. R. Hamann
     Using radial grid of 1510 points,  4 beta functions with: 
                l(1) =   0
                l(2) =   0
                l(3) =   1
                l(4) =   1

     atomic species   valence    mass     pseudopotential
        Si             4.00    28.08500     Si( 1.00)

     No symmetry found



   Cartesian axes

     site n.     atom                  positions (alat units)
         1           Si  tau(   1) = (  -0.0080902  -0.0036190   0.0009021  )
         2           Si  tau(   2) = (   0.0003818   0.2381871   0.2581485  )
         3           Si  tau(   3) = (   0.2575919  -0.0031686   0.2638117  )
         4           Si  tau(   4) = (   0.2572510   0.2363106   0.0033371  )
         5           Si  tau(   5) = (   0.1215729   0.1227243   0.1246040  )
         6           Si  tau(   6) = (   0.4985535  -0.0042128  -0.0036434  )
         7           Si  tau(   7) = (   0.5025608   0.2407531   0.2636791  )
         8           Si  tau(   8) = (   0.6273616   0.1268135   0.1414855  )
         9           Si  tau(   9) = (   0.7611746  -0.0057628   0.2744996  )
        10           Si  tau(  10) = (   0.7538219   0.2469452  -0.0087026  )
        11           Si  tau(  11) = (   0.0042753   0.4897923  -0.0003043  )
        12           Si  tau(  12) = (   0.2558039   0.4841710   0.2693058  )
        13           Si  tau(  13) = (   0.1173790   0.6083706   0.1377485  )
        14           Si  tau(  14) = (   0.3830668   0.3616299   0.1277805  )
        15           Si  tau(  15) = (   0.4998121   0.4862212   0.0022768  )
        16           Si  tau(  16) = (   0.6305885   0.6121005   0.1239470  )
        17           Si  tau(  17) = (   0.8733289   0.3641297   0.1353807  )
        18           Si  tau(  18) = (   0.7616876   0.4976892   0.2600786  )
        19           Si  tau(  19) = (  -0.0070570   0.7353654   0.2599707  )
        20           Si  tau(  20) = (   0.2431350   0.7283365   0.0041407  )
        21           Si  tau(  21) = (   0.3827331   0.8532017   0.1378231  )
        22           Si  tau(  22) = (   0.5013185   0.7291970   0.2750138  )
        23           Si  tau(  23) = (   0.7615631   0.7277924  -0.0036839  )
        24           Si  tau(  24) = (   0.8730129   0.8581643   0.1278429  )
        25           Si  tau(  25) = (   0.0016452   0.0012578   0.5310618  )
        26           Si  tau(  26) = (   0.2480289   0.2464286   0.5299423  )
        27           Si  tau(  27) = (   0.1289084   0.1241194   0.6605936  )
        28           Si  tau(  28) = (   0.3809745   0.1175930   0.3902560  )
        29           Si  tau(  29) = (   0.5052829   0.0023426   0.5395792  )
        30           Si  tau(  30) = (   0.6297245   0.1279809   0.6724937  )
        31           Si  tau(  31) = (   0.8747735   0.1164699   0.3925152  )
        32           Si  tau(  32) = (   0.7555698   0.2437825   0.5314236  )
        33           Si  tau(  33) = (   0.1256293   0.3729788   0.3972331  )
        34           Si  tau(  34) = (   0.0017531   0.4873762   0.5339167  )
        35           Si  tau(  35) = (   0.1262116   0.6184481   0.6625714  )
        36           Si  tau(  36) = (   0.6340726   0.3709378   0.3979245  )
        37           Si  tau(  37) = (   0.3768971   0.6128803   0.3947561  )
        38           Si  tau(  38) = (   0.3819021   0.3734508   0.6686550  )
        39           Si  tau(  39) = (   0.4961673   0.4854570   0.5321673  )
        40           Si  tau(  40) = (   0.6372903   0.6183646   0.6646908  )
        41           Si  tau(  41) = (   0.8713664   0.6030537   0.4004426  )
        42           Si  tau(  42) = (   0.8841410   0.3617980   0.6596363  )
        43           Si  tau(  43) = (   0.1218344   0.8511087   0.4058876  )
        44           Si  tau(  44) = (   0.2524457   0.7365482   0.5385182  )
        45           Si  tau(  45) = (   0.6345619   0.8561495   0.3949598  )
        46           Si  tau(  46) = (   0.3785827   0.8590771   0.6649030  )
        47           Si  tau(  47) = (   0.7455663   0.7423126   0.5283371  )
        48           Si  tau(  48) = (   0.8826389   0.8511636   0.6735532  )
        49           Si  tau(  49) = (   0.0070820   0.2388946   0.7919277  )
        50           Si  tau(  50) = (   0.2452978   0.0059162   0.7897082  )
        51           Si  tau(  51) = (   0.3789266   0.1208601   0.9340305  )
        52           Si  tau(  52) = (   0.4975972   0.2480444   0.8075758  )
        53           Si  tau(  53) = (   0.7461313   0.0080508   0.7977009  )
        54           Si  tau(  54) = (   0.8813922   0.1295982   0.9263896  )
        55           Si  tau(  55) = (   0.1314777   0.3697915   0.9310244  )
        56           Si  tau(  56) = (   0.2515275   0.4836675   0.7903654  )
        57           Si  tau(  57) = (   0.6290373   0.3626873   0.9348148  )
        58           Si  tau(  58) = (   0.3748575   0.6145662   0.9255230  )
        59           Si  tau(  59) = (   0.7539965   0.4920030   0.7973199  )
        60           Si  tau(  60) = (   0.8852527   0.6109062   0.9403560  )
        61           Si  tau(  61) = (  -0.0048634   0.7419084   0.8036249  )
        62           Si  tau(  62) = (   0.1230812   0.8609757   0.9326978  )
        63           Si  tau(  63) = (   0.4946056   0.7425641   0.8044042  )
        64           Si  tau(  64) = (   0.6301983   0.8528470   0.9349435  )

     number of k points=     1
                       cart. coord. in units 2pi/alat
        k(    1) = (   0.0000000   0.0000000   0.0000000), wk =   2.0000000

     Dense  grid:    99351 G-vectors     FFT dimensions: (  72,  72,  75)

     Estimated max dynamical RAM per process >     145.61 MB

     Estimated total dynamical RAM >     558.19 MB

     Initial potential from superposition of free atoms

     starting charge     255.9608, renormalised to     256.0000
     Starting wfcs are  256 randomized atomic wfcs

     total cpu time spent up to now is        5.4 secs

     Self-consistent Calculation

     iteration #  1     ecut=    30.00 Ry     beta= 0.50
     Davidson diagonalization with overlap
     ethr =  1.00E-02,  avg # of iterations =  2.0

     Threshold (ethr) on eigenvalues was too large:
     Diagonalizing with lowered threshold

     Davidson diagonalization with overlap
     ethr =  6.54E-04,  avg # of iterations =  2.0

     total cpu time spent up to now is        5.6 secs

     total energy              =    -503.27629737 Ry
     estimated scf accuracy    <       1.87447488 Ry

     iteration #  2     ecut=    30.00 Ry     beta= 0.50
     Davidson diagonalization with overlap
     ethr =  7.32E-04,  avg # of iterations =  1.0

     total cpu time spent up to now is        5.7 secs

     total energy              =    -503.25959383 Ry
     estimated scf accuracy    <       0.35934205 Ry

     iteration #  3     ecut=    30.00 Ry     beta= 0.50
     Davidson diagonalization with overlap
     ethr =  1.40E-04,  avg # of iterations =  2.0

     total cpu time spent up to now is        5.8 secs

     total energy              =    -503.28787372 Ry
     estimated scf accuracy    <       0.00777502 Ry

     iteration #  4     ecut=    30.00 Ry     beta= 0.50
     Davidson diagonalization with overlap
     ethr =  3.04E-06,  avg # of iterations = 18.0

     total cpu time spent up to now is        6.0 secs

     total energy              =    -503.31052359 Ry
     estimated scf accuracy    <       0.03739615 Ry

     iteration #  5     ecut=    30.00 Ry     beta= 0.50
     Davidson diagonalization with overlap
     ethr =  3.04E-06,  avg # of iterations =  2.0

     total cpu time spent up to now is        6.1 secs

     total energy              =    -503.30475942 Ry
     estimated scf accuracy    <       0.03128516 Ry

     iteration #  6     ecut=    30.00 Ry     beta= 0.50
     Davidson diagonalization with overlap
     ethr =  3.04E-06,  avg # of iterations = 14.0

     total cpu time spent up to now is        6.2 secs

     total energy              =    -503.30202893 Ry
     estimated scf accuracy    <       0.01293070 Ry

     iteration #  7     ecut=    30.00 Ry     beta= 0.50
     Davidson diagonalization with overlap
     c_bands:  1 eigenvalues not converged
     ethr =  3.04E-06,  avg # of iterations = 20.0

     total cpu time spent up to now is        6.4 secs

     total energy              =    -503.30414040 Ry
     estimated scf accuracy    <       0.00436556 Ry

     iteration #  8     ecut=    30.00 Ry     beta= 0.50
     Davidson diagonalization with overlap
     ethr =  1.71E-06,  avg # of iterations = 18.0

     total cpu time spent up to now is        6.6 secs

     total energy              =    -503.30443418 Ry
     estimated scf accuracy    <       0.00037964 Ry

     iteration #  9     ecut=    30.00 Ry     beta= 0.50
     Davidson diagonalization with overlap
     ethr =  1.48E-07,  avg # of iterations = 17.0

     total cpu time spent up to now is        6.8 secs

     total energy              =    -503.30456071 Ry
     estimated scf accuracy    <       0.00117558 Ry

     iteration # 10     ecut=    30.00 Ry     beta= 0.50
     Davidson diagonalization with overlap
     c_bands:  1 eigenvalues not converged
     ethr =  1.48E-07,  avg # of iterations = 20.0

     total cpu time spent up to now is        7.0 secs

     total energy              =    -503.30459404 Ry
     estimated scf accuracy    <       0.00015206 Ry

     iteration # 11     ecut=    30.00 Ry     beta= 0.50
     Davidson diagonalization with overlap
     ethr =  5.94E-08,  avg # of iterations = 20.0

     total cpu time spent up to now is        7.2 secs

     total energy              =    -503.30462352 Ry
     estimated scf accuracy    <       0.00001899 Ry

     iteration # 12     ecut=    30.00 Ry     beta= 0.50
     Davidson diagonalization with overlap
     ethr =  7.42E-09,  avg # of iterations = 13.0

     total cpu time spent up to now is        7.3 secs

     total energy              =    -503.30462125 Ry
     estimated scf accuracy    <       0.00003646 Ry

     iteration # 13     ecut=    30.00 Ry     beta= 0.50
     Davidson diagonalization with overlap
     c_bands:  1 eigenvalues not converged
     ethr =  7.42E-09,  avg # of iterations = 20.0

     total cpu time spent up to now is        7.5 secs

     total energy              =    -503.30462413 Ry
     estimated scf accuracy    <       0.00000154 Ry

     iteration # 14     ecut=    30.00 Ry     beta= 0.50
     Davidson diagonalization with overlap
     ethr =  6.01E-10,  avg # of iterations = 15.0

     total cpu time spent up to now is        7.6 secs

     End of self-consistent calculation

          k = 0.0000 0.0000 0.0000 ( 12425 PWs)   bands (ev):

    -6.0766  -5.2563  -5.0495  -4.9940  -4.9411  -4.7726  -4.7392  -4.4377
    -4.1639  -4.1340  -4.0834  -4.0267  -3.9641  -3.9030  -3.8854  -3.8464
    -3.7963  -3.6996  -3.6431  -3.6044  -3.4888  -3.4346  -3.1282  -2.2835
    -2.2135  -2.1093  -2.0566  -1.9396  -1.9155  -1.8285  -1.8123  -1.7260
    -1.7227  -1.6812  -1.6393  -1.5741  -1.5277  -1.4728  -1.3866  -1.3375
    -1.2558  -1.1872  -0.9479  -0.9133  -0.7440   0.2028   0.2770   0.2920
     0.3216   0.3477   0.4164   0.4321   0.5084   0.5292   0.5435   0.6145
     0.6327   1.6994   1.7514   1.7999   1.8246   1.8853   1.9931   2.0004
     2.0431   2.0507   2.0667   2.0974   2.1100   2.1399   2.1534   2.2052
     2.2322   2.2399   2.3252   2.3468   2.3480   2.4197   2.4886   2.5021
     2.5296   2.5562   2.6147   2.6297   2.6816   2.7354   2.8005   2.9315
     3.0319   3.0351   3.0697   3.1672   3.2933   3.7038   3.7952   3.8364
     3.8712   3.9481   4.0389   4.0497   4.0796   4.1262   4.1399   4.2370
     4.2869   4.3026   4.3608   4.4037   4.4525   4.5029   4.5100   4.5479
     4.5789   4.5928   4.6654   4.7251   4.8125   4.8555   4.8929   5.0238
     5.0511   5.0691   5.1365   5.1925   5.5170   5.7305   6.0806   6.2114

     highest occupied level (ev):     6.2114

!    total energy              =    -503.30462446 Ry
     estimated scf accuracy    <       0.00000030 Ry

     The total energy is the sum of the following terms:
     one-electron contribution =     136.75308068 Ry
     hartree contribution      =      40.05862599 Ry
     xc contribution           =    -153.18464051 Ry
     ewald contribution        =    -526.93169062 Ry

     convergence has been achieved in  14 iterations

     Forces acting on atoms (cartesian axes, Ry/au):

     atom    1 type  1   force =     0.03359016   -0.05618235    0.06126848
     atom    2 type  1   force =     0.00197343    0.02628191    0.02830862
     atom    3 type  1   force =    -0.03022143   -0.05751712   -0.01910564
     atom    4 type  1   force =    -0.04525658    0.05895110    0.07300598
     atom    5 type  1   force =     0.02129226   -0.04298066    0.03588445
     atom    6 type  1   force =     0.06941825   -0.08872146    0.12148345
     atom    7 type  1   force =     0.00949326    0.04352253    0.02099426
     atom    8 type  1   force =     0.02845434   -0.05156767   -0.04314010
     atom    9 type  1   force =    -0.05789549   -0.06476966   -0.07229569
     atom   10 type  1   force =     0.02797185   -0.04041527    0.16577208
     atom   11 type  1   force =     0.01655150   -0.05364413    0.12475090
     atom   12 type  1   force =    -0.00488059    0.02004754   -0.04242108
     atom   13 type  1   force =     0.03207711    0.00084315    0.01717877
     atom   14 type  1   force =    -0.02613775   -0.00428813    0.04883544
     atom   15 type  1   force =     0.00488072    0.03047386    0.04582329
     atom   16 type  1   force =    -0.01966225    0.00566944    0.04876909
     atom   17 type  1   force =     0.02137658   -0.00097028   -0.02272765
     atom   18 type  1   force =    -0.05318272   -0.03449507   -0.01179357
     atom   19 type  1   force =     0.00872094   -0.00135253    0.03715627
     atom   20 type  1   force =     0.02705493    0.01986953    0.07985893
     atom   21 type  1   force =    -0.03037525    0.04577910   -0.00881900
     atom   22 type  1   force =     0.04393260    0.02920291   -0.05830244
     atom   23 type  1   force =    -0.06261113    0.06682114    0.10938464
     atom   24 type  1   force =     0.00398592    0.05308057    0.02814270
     atom   25 type  1   force =    -0.00102020   -0.06793956    0.00013186
     atom   26 type  1   force =     0.04718433    0.00411177   -0.01710350
     atom   27 type  1   force =    -0.01852990   -0.00729449   -0.02024332
     atom   28 type  1   force =    -0.01525572    0.00575073    0.06326825
     atom   29 type  1   force =    -0.00129813   -0.05193356   -0.03082116
     atom   30 type  1   force =    -0.03781479    0.01277181   -0.02813177
     atom   31 type  1   force =     0.03875942    0.02886286    0.05623003
     atom   32 type  1   force =    -0.00372492   -0.00381150   -0.01566028
     atom   33 type  1   force =    -0.00893010   -0.04358555    0.00615970
     atom   34 type  1   force =     0.00912115    0.02903034   -0.01752143
     atom   35 type  1   force =    -0.02288189   -0.02005182    0.03095608
     atom   36 type  1   force =    -0.02089809   -0.01125314    0.00187678
     atom   37 type  1   force =    -0.02546839   -0.02237665    0.05986534
     atom   38 type  1   force =    -0.02245975   -0.06153056   -0.01503094
     atom   39 type  1   force =     0.05577052    0.04651744   -0.02110858
     atom   40 type  1   force =    -0.07521925   -0.00506714    0.01135780
     atom   41 type  1   force =     0.02497455    0.06242525    0.02749628
     atom   42 type  1   force =    -0.02260318    0.00558318    0.03347931
     atom   43 type  1   force =     0.00301678    0.06542039   -0.01401405
     atom   44 type  1   force =     0.01592310    0.00241310   -0.04074127
     atom   45 type  1   force =    -0.03882125    0.07878162    0.01403034
     atom   46 type  1   force =    -0.01006764    0.07271886    0.00387489
     atom   47 type  1   force =     0.06966899   -0.02985429    0.02130066
     atom   48 type  1   force =    -0.06492481    0.11066013   -0.06353157
     atom   49 type  1   force =     0.00257479    0.03946386    0.00685689
     atom   50 type  1   force =     0.04290569   -0.07964626    0.02722582
     atom   51 type  1   force =    -0.01828953   -0.02369414   -0.13276598
     atom   52 type  1   force =     0.01626928   -0.00268221   -0.04004584
     atom   53 type  1   force =     0.04694794   -0.09120954    0.01331600
     atom   54 type  1   force =    -0.00393299   -0.04295871   -0.08891969
     atom   55 type  1   force =     0.01696046   -0.05437807   -0.08484741
     atom   56 type  1   force =    -0.01080816    0.05539208    0.01006188
     atom   57 type  1   force =    -0.05013703    0.06611443   -0.12317173
     atom   58 type  1   force =    -0.01339320   -0.02741013   -0.05201082
     atom   59 type  1   force =     0.02408167   -0.01391277   -0.00631807
     atom   60 type  1   force =    -0.00532838   -0.01374239   -0.17302429
     atom   61 type  1   force =     0.05283261   -0.04720528    0.00653338
     atom   62 type  1   force =    -0.00739069    0.06362596   -0.06496686
     atom   63 type  1   force =     0.04628396   -0.01378703   -0.04152540
     atom   64 type  1   force =    -0.03462792    0.08204253   -0.07052950

     Total force =     0.664075     Total SCF correction =     0.000898


     Computing stress (Cartesian axis) and pressure

          total   stress  (Ry/bohr**3)                   (kbar)     P=       10.79
   0.00017343  -0.00016522   0.00004937           25.51      -24.30        7.26
  -0.00016522   0.00013859  -0.00005008          -24.30       20.39       -7.37
   0.00004937  -0.00005008  -0.00009195            7.26       -7.37      -13.53

 
     init_run     :      1.21s CPU      5.31s WALL (       1 calls)
     electrons    :      2.09s CPU      2.26s WALL (       1 calls)
     forces       :      0.04s CPU      0.05s WALL (       1 calls)
     stress       :      0.14s CPU      0.14s WALL (       1 calls)

     Called by init_run:
     wfcinit      :      0.55s CPU      4.19s WALL (       1 calls)
                                        4.19s GPU  (       1 calls)
     potinit      :      0.21s CPU      0.30s WALL (       1 calls)
     hinit0       :      0.43s CPU      0.46s WALL (       1 calls)

     Called by electrons:
     c_bands      :      1.51s CPU      1.60s WALL (      15 calls)
     sum_band     :      0.29s CPU      0.34s WALL (      15 calls)
     v_of_rho     :      0.14s CPU      0.25s WALL (      15 calls)
     mix_rho      :      0.13s CPU      0.15s WALL (      15 calls)

     Called by c_bands:
     init_us_2    :      0.05s CPU      0.06s WALL (      31 calls)
     init_us_2:gp :      0.05s CPU      0.05s WALL (      31 calls)
     regterg      :      1.37s CPU      1.46s WALL (      15 calls)

     Called by *egterg:
     rdiaghg      :      0.73s CPU      1.46s WALL (     198 calls)
                                        1.43s GPU  (     198 calls)
     h_psi        :      0.97s CPU      3.93s WALL (     200 calls)
                                        3.93s GPU  (     200 calls)
     g_psi        :      0.00s CPU      0.00s WALL (     184 calls)
                                        0.00s GPU  (     184 calls)

     Called by h_psi:
     h_psi:calbec :      0.51s CPU      3.38s WALL (     200 calls)
                                        3.38s GPU  (     200 calls)
     vloc_psi     :      0.33s CPU      0.41s WALL (     200 calls)
                                        0.41s GPU  (     200 calls)
     add_vuspsi   :      0.10s CPU      0.12s WALL (     200 calls)
                                        0.12s GPU  (     200 calls)

     General routines
     calbec       :      0.51s CPU      3.39s WALL (     205 calls)
     fft          :      0.51s CPU      0.65s WALL (     127 calls)
                                        0.13s GPU  (      81 calls)
     ffts         :      0.04s CPU      0.04s WALL (      15 calls)
     fftw         :      0.37s CPU      0.52s WALL (    1596 calls)
                                        0.46s GPU  (    1596 calls)
 
     Parallel routines
 
     PWSCF        :      3.53s CPU      7.86s WALL

 
   This run was terminated on:  15:26:50   8May2023            

=------------------------------------------------------------------------------=
   JOB DONE.
=------------------------------------------------------------------------------=
