An instance of this daemon is already running
An instance of this daemon is already running
An instance of this daemon is already running

     Program PWSCF v.7.1 starts on  8May2023 at 15:38:11 

     This program is part of the open-source Quantum ESPRESSO suite
     for quantum simulation of materials; please cite
         "P. Giannozzi et al., J. Phys.:Condens. Matter 21 395502 (2009);
         "P. Giannozzi et al., J. Phys.:Condens. Matter 29 465901 (2017);
         "P. Giannozzi et al., J. Chem. Phys. 152 154105 (2020);
          URL http://www.quantum-espresso.org", 
     in publications or presentations arising from this work. More details at
     http://www.quantum-espresso.org/quote

     Parallel version (MPI & OpenMP), running on       4 processor cores
     Number of MPI processes:                 4
     Threads/MPI process:                     1

     MPI processes distributed on     1 nodes
     614769 MiB available memory on the printing compute node when the environment starts
 
     Reading input from pw-si-82.in
Warning: card &CELL ignored
Warning: card / ignored

     Current dimensions of program PWSCF are:
     Max number of different atomic species (ntypx) = 10
     Max number of k-points (npk) =  40000
     Max angular momentum in pseudopotentials (lmaxx) =  4

     IMPORTANT: XC functional enforced from input :
     Exchange-correlation= PBE
                           (   1   4   3   4   0   0   0)
     Any further DFT definition will be discarded
     Please, verify this is what you really want


     gamma-point specific algorithms are used
 
     K-points division:     npool     =       2
     R & G space division:  proc/nbgrp/npool/nimage =       2
     Subspace diagonalization in iterative solution of the eigenvalue problem:
     a serial algorithm will be used

     Message from routine divide_et_impera:
     suboptimal parallelization: some nodes have no k-points
 
     Parallelization info
     --------------------
     sticks:   dense  smooth     PW     G-vecs:    dense   smooth      PW
     Min        2120    2120    561               104155   104155   14117
     Max        2123    2123    562               104156   104156   14118
     Sum        4243    4243   1123               208311   208311   28235
 
     Using Slab Decomposition
 


     bravais-lattice index     =            0
     lattice parameter (alat)  =      20.9434  a.u.
     unit-cell volume          =    9384.3227 (a.u.)^3
     number of atoms/cell      =           64
     number of atomic types    =            1
     number of electrons       =       256.00
     number of Kohn-Sham states=          128
     kinetic-energy cutoff     =      30.0000  Ry
     charge density cutoff     =     120.0000  Ry
     scf convergence threshold =      1.0E-06
     mixing beta               =       0.5000
     number of iterations used =            8  plain     mixing
     Exchange-correlation= PBE
                           (   1   4   3   4   0   0   0)

     GPU acceleration is ACTIVE.
     GPU-aware MPI enabled

     Message from routine print_cuda_info:
     High GPU oversubscription detected. Are you sure this is what you want?

     celldm(1)=  20.943433  celldm(2)=   0.000000  celldm(3)=   0.000000
     celldm(4)=   0.000000  celldm(5)=   0.000000  celldm(6)=   0.000000

     crystal axes: (cart. coord. in units of alat)
               a(1) = (   1.000000   0.000000   0.000000 )  
               a(2) = (   0.000000   1.014596   0.000000 )  
               a(3) = (   0.000000   0.000000   1.006854 )  

     reciprocal axes: (cart. coord. in units 2 pi/alat)
               b(1) = (  1.000000  0.000000  0.000000 )  
               b(2) = (  0.000000  0.985614  0.000000 )  
               b(3) = (  0.000000  0.000000  0.993193 )  


     PseudoPot. # 1 for Si read from file:
     /home/ppiaggi/pseudos/Si_ONCV_PBE_sr.upf
     MD5 check sum: 8553c464762ac42b85b1eed164b4d029
     Pseudo is Norm-conserving, Zval =  4.0
     Generated using ONCVPSP code by D. R. Hamann
     Using radial grid of 1510 points,  4 beta functions with: 
                l(1) =   0
                l(2) =   0
                l(3) =   1
                l(4) =   1

     atomic species   valence    mass     pseudopotential
        Si             4.00    28.08500     Si( 1.00)

     No symmetry found



   Cartesian axes

     site n.     atom                  positions (alat units)
         1           Si  tau(   1) = (   0.0036521  -0.0002601  -0.0063650  )
         2           Si  tau(   2) = (  -0.0026085   0.2437078   0.2558660  )
         3           Si  tau(   3) = (   0.2627790  -0.0065070   0.2571028  )
         4           Si  tau(   4) = (   0.2529702   0.2524489  -0.0041747  )
         5           Si  tau(   5) = (   0.1359920   0.1336185   0.1231676  )
         6           Si  tau(   6) = (   0.5047753  -0.0054617   0.0078355  )
         7           Si  tau(   7) = (   0.5075923   0.2430111   0.2585078  )
         8           Si  tau(   8) = (   0.6326515   0.1199887   0.1251604  )
         9           Si  tau(   9) = (   0.7727023   0.0087794   0.2567442  )
        10           Si  tau(  10) = (   0.7709161   0.2498612  -0.0033594  )
        11           Si  tau(  11) = (  -0.0060590   0.5083300   0.0002885  )
        12           Si  tau(  12) = (   0.2513785   0.5000678   0.2482338  )
        13           Si  tau(  13) = (   0.1346524   0.6325888   0.1249407  )
        14           Si  tau(  14) = (   0.3866810   0.3693100   0.1298438  )
        15           Si  tau(  15) = (   0.5117063   0.5096021   0.0060001  )
        16           Si  tau(  16) = (   0.6417141   0.6286878   0.1311935  )
        17           Si  tau(  17) = (   0.8938605   0.3710506   0.1342935  )
        18           Si  tau(  18) = (   0.7637013   0.4982843   0.2581403  )
        19           Si  tau(  19) = (   0.0024751   0.7631103   0.2524086  )
        20           Si  tau(  20) = (   0.2536772   0.7623493   0.0008343  )
        21           Si  tau(  21) = (   0.3907796   0.8739865   0.1288894  )
        22           Si  tau(  22) = (   0.5114762   0.7537528   0.2470668  )
        23           Si  tau(  23) = (   0.7624350   0.7583784   0.0066577  )
        24           Si  tau(  24) = (   0.8913661   0.8792799   0.1264656  )
        25           Si  tau(  25) = (   0.0083751   0.0056376   0.4957133  )
        26           Si  tau(  26) = (   0.2552443   0.2469086   0.5068123  )
        27           Si  tau(  27) = (   0.1329630   0.1261187   0.6182803  )
        28           Si  tau(  28) = (   0.3901122   0.1233454   0.3726599  )
        29           Si  tau(  29) = (   0.5033542  -0.0089605   0.5001968  )
        30           Si  tau(  30) = (   0.6448011   0.1285660   0.6242472  )
        31           Si  tau(  31) = (   0.8989381   0.1198204   0.3825964  )
        32           Si  tau(  32) = (   0.7718986   0.2482448   0.5052875  )
        33           Si  tau(  33) = (   0.1360878   0.3735616   0.3837810  )
        34           Si  tau(  34) = (   0.0036838   0.5068225   0.5089629  )
        35           Si  tau(  35) = (   0.1354275   0.6338110   0.6289065  )
        36           Si  tau(  36) = (   0.6344962   0.3785822   0.3797958  )
        37           Si  tau(  37) = (   0.3741373   0.6332347   0.3697926  )
        38           Si  tau(  38) = (   0.3822708   0.3806402   0.6177887  )
        39           Si  tau(  39) = (   0.5069661   0.5078485   0.5069133  )
        40           Si  tau(  40) = (   0.6434939   0.6372536   0.6185554  )
        41           Si  tau(  41) = (   0.8909276   0.6369327   0.3780006  )
        42           Si  tau(  42) = (   0.8907931   0.3779246   0.6282600  )
        43           Si  tau(  43) = (   0.1212848   0.8854193   0.3785294  )
        44           Si  tau(  44) = (   0.2548334   0.7603724   0.4952169  )
        45           Si  tau(  45) = (   0.6411892   0.8802937   0.3705846  )
        46           Si  tau(  46) = (   0.3875461   0.8819009   0.6184715  )
        47           Si  tau(  47) = (   0.7667065   0.7631920   0.4920529  )
        48           Si  tau(  48) = (   0.8862901   0.8817239   0.6274688  )
        49           Si  tau(  49) = (  -0.0036305   0.2493729   0.7475976  )
        50           Si  tau(  50) = (   0.2632989  -0.0073256   0.7491547  )
        51           Si  tau(  51) = (   0.3850855   0.1302074   0.8845545  )
        52           Si  tau(  52) = (   0.5082358   0.2443558   0.7500111  )
        53           Si  tau(  53) = (   0.7647328  -0.0075623   0.7541733  )
        54           Si  tau(  54) = (   0.9008366   0.1246475   0.8811986  )
        55           Si  tau(  55) = (   0.1182763   0.3817076   0.8845646  )
        56           Si  tau(  56) = (   0.2617928   0.5034895   0.7591862  )
        57           Si  tau(  57) = (   0.6391074   0.3756279   0.8778840  )
        58           Si  tau(  58) = (   0.3895346   0.6329340   0.8695714  )
        59           Si  tau(  59) = (   0.7586767   0.5120259   0.7422250  )
        60           Si  tau(  60) = (   0.8837205   0.6358632   0.8697013  )
        61           Si  tau(  61) = (  -0.0055505   0.7558719   0.7519590  )
        62           Si  tau(  62) = (   0.1215739   0.8818445   0.8808097  )
        63           Si  tau(  63) = (   0.5127914   0.7488508   0.7451390  )
        64           Si  tau(  64) = (   0.6390977   0.8834043   0.8711886  )

     number of k points=     1
                       cart. coord. in units 2pi/alat
        k(    1) = (   0.0000000   0.0000000   0.0000000), wk =   2.0000000

     Dense  grid:   104156 G-vectors     FFT dimensions: (  75,  75,  75)

     Estimated max dynamical RAM per process >     153.02 MB

     Estimated total dynamical RAM >     586.64 MB

     Initial potential from superposition of free atoms

     starting charge     255.9608, renormalised to     256.0000
     Starting wfcs are  256 randomized atomic wfcs

     total cpu time spent up to now is        4.8 secs

     Self-consistent Calculation

     iteration #  1     ecut=    30.00 Ry     beta= 0.50
     Davidson diagonalization with overlap
     ethr =  1.00E-02,  avg # of iterations =  2.0

     Threshold (ethr) on eigenvalues was too large:
     Diagonalizing with lowered threshold

     Davidson diagonalization with overlap
     ethr =  5.99E-04,  avg # of iterations =  2.0

     total cpu time spent up to now is        5.0 secs

     total energy              =    -503.58922216 Ry
     estimated scf accuracy    <       1.71839522 Ry

     iteration #  2     ecut=    30.00 Ry     beta= 0.50
     Davidson diagonalization with overlap
     ethr =  6.71E-04,  avg # of iterations =  1.0

     total cpu time spent up to now is        5.1 secs

     total energy              =    -503.56995978 Ry
     estimated scf accuracy    <       0.34315961 Ry

     iteration #  3     ecut=    30.00 Ry     beta= 0.50
     Davidson diagonalization with overlap
     ethr =  1.34E-04,  avg # of iterations =  2.0

     total cpu time spent up to now is        5.2 secs

     total energy              =    -503.59355755 Ry
     estimated scf accuracy    <       0.00638463 Ry

     iteration #  4     ecut=    30.00 Ry     beta= 0.50
     Davidson diagonalization with overlap
     ethr =  2.49E-06,  avg # of iterations = 11.0

     total cpu time spent up to now is        5.4 secs

     total energy              =    -503.59888653 Ry
     estimated scf accuracy    <       0.00154341 Ry

     iteration #  5     ecut=    30.00 Ry     beta= 0.50
     Davidson diagonalization with overlap
     ethr =  6.03E-07,  avg # of iterations =  5.0

     total cpu time spent up to now is        5.5 secs

     total energy              =    -503.59914446 Ry
     estimated scf accuracy    <       0.00048135 Ry

     iteration #  6     ecut=    30.00 Ry     beta= 0.50
     Davidson diagonalization with overlap
     ethr =  1.88E-07,  avg # of iterations =  8.0

     total cpu time spent up to now is        5.7 secs

     total energy              =    -503.59926361 Ry
     estimated scf accuracy    <       0.00011652 Ry

     iteration #  7     ecut=    30.00 Ry     beta= 0.50
     Davidson diagonalization with overlap
     ethr =  4.55E-08,  avg # of iterations =  4.0

     total cpu time spent up to now is        5.8 secs

     total energy              =    -503.59927806 Ry
     estimated scf accuracy    <       0.00000840 Ry

     iteration #  8     ecut=    30.00 Ry     beta= 0.50
     Davidson diagonalization with overlap
     ethr =  3.28E-09,  avg # of iterations =  9.0

     total cpu time spent up to now is        6.0 secs

     total energy              =    -503.59928093 Ry
     estimated scf accuracy    <       0.00001813 Ry

     iteration #  9     ecut=    30.00 Ry     beta= 0.50
     Davidson diagonalization with overlap
     ethr =  3.28E-09,  avg # of iterations =  3.0

     total cpu time spent up to now is        6.1 secs

     total energy              =    -503.59928225 Ry
     estimated scf accuracy    <       0.00000201 Ry

     iteration # 10     ecut=    30.00 Ry     beta= 0.50
     Davidson diagonalization with overlap
     ethr =  7.85E-10,  avg # of iterations =  5.0

     total cpu time spent up to now is        6.2 secs

     total energy              =    -503.59928300 Ry
     estimated scf accuracy    <       0.00000308 Ry

     iteration # 11     ecut=    30.00 Ry     beta= 0.50
     Davidson diagonalization with overlap
     ethr =  7.85E-10,  avg # of iterations =  2.0

     total cpu time spent up to now is        6.3 secs

     End of self-consistent calculation

          k = 0.0000 0.0000 0.0000 ( 12995 PWs)   bands (ev):

    -6.0954  -5.2730  -5.1463  -5.1148  -5.0550  -4.9474  -4.8532  -4.4995
    -4.4021  -4.3273  -4.2431  -4.1998  -4.1666  -4.1133  -4.0559  -4.0109
    -3.9546  -3.9195  -3.8985  -3.8825  -3.8472  -3.6736  -3.6213  -2.5398
    -2.4064  -2.3392  -2.2339  -2.1993  -2.1547  -2.1251  -2.0752  -2.0460
    -2.0239  -1.9944  -1.9568  -1.8854  -1.8788  -1.8391  -1.8158  -1.8112
    -1.7235  -1.3085  -1.2629  -1.1353  -0.9440  -0.1398  -0.1159  -0.0401
    -0.0242   0.0256   0.0573   0.0984   0.1355   0.1565   0.2124   0.2223
     0.3196   1.5118   1.5611   1.5950   1.6654   1.6991   1.7086   1.7596
     1.8015   1.8289   1.8445   1.8649   1.8881   1.9088   1.9223   1.9356
     1.9467   2.0008   2.0131   2.0290   2.0507   2.0587   2.0897   2.1048
     2.1149   2.1295   2.1564   2.1765   2.1929   2.2171   2.2353   2.5759
     2.7582   2.7725   2.8149   2.8676   2.8915   3.3842   3.4864   3.5509
     3.5861   3.6125   3.6884   3.6988   3.7453   3.7985   3.8209   3.8433
     3.8662   3.8921   4.0287   4.0713   4.0917   4.1463   4.1607   4.1898
     4.2280   4.2648   4.2762   4.3414   4.3708   4.3901   4.4170   4.4247
     4.4852   4.5080   4.5397   4.5790   4.6620   5.2974   5.5327   5.6609

     highest occupied level (ev):     5.6609

!    total energy              =    -503.59928232 Ry
     estimated scf accuracy    <       0.00000090 Ry

     The total energy is the sum of the following terms:
     one-electron contribution =     129.83317022 Ry
     hartree contribution      =      39.58452002 Ry
     xc contribution           =    -151.76524874 Ry
     ewald contribution        =    -521.25172382 Ry

     convergence has been achieved in  11 iterations

     Forces acting on atoms (cartesian axes, Ry/au):

     atom    1 type  1   force =     0.06238824   -0.02636433    0.05910170
     atom    2 type  1   force =     0.10797179    0.02512086   -0.00290780
     atom    3 type  1   force =    -0.01660628    0.00145459   -0.03130296
     atom    4 type  1   force =     0.01489212    0.02979087    0.00120433
     atom    5 type  1   force =    -0.01850401   -0.05784133    0.02159269
     atom    6 type  1   force =     0.01919043   -0.00522804   -0.04506621
     atom    7 type  1   force =     0.04602822    0.04048420   -0.04112411
     atom    8 type  1   force =     0.03358153    0.02147496    0.00902096
     atom    9 type  1   force =    -0.03754364   -0.05882855   -0.03158377
     atom   10 type  1   force =    -0.02438739   -0.00064597    0.01203180
     atom   11 type  1   force =     0.04233536    0.00706964    0.00750248
     atom   12 type  1   force =     0.02215232   -0.01073545    0.00599426
     atom   13 type  1   force =    -0.03209892   -0.00261950   -0.00326647
     atom   14 type  1   force =    -0.01716400    0.02650539   -0.01610441
     atom   15 type  1   force =     0.00359809   -0.02928511   -0.02544632
     atom   16 type  1   force =    -0.00357559   -0.00890268   -0.00724315
     atom   17 type  1   force =    -0.06523009    0.03071381   -0.03255014
     atom   18 type  1   force =     0.00945255    0.01718145   -0.01048472
     atom   19 type  1   force =     0.05685686   -0.03731722   -0.00690577
     atom   20 type  1   force =     0.02615323   -0.01827841   -0.02590607
     atom   21 type  1   force =    -0.04513468    0.03851958   -0.01113337
     atom   22 type  1   force =     0.01820156   -0.01710704    0.02819044
     atom   23 type  1   force =    -0.00722194   -0.00261852   -0.04397892
     atom   24 type  1   force =    -0.04272796    0.06641769   -0.01606375
     atom   25 type  1   force =     0.04260241   -0.08099430    0.07863639
     atom   26 type  1   force =     0.04815434    0.02090644   -0.04727079
     atom   27 type  1   force =    -0.00753823   -0.02265275    0.06234819
     atom   28 type  1   force =    -0.05300495   -0.02989109    0.05382443
     atom   29 type  1   force =     0.07047121    0.03115789   -0.01968080
     atom   30 type  1   force =    -0.03486053   -0.04974474    0.01742375
     atom   31 type  1   force =    -0.09855437    0.04857812   -0.02467325
     atom   32 type  1   force =    -0.01751269    0.02435574   -0.02564085
     atom   33 type  1   force =    -0.04463024    0.01184561   -0.01908268
     atom   34 type  1   force =     0.05768728    0.00294349   -0.02467830
     atom   35 type  1   force =    -0.00533674   -0.00529311    0.01343353
     atom   36 type  1   force =    -0.00258335   -0.02138495    0.01719127
     atom   37 type  1   force =     0.02629868   -0.01720386    0.00877040
     atom   38 type  1   force =    -0.00635002   -0.02645328    0.06267933
     atom   39 type  1   force =     0.00958385    0.01759550   -0.04513072
     atom   40 type  1   force =    -0.02181581   -0.00853281   -0.01027639
     atom   41 type  1   force =    -0.02619270   -0.04011325   -0.00453025
     atom   42 type  1   force =    -0.05780272    0.02264988   -0.00454220
     atom   43 type  1   force =     0.04361066    0.01296906   -0.01310505
     atom   44 type  1   force =    -0.00838251   -0.00070674    0.01472699
     atom   45 type  1   force =    -0.02482339    0.04195518   -0.00319046
     atom   46 type  1   force =    -0.02375738   -0.02133695    0.03418251
     atom   47 type  1   force =    -0.00801816   -0.00657182    0.02517171
     atom   48 type  1   force =    -0.01741409    0.03963717   -0.02806966
     atom   49 type  1   force =     0.08727534    0.00399357    0.01522789
     atom   50 type  1   force =    -0.02090053    0.01022907    0.01624338
     atom   51 type  1   force =    -0.01348715   -0.04122243   -0.01497891
     atom   52 type  1   force =     0.01849234    0.03824321   -0.00232057
     atom   53 type  1   force =     0.01045719    0.03573071   -0.00683388
     atom   54 type  1   force =    -0.09548544   -0.00412850   -0.02718090
     atom   55 type  1   force =     0.02826188   -0.01064263   -0.02393402
     atom   56 type  1   force =    -0.02524163   -0.00798818   -0.02375912
     atom   57 type  1   force =    -0.01283672    0.01748023   -0.00228529
     atom   58 type  1   force =    -0.02081200   -0.00668048    0.06185775
     atom   59 type  1   force =     0.00890277   -0.03909648    0.03406565
     atom   60 type  1   force =    -0.05962585   -0.03310337    0.05788969
     atom   61 type  1   force =     0.09278469    0.01550032   -0.01530874
     atom   62 type  1   force =     0.02812420    0.01229479   -0.02316005
     atom   63 type  1   force =     0.01404671    0.04696304   -0.00538717
     atom   64 type  1   force =    -0.03239415   -0.01024819    0.04777651

     Total force =     0.472203     Total SCF correction =     0.001886


     Computing stress (Cartesian axis) and pressure

          total   stress  (Ry/bohr**3)                   (kbar)     P=      -31.95
  -0.00019468   0.00001557   0.00000147          -28.64        2.29        0.22
   0.00001557  -0.00025000  -0.00009706            2.29      -36.78      -14.28
   0.00000147  -0.00009706  -0.00020682            0.22      -14.28      -30.42

 
     init_run     :      0.98s CPU      4.68s WALL (       1 calls)
     electrons    :      1.44s CPU      1.55s WALL (       1 calls)
     forces       :      0.04s CPU      0.09s WALL (       1 calls)
     stress       :      0.15s CPU      0.27s WALL (       1 calls)

     Called by init_run:
     wfcinit      :      0.56s CPU      4.09s WALL (       1 calls)
                                        4.09s GPU  (       1 calls)
     potinit      :      0.21s CPU      0.29s WALL (       1 calls)
     hinit0       :      0.19s CPU      0.22s WALL (       1 calls)

     Called by electrons:
     c_bands      :      0.93s CPU      0.98s WALL (      12 calls)
     sum_band     :      0.27s CPU      0.30s WALL (      12 calls)
     v_of_rho     :      0.14s CPU      0.23s WALL (      12 calls)
     mix_rho      :      0.11s CPU      0.12s WALL (      12 calls)

     Called by c_bands:
     init_us_2    :      0.04s CPU      0.05s WALL (      25 calls)
     init_us_2:gp :      0.04s CPU      0.04s WALL (      25 calls)
     regterg      :      0.81s CPU      0.86s WALL (      12 calls)

     Called by *egterg:
     rdiaghg      :      0.28s CPU      1.03s WALL (      65 calls)
                                        1.01s GPU  (      65 calls)
     h_psi        :      0.94s CPU      3.75s WALL (      67 calls)
                                        3.75s GPU  (      67 calls)
     g_psi        :      0.00s CPU      0.00s WALL (      54 calls)
                                        0.00s GPU  (      54 calls)

     Called by h_psi:
     h_psi:calbec :      0.49s CPU      3.22s WALL (      67 calls)
                                        3.22s GPU  (      67 calls)
     vloc_psi     :      0.41s CPU      0.49s WALL (      67 calls)
                                        0.48s GPU  (      67 calls)
     add_vuspsi   :      0.03s CPU      0.04s WALL (      67 calls)
                                        0.04s GPU  (      67 calls)

     General routines
     calbec       :      0.50s CPU      3.23s WALL (      72 calls)
     fft          :      0.27s CPU      0.50s WALL (     103 calls)
                                        0.24s GPU  (      66 calls)
     ffts         :      0.04s CPU      0.05s WALL (      12 calls)
     fftw         :      0.43s CPU      0.59s WALL (    1114 calls)
                                        0.53s GPU  (    1114 calls)
 
     Parallel routines
 
     PWSCF        :      2.66s CPU      6.69s WALL

 
   This run was terminated on:  15:38:17   8May2023            

=------------------------------------------------------------------------------=
   JOB DONE.
=------------------------------------------------------------------------------=
