An instance of this daemon is already running

     Program PWSCF v.7.1 starts on  8May2023 at 15:22:33 

     This program is part of the open-source Quantum ESPRESSO suite
     for quantum simulation of materials; please cite
         "P. Giannozzi et al., J. Phys.:Condens. Matter 21 395502 (2009);
         "P. Giannozzi et al., J. Phys.:Condens. Matter 29 465901 (2017);
         "P. Giannozzi et al., J. Chem. Phys. 152 154105 (2020);
          URL http://www.quantum-espresso.org", 
     in publications or presentations arising from this work. More details at
     http://www.quantum-espresso.org/quote

     Parallel version (MPI & OpenMP), running on       4 processor cores
     Number of MPI processes:                 4
     Threads/MPI process:                     1

     MPI processes distributed on     1 nodes
     618681 MiB available memory on the printing compute node when the environment starts
 
     Reading input from pw-si-3.in
Warning: card &CELL ignored
Warning: card / ignored

     Current dimensions of program PWSCF are:
     Max number of different atomic species (ntypx) = 10
     Max number of k-points (npk) =  40000
     Max angular momentum in pseudopotentials (lmaxx) =  4

     IMPORTANT: XC functional enforced from input :
     Exchange-correlation= PBE
                           (   1   4   3   4   0   0   0)
     Any further DFT definition will be discarded
     Please, verify this is what you really want


     gamma-point specific algorithms are used
 
     K-points division:     npool     =       2
     R & G space division:  proc/nbgrp/npool/nimage =       2
     Subspace diagonalization in iterative solution of the eigenvalue problem:
     a serial algorithm will be used

     Message from routine divide_et_impera:
     suboptimal parallelization: some nodes have no k-points
 
     Parallelization info
     --------------------
     sticks:   dense  smooth     PW     G-vecs:    dense   smooth      PW
     Min        2015    2015    536                98751    98751   13416
     Max        2016    2016    537                98752    98752   13417
     Sum        4031    4031   1073               197503   197503   26833
 
     Using Slab Decomposition
 


     bravais-lattice index     =            0
     lattice parameter (alat)  =      20.6829  a.u.
     unit-cell volume          =    8896.1443 (a.u.)^3
     number of atoms/cell      =           64
     number of atomic types    =            1
     number of electrons       =       256.00
     number of Kohn-Sham states=          128
     kinetic-energy cutoff     =      30.0000  Ry
     charge density cutoff     =     120.0000  Ry
     scf convergence threshold =      1.0E-06
     mixing beta               =       0.5000
     number of iterations used =            8  plain     mixing
     Exchange-correlation= PBE
                           (   1   4   3   4   0   0   0)

     GPU acceleration is ACTIVE.
     GPU-aware MPI enabled

     Message from routine print_cuda_info:
     High GPU oversubscription detected. Are you sure this is what you want?

     celldm(1)=  20.682918  celldm(2)=   0.000000  celldm(3)=   0.000000
     celldm(4)=   0.000000  celldm(5)=   0.000000  celldm(6)=   0.000000

     crystal axes: (cart. coord. in units of alat)
               a(1) = (   1.000000   0.000000   0.000000 )  
               a(2) = (   0.000000   0.988617   0.000000 )  
               a(3) = (   0.000000   0.000000   1.017041 )  

     reciprocal axes: (cart. coord. in units 2 pi/alat)
               b(1) = (  1.000000  0.000000  0.000000 )  
               b(2) = (  0.000000  1.011514  0.000000 )  
               b(3) = (  0.000000  0.000000  0.983245 )  


     PseudoPot. # 1 for Si read from file:
     /home/ppiaggi/pseudos/Si_ONCV_PBE_sr.upf
     MD5 check sum: 8553c464762ac42b85b1eed164b4d029
     Pseudo is Norm-conserving, Zval =  4.0
     Generated using ONCVPSP code by D. R. Hamann
     Using radial grid of 1510 points,  4 beta functions with: 
                l(1) =   0
                l(2) =   0
                l(3) =   1
                l(4) =   1

     atomic species   valence    mass     pseudopotential
        Si             4.00    28.08500     Si( 1.00)

     No symmetry found



   Cartesian axes

     site n.     atom                  positions (alat units)
         1           Si  tau(   1) = (   0.0075824  -0.0001344  -0.0038178  )
         2           Si  tau(   2) = (  -0.0062653   0.2483311   0.2625369  )
         3           Si  tau(   3) = (   0.2415180  -0.0003135   0.2537235  )
         4           Si  tau(   4) = (   0.2465861   0.2437937  -0.0013594  )
         5           Si  tau(   5) = (   0.1267734   0.1262243   0.1279499  )
         6           Si  tau(   6) = (   0.4889372  -0.0030351  -0.0003053  )
         7           Si  tau(   7) = (   0.4923295   0.2455599   0.2591375  )
         8           Si  tau(   8) = (   0.6154245   0.1202998   0.1344991  )
         9           Si  tau(   9) = (   0.7367033   0.0075057   0.2511694  )
        10           Si  tau(  10) = (   0.7369497   0.2545648   0.0017569  )
        11           Si  tau(  11) = (   0.0026942   0.5035887   0.0019263  )
        12           Si  tau(  12) = (   0.2510549   0.5142836   0.2631360  )
        13           Si  tau(  13) = (   0.1186489   0.6264084   0.1271989  )
        14           Si  tau(  14) = (   0.3619447   0.3836086   0.1226708  )
        15           Si  tau(  15) = (   0.4984721   0.5062664  -0.0060873  )
        16           Si  tau(  16) = (   0.6176323   0.6243176   0.1199215  )
        17           Si  tau(  17) = (   0.8574288   0.3821315   0.1331890  )
        18           Si  tau(  18) = (   0.7440750   0.5031173   0.2574650  )
        19           Si  tau(  19) = (   0.0082478   0.7597083   0.2575946  )
        20           Si  tau(  20) = (   0.2430510   0.7585838   0.0004750  )
        21           Si  tau(  21) = (   0.3619175   0.8919223   0.1357809  )
        22           Si  tau(  22) = (   0.4918216   0.7493608   0.2671490  )
        23           Si  tau(  23) = (   0.7479790   0.7571425   0.0074776  )
        24           Si  tau(  24) = (   0.8657404   0.8818319   0.1289859  )
        25           Si  tau(  25) = (  -0.0011663   0.0024983   0.5164968  )
        26           Si  tau(  26) = (   0.2538931   0.2526082   0.5224894  )
        27           Si  tau(  27) = (   0.1189234   0.1271568   0.6418854  )
        28           Si  tau(  28) = (   0.3655134   0.1350073   0.3911624  )
        29           Si  tau(  29) = (   0.4866617  -0.0042379   0.5205882  )
        30           Si  tau(  30) = (   0.6116680   0.1190654   0.6410799  )
        31           Si  tau(  31) = (   0.8545392   0.1186667   0.3793486  )
        32           Si  tau(  32) = (   0.7335710   0.2451421   0.5136968  )
        33           Si  tau(  33) = (   0.1222726   0.3749077   0.3841740  )
        34           Si  tau(  34) = (   0.0069150   0.5129646   0.5138053  )
        35           Si  tau(  35) = (   0.1267981   0.6334078   0.6513637  )
        36           Si  tau(  36) = (   0.6219908   0.3753437   0.3842198  )
        37           Si  tau(  37) = (   0.3744977   0.6355581   0.3849330  )
        38           Si  tau(  38) = (   0.3704766   0.3705365   0.6445840  )
        39           Si  tau(  39) = (   0.4869791   0.4962896   0.5210300  )
        40           Si  tau(  40) = (   0.6194619   0.6388947   0.6515443  )
        41           Si  tau(  41) = (   0.8679374   0.6316692   0.3820820  )
        42           Si  tau(  42) = (   0.8658676   0.3768846   0.6427872  )
        43           Si  tau(  43) = (   0.1194344   0.8826479   0.3821736  )
        44           Si  tau(  44) = (   0.2555805   0.7521214   0.5198306  )
        45           Si  tau(  45) = (   0.6206130   0.8825579   0.3908504  )
        46           Si  tau(  46) = (   0.3739592   0.8803533   0.6362266  )
        47           Si  tau(  47) = (   0.7327351   0.7563968   0.5129425  )
        48           Si  tau(  48) = (   0.8722695   0.8834181   0.6438226  )
        49           Si  tau(  49) = (   0.0006533   0.2535314   0.7792791  )
        50           Si  tau(  50) = (   0.2470771  -0.0071128   0.7660574  )
        51           Si  tau(  51) = (   0.3769263   0.1293925   0.9021347  )
        52           Si  tau(  52) = (   0.4982350   0.2572644   0.7729496  )
        53           Si  tau(  53) = (   0.7401127   0.0033621   0.7767382  )
        54           Si  tau(  54) = (   0.8620441   0.1207354   0.8957243  )
        55           Si  tau(  55) = (   0.1258993   0.3868009   0.9011163  )
        56           Si  tau(  56) = (   0.2416767   0.5121525   0.7700117  )
        57           Si  tau(  57) = (   0.6192321   0.3731894   0.9087149  )
        58           Si  tau(  58) = (   0.3623761   0.6279529   0.8974667  )
        59           Si  tau(  59) = (   0.7484183   0.4974617   0.7716834  )
        60           Si  tau(  60) = (   0.8577626   0.6236463   0.9014574  )
        61           Si  tau(  61) = (  -0.0026106   0.7522305   0.7649084  )
        62           Si  tau(  62) = (   0.1234128   0.8836398   0.9075245  )
        63           Si  tau(  63) = (   0.4869484   0.7620414   0.7756074  )
        64           Si  tau(  64) = (   0.6200238   0.8905142   0.9087951  )

     number of k points=     1
                       cart. coord. in units 2pi/alat
        k(    1) = (   0.0000000   0.0000000   0.0000000), wk =   2.0000000

     Dense  grid:    98752 G-vectors     FFT dimensions: (  75,  72,  75)

     Estimated max dynamical RAM per process >     145.35 MB

     Estimated total dynamical RAM >     557.28 MB

     Initial potential from superposition of free atoms

     starting charge     255.9608, renormalised to     256.0000
     Starting wfcs are  256 randomized atomic wfcs

     total cpu time spent up to now is        5.2 secs

     Self-consistent Calculation

     iteration #  1     ecut=    30.00 Ry     beta= 0.50
     Davidson diagonalization with overlap
     ethr =  1.00E-02,  avg # of iterations =  2.0

     Threshold (ethr) on eigenvalues was too large:
     Diagonalizing with lowered threshold

     Davidson diagonalization with overlap
     ethr =  6.61E-04,  avg # of iterations =  2.0

     total cpu time spent up to now is        5.4 secs

     total energy              =    -503.42597910 Ry
     estimated scf accuracy    <       1.89511792 Ry

     iteration #  2     ecut=    30.00 Ry     beta= 0.50
     Davidson diagonalization with overlap
     ethr =  7.40E-04,  avg # of iterations =  1.0

     total cpu time spent up to now is        5.5 secs

     total energy              =    -503.40888610 Ry
     estimated scf accuracy    <       0.36283027 Ry

     iteration #  3     ecut=    30.00 Ry     beta= 0.50
     Davidson diagonalization with overlap
     ethr =  1.42E-04,  avg # of iterations =  2.0

     total cpu time spent up to now is        5.6 secs

     total energy              =    -503.43708883 Ry
     estimated scf accuracy    <       0.00764557 Ry

     iteration #  4     ecut=    30.00 Ry     beta= 0.50
     Davidson diagonalization with overlap
     ethr =  2.99E-06,  avg # of iterations = 15.0

     total cpu time spent up to now is        5.8 secs

     total energy              =    -503.44494559 Ry
     estimated scf accuracy    <       0.00670552 Ry

     iteration #  5     ecut=    30.00 Ry     beta= 0.50
     Davidson diagonalization with overlap
     ethr =  2.62E-06,  avg # of iterations = 14.0

     total cpu time spent up to now is        6.0 secs

     total energy              =    -503.44543594 Ry
     estimated scf accuracy    <       0.00124018 Ry

     iteration #  6     ecut=    30.00 Ry     beta= 0.50
     Davidson diagonalization with overlap
     ethr =  4.84E-07,  avg # of iterations =  8.0

     total cpu time spent up to now is        6.1 secs

     total energy              =    -503.44562491 Ry
     estimated scf accuracy    <       0.00096438 Ry

     iteration #  7     ecut=    30.00 Ry     beta= 0.50
     Davidson diagonalization with overlap
     ethr =  3.77E-07,  avg # of iterations =  6.0

     total cpu time spent up to now is        6.2 secs

     total energy              =    -503.44578248 Ry
     estimated scf accuracy    <       0.00005775 Ry

     iteration #  8     ecut=    30.00 Ry     beta= 0.50
     Davidson diagonalization with overlap
     ethr =  2.26E-08,  avg # of iterations = 15.0

     total cpu time spent up to now is        6.4 secs

     total energy              =    -503.44578724 Ry
     estimated scf accuracy    <       0.00008081 Ry

     iteration #  9     ecut=    30.00 Ry     beta= 0.50
     Davidson diagonalization with overlap
     ethr =  2.26E-08,  avg # of iterations = 14.0

     total cpu time spent up to now is        6.6 secs

     total energy              =    -503.44579346 Ry
     estimated scf accuracy    <       0.00001126 Ry

     iteration # 10     ecut=    30.00 Ry     beta= 0.50
     Davidson diagonalization with overlap
     ethr =  4.40E-09,  avg # of iterations = 11.0

     total cpu time spent up to now is        6.7 secs

     total energy              =    -503.44579691 Ry
     estimated scf accuracy    <       0.00000350 Ry

     iteration # 11     ecut=    30.00 Ry     beta= 0.50
     Davidson diagonalization with overlap
     ethr =  1.37E-09,  avg # of iterations =  3.0

     total cpu time spent up to now is        6.8 secs

     total energy              =    -503.44579671 Ry
     estimated scf accuracy    <       0.00000149 Ry

     iteration # 12     ecut=    30.00 Ry     beta= 0.50
     Davidson diagonalization with overlap
     ethr =  5.80E-10,  avg # of iterations =  7.0

     total cpu time spent up to now is        6.9 secs

     End of self-consistent calculation

          k = 0.0000 0.0000 0.0000 ( 12344 PWs)   bands (ev):

    -5.9600  -5.0332  -5.0112  -4.9724  -4.8555  -4.7579  -4.6654  -4.2692
    -4.2027  -4.0584  -4.0481  -3.9351  -3.9182  -3.8709  -3.8276  -3.8094
    -3.7184  -3.6655  -3.5394  -3.5107  -3.4905  -3.3762  -3.2440  -2.2677
    -2.0656  -2.0104  -1.8986  -1.8557  -1.7859  -1.7809  -1.7469  -1.6999
    -1.6247  -1.5925  -1.5644  -1.4994  -1.4593  -1.4318  -1.4127  -1.3515
    -1.3327  -1.0594  -0.9438  -0.8288  -0.6723   0.2830   0.3400   0.3693
     0.4191   0.4522   0.4602   0.4892   0.5526   0.6085   0.6664   0.6993
     0.7712   1.8599   1.8665   1.8950   1.9126   1.9474   1.9917   2.0432
     2.1019   2.1398   2.1751   2.1823   2.1988   2.2185   2.2380   2.3019
     2.3187   2.3425   2.3823   2.4110   2.4262   2.4668   2.4956   2.5051
     2.5197   2.5616   2.6204   2.6580   2.6887   2.7288   2.7894   2.8937
     3.0974   3.1665   3.1973   3.2619   3.3502   3.7652   3.8711   3.9320
     3.9740   4.0143   4.0961   4.1238   4.1453   4.1961   4.2137   4.2877
     4.3217   4.3379   4.4198   4.4485   4.5905   4.6147   4.6450   4.6863
     4.7136   4.7333   4.7906   4.8032   4.8627   4.9078   4.9233   4.9486
     5.0358   5.0829   5.1133   5.1454   5.3127   5.8491   6.1618   6.1699

     highest occupied level (ev):     6.1699

!    total energy              =    -503.44579700 Ry
     estimated scf accuracy    <       0.00000012 Ry

     The total energy is the sum of the following terms:
     one-electron contribution =     140.65517675 Ry
     hartree contribution      =      38.88412567 Ry
     xc contribution           =    -153.50311393 Ry
     ewald contribution        =    -529.48198550 Ry

     convergence has been achieved in  12 iterations

     Forces acting on atoms (cartesian axes, Ry/au):

     atom    1 type  1   force =    -0.13798721    0.11404476    0.10629787
     atom    2 type  1   force =    -0.02124352    0.00466569   -0.02482165
     atom    3 type  1   force =    -0.02299207    0.11462681    0.07521052
     atom    4 type  1   force =    -0.00829528    0.06052660    0.02766510
     atom    5 type  1   force =    -0.04380697    0.00959573    0.01050246
     atom    6 type  1   force =    -0.01795613    0.08933177    0.08827837
     atom    7 type  1   force =    -0.00293459    0.04884992   -0.01115685
     atom    8 type  1   force =    -0.03662972    0.04344980   -0.05445445
     atom    9 type  1   force =     0.01496252   -0.02719523    0.02327683
     atom   10 type  1   force =     0.04458342   -0.06076541    0.06867438
     atom   11 type  1   force =    -0.07996443    0.00234761    0.03451708
     atom   12 type  1   force =    -0.03405428   -0.04207410   -0.03109310
     atom   13 type  1   force =     0.03284154    0.02729781    0.02214567
     atom   14 type  1   force =     0.03611351   -0.01341421    0.02755695
     atom   15 type  1   force =    -0.05113686   -0.01020379    0.03542450
     atom   16 type  1   force =     0.00705748    0.02993924    0.05938469
     atom   17 type  1   force =     0.07382446   -0.03172646   -0.02389441
     atom   18 type  1   force =    -0.02373007    0.02320756    0.01096514
     atom   19 type  1   force =    -0.08015318   -0.03049486   -0.01917772
     atom   20 type  1   force =     0.01570108   -0.02906803    0.06578608
     atom   21 type  1   force =     0.06553999   -0.13893376   -0.04320019
     atom   22 type  1   force =     0.04813074    0.05533444   -0.07206167
     atom   23 type  1   force =    -0.03131146   -0.01323641   -0.00052322
     atom   24 type  1   force =     0.06559765   -0.02473929    0.01121635
     atom   25 type  1   force =    -0.03625767    0.05089745   -0.03207773
     atom   26 type  1   force =    -0.07078874   -0.00215770   -0.02578151
     atom   27 type  1   force =     0.02054067    0.00701274    0.02024617
     atom   28 type  1   force =     0.01242061   -0.05819114   -0.01673112
     atom   29 type  1   force =     0.05766729    0.11261189   -0.09495095
     atom   30 type  1   force =     0.00910624    0.02414581    0.02568322
     atom   31 type  1   force =     0.06349398    0.03359646    0.04782965
     atom   32 type  1   force =     0.03352318    0.01023429    0.00368300
     atom   33 type  1   force =     0.02140174    0.02361548    0.02420566
     atom   34 type  1   force =    -0.04675530   -0.03303010   -0.00079594
     atom   35 type  1   force =    -0.01575289    0.00900732   -0.06207699
     atom   36 type  1   force =    -0.03564433    0.00597545    0.01042658
     atom   37 type  1   force =    -0.02267652   -0.05879901    0.06252042
     atom   38 type  1   force =    -0.00875813    0.05068566    0.04111682
     atom   39 type  1   force =     0.05212037    0.04062026   -0.02747264
     atom   40 type  1   force =    -0.02526566   -0.05180044   -0.00476633
     atom   41 type  1   force =     0.02210110    0.01479441    0.01713619
     atom   42 type  1   force =     0.04260045   -0.01163983   -0.02178960
     atom   43 type  1   force =     0.03116773   -0.04957627    0.05238283
     atom   44 type  1   force =    -0.04364414    0.00758112   -0.03210769
     atom   45 type  1   force =    -0.03113666   -0.03184861   -0.02930695
     atom   46 type  1   force =    -0.05459652   -0.09011258    0.07700249
     atom   47 type  1   force =     0.06895221   -0.00969050    0.01643890
     atom   48 type  1   force =    -0.02822219   -0.05876570   -0.00115706
     atom   49 type  1   force =    -0.03384764    0.00345911   -0.02714145
     atom   50 type  1   force =    -0.00784117    0.08753625    0.02006378
     atom   51 type  1   force =    -0.01950472   -0.01831836   -0.07702880
     atom   52 type  1   force =     0.00377897   -0.02998238    0.00299096
     atom   53 type  1   force =     0.00600398    0.02773529   -0.05845142
     atom   54 type  1   force =     0.05403221    0.04942300    0.01654400
     atom   55 type  1   force =     0.00634737   -0.05022419   -0.03153571
     atom   56 type  1   force =     0.03344850   -0.06399677    0.00181174
     atom   57 type  1   force =    -0.00608869    0.03954826   -0.10064743
     atom   58 type  1   force =     0.03202875    0.02844586   -0.01490666
     atom   59 type  1   force =    -0.04681499    0.01054073    0.00538601
     atom   60 type  1   force =     0.07251269    0.01279625   -0.03050045
     atom   61 type  1   force =    -0.03058430    0.01699904    0.05822440
     atom   62 type  1   force =     0.04687407   -0.11561481   -0.15019594
     atom   63 type  1   force =     0.03632509   -0.01201886    0.01020032
     atom   64 type  1   force =     0.02557642   -0.12286105   -0.06098946

     Total force =     0.664098     Total SCF correction =     0.000590


     Computing stress (Cartesian axis) and pressure

          total   stress  (Ry/bohr**3)                   (kbar)     P=       15.67
   0.00013716  -0.00003933  -0.00009229           20.18       -5.78      -13.58
  -0.00003933   0.00014925   0.00005505           -5.78       21.96        8.10
  -0.00009229   0.00005505   0.00003319          -13.58        8.10        4.88

 
     init_run     :      1.16s CPU      5.13s WALL (       1 calls)
     electrons    :      1.62s CPU      1.74s WALL (       1 calls)
     forces       :      0.04s CPU      0.04s WALL (       1 calls)
     stress       :      0.14s CPU      0.15s WALL (       1 calls)

     Called by init_run:
     wfcinit      :      0.52s CPU      4.30s WALL (       1 calls)
                                        4.30s GPU  (       1 calls)
     potinit      :      0.20s CPU      0.30s WALL (       1 calls)
     hinit0       :      0.41s CPU      0.45s WALL (       1 calls)

     Called by electrons:
     c_bands      :      1.10s CPU      1.15s WALL (      13 calls)
     sum_band     :      0.26s CPU      0.30s WALL (      13 calls)
     v_of_rho     :      0.14s CPU      0.25s WALL (      13 calls)
     mix_rho      :      0.11s CPU      0.13s WALL (      13 calls)

     Called by c_bands:
     init_us_2    :      0.04s CPU      0.05s WALL (      27 calls)
     init_us_2:gp :      0.04s CPU      0.05s WALL (      27 calls)
     regterg      :      0.98s CPU      1.03s WALL (      13 calls)

     Called by *egterg:
     rdiaghg      :      0.45s CPU      1.21s WALL (     112 calls)
                                        1.19s GPU  (     112 calls)
     h_psi        :      0.89s CPU      3.94s WALL (     114 calls)
                                        3.93s GPU  (     114 calls)
     g_psi        :      0.00s CPU      0.00s WALL (     100 calls)
                                        0.00s GPU  (     100 calls)

     Called by h_psi:
     h_psi:calbec :      0.46s CPU      3.43s WALL (     114 calls)
                                        3.43s GPU  (     114 calls)
     vloc_psi     :      0.36s CPU      0.44s WALL (     114 calls)
                                        0.44s GPU  (     114 calls)
     add_vuspsi   :      0.05s CPU      0.06s WALL (     114 calls)
                                        0.06s GPU  (     114 calls)

     General routines
     calbec       :      0.47s CPU      3.43s WALL (     119 calls)
     fft          :      0.49s CPU      0.64s WALL (     111 calls)
                                        0.14s GPU  (      71 calls)
     ffts         :      0.04s CPU      0.04s WALL (      13 calls)
     fftw         :      0.39s CPU      0.54s WALL (    1280 calls)
                                        0.48s GPU  (    1280 calls)
 
     Parallel routines
 
     PWSCF        :      3.01s CPU      7.15s WALL

 
   This run was terminated on:  15:22:40   8May2023            

=------------------------------------------------------------------------------=
   JOB DONE.
=------------------------------------------------------------------------------=
