-0.5428231264852199 -0.6913377583905771 0.011951258824605224 -0.39359527056292215 1.151740830606668 1.8556715951709073 0.4150040752560014 0.1507239808518501 0.038067496295682825 -0.7214284071283704 0.21243019961239545 -0.02999757480335479 -1.5535541182040085 0.28591721305795276 0.11479050018003456 -0.5604909760786283 -0.4915756411641534 -0.23943141079158764 1.08690609351947 0.7103330685461572 -0.3500757500137326 1.1231630189689754 0.6518355865308968 -0.07485175500356787 0.2929502086453342 0.3248218605429503 0.29532333686320106 0.1566586011687302 -0.6129119128825057 -0.07684538839482896 -0.2070015723976564 -0.4149045735636597 0.11649385602438647 0.06221555429679609 0.28633347465976494 -0.09065992568041806 0.22547854815592136 0.5698536482404509 0.27928710933594486 0.11664863643469588 0.23526776633220126 0.39394185526906345 -0.10395510012742742 -0.16951925918148225 0.25061133866780716 0.659082240790981 -1.6021716221013955 0.6779608228630388 0.5999386405512893 -0.388376445366144 -0.13144379246599944 0.1374511750023439 0.03566634305335793 -0.6103186982340327 -0.10043268879646575 -0.5977141220961448 -0.40551876147338545 0.5275613152301432 0.6989842191922414 0.2068593903928373 -0.8921547992440765 0.17151237835211106 -1.62495879519924 -0.4211068457196296 0.1672399762290023 -0.259520725342295 0.22160106747838612 0.1687073048031482 0.41426411176618333 0.5862688563736806 -0.2018017733642718 0.3890549594904074 2.0204232577604175 0.5654802017631035 -0.3135791977495955 -0.614390040089929 -2.1551421214332627 -0.3916702856260674 -0.5500831504817429 -0.12721355643473578 0.14403319909523582 0.16799716611000098 -0.2542005986809622 -0.11904541880164658 0.2367160687429536 -0.880978985132915 -1.7763193811938247 -0.3856107096955488 -0.691793357870757 0.11955783966169087 -0.6435121542668659 -0.4479062253006609 -0.3265676395894634 0.02027494819895218 0.0681242064717472 0.12452572518992747 0.28728041195406656 -0.1024494621161784 0.5836679284157238 0.19536758770315385 -0.9565935864444365 -0.3127343332507969 0.015932354959540304 0.42326502971321295 -0.6466699831695573 0.21250296183185982 -0.16881323425339312 0.10096182182705839 0.18789904724025058 -0.5336427455375327 -0.19195753358034037 -0.563781473904442 -0.0558782992248586 0.0383361765760372 -1.4334398918182152 0.7110704609328141 0.9308131350462227 -0.2573442865162665 0.9230067516279264 0.07311446059748697 -0.02609438309420667 0.8469432357044446 0.5708121554989782 0.816558195654684 -1.024832464117177 -0.6491055891942434 0.5375263968626549 -0.6607827684218556 0.19261316488646826 0.6860453996433862 -0.5248536864909928 -0.03897895236635867 0.09901472540301656 -0.5578597091033684 0.3187044347913027 0.5997015848398187 0.3810140914638019 -0.09098876977474653 -0.8547007681626764 -0.38816895734102824 -0.5201403401757235 -0.26666659235845686 -0.46605178586143603 0.09454049168174686 -0.4670843408910085 1.1222433353681833 0.18119103909245568 -0.014584839792710365 0.8648517405537492 0.2806947883167489 0.1669278443052222 -0.5661494599159863 0.535213175348446 -0.18294504566908493 0.2816545811268568 0.12125168242434602 0.968189775922468 1.5289386336481734 1.454975709007462 0.4807261000441591 -0.7707218540468598 -0.4693916488679465 -1.392400714488718 0.1876871883397606 -1.4032769950815898 0.9256673291792251 0.37327224273485393 0.16671778517694513 -0.7840016018749014 0.033703562900032284 1.6337859065725668 -0.6600806001485083 0.7509523847294164 -0.39218682025116974 0.4657905617802494 0.6152940399614371 0.048348309396400606 -0.6255368007353679 0.8740164377721529 -1.462869509933242 0.11893768957918872 -0.37414513225811047 0.6956248158017052 -0.5524650204503583 0.18922599358179024 -0.03118850978766242 0.026615031484367068 0.5191568932165317 0.2254240407689021 0.32424259100071257 -0.20277776412429593 -0.6488921876318566
-0.6316639966790283 -0.16185171533389545 0.810133780185579 -0.0878643652131519 -0.1292472990353129 0.027045691263882458 0.15103996943037215 -0.37353500947793733 -0.8175416426138759 0.19398253443016916 0.2533426215560411 0.25503286477427045 -0.5050579919213044 1.085330521502234 -0.8228214029555765 -0.4310495587546383 -0.42172005382359634 -0.01110228056074862 -0.7361726553170805 0.009357015734867757 0.6486093662841151 -0.47736798220520366 0.11064125389835137 -0.4992336719300435 0.32494758748753716 -0.05183189706962686 0.09291838269729158 -1.117191888987205 0.7735706363495645 -0.15050826529661823 -0.40099413413015456 -0.6115091189977081 0.21281869330006573 0.6526262007529922 0.4894886767281376 0.11049572945942261 1.285007278103703 0.5596949625398941 0.2945707749678927 -0.14915792191631083 -0.72977317954864 -0.505113270639272 -0.314418148711123 0.48685149621560664 0.22539755840634085 -0.7815662529605314 -0.16939096113373409 -0.7673385393969236 0.03765329157639967 -0.03390488027756096 -0.9648319151938287 -0.4237504539900638 -0.37633725481342284 0.6495779008449716 -0.0044166410104569094 -0.6244456245537181 1.2795161730821447 -0.42939222565687335 1.588604424939922 -1.0426373535090816 -0.39399507710450205 -0.2177708950990185 0.2740382022321797 1.4982828564355293 0.1505288341219085 0.66216319370915 0.12955994517972524 -0.007547216219638615 0.6156681354714042 -0.163878258845621 -0.5811001676885476 0.7609454913863862 -0.5315987185243103 0.4913547834025989 -0.4552181855810418 -0.020160276997958828 0.19580647501278536 -0.5404101461683533 0.24813408077190813 -0.5139583797347277 -0.4319923822838818 0.48697799449114204 -0.07830963164518126 -0.7637199688077299 -0.04219026021480476 -0.31983700573384916 0.4686539993709735 -0.4188579017844528 0.1674783174920535 -0.10443692485985238 1.0457797557928055 0.44097967338415667 -0.329625966799813 0.491822724177953 -0.15581399378024777 -0.20197686548955537 0.183139163957762 0.7945073865022316 0.23433574143623512 0.03628186515016977 -0.13069534433574911 -0.11428065042315158 -1.5131847132480263 -0.16221064133521096 -0.8258349929709197 0.5224193660178874 -0.7369442433757825 0.5202974345788781 -0.29222361489195475 -0.5960755580514573 -0.05693322285193421 0.11033272151899708 0.8070651685625844 -0.08914606013905292 0.7181168262566342 0.28030115242275594 -0.3466687812147127 0.2856387625855855 -0.34651400080440325 -0.15708900383792948 0.08765404897455871 0.3586791754120275 -0.06915444750847445 1.150908821623676 -0.5185130889849456 -0.5669210479746881 0.05388775115739106 -0.6400200819532075 -0.794356205636348 -0.165687801250534 -0.3610078235452041 0.2025664194444382 -0.8459880708800269 0.321268338863737 0.2451189480946682 0.44714235055144286 -0.8807468145174508 0.15137087040722963 0.26785829867371286 0.5178091209393857 0.556473627389119 -0.981401903737368 0.22707546032939602 -0.31339484965293124 0.9003116240232559 -0.5202521831632395 0.1547518710643206 0.5103917454293919 -0.5599878111899645 0.421325646598655 -0.14114919267922144 1.2442815182495668 -0.011480232725457647 -0.4571367427599934 0.08684826524381171 -0.4258813842901375 -0.261190399735234 -0.1679981945512655 0.7621469678936552 0.5248164054951542 -0.9366369408168513 0.5196168635720858 0.8577516391738582 0.1703103876242099 0.6272252441813843 -0.24313996999142642 -0.1814466067466875 0.15449964584419842 -0.3886479538599758 -0.18304249047889765 -0.07131468838458686 -1.4404224937836354 -0.40332766735933767 -1.1083889459835943 0.7160648288236119 1.0220926965885109 1.0519105512808917 0.029205675029678732 0.1263661208327759 0.14601860495638078 0.37312671829592514 0.249745391123086 -0.09833775394065 -0.39953966107181516 -0.509837672698135 -0.5043311410576088 0.29726374841902353 -0.3374068962968125 0.30707276408964534 0.572331420356982 0.7211679543781322 0.5197055666311502
0.5440500569137856 0.1636059790208408 -0.14871980593762776 1.6928636865713298 0.7337709878541233 -1.042089708535728 0.6091743002169444 0.49198650344932693 -1.5577288184069884 -0.2909941133602279 0.30589031374576997 -1.5241108732422268 -1.128640754254095 -1.8298505203427453 0.9750034564101919 0.33006871076418637 -0.46733013835322745 -0.11903204906520791 -0.5951638448704654 1.1918850069257216 0.6402357975084393 -0.3624841509804144 0.18390149604508327 -0.16548314143889567 0.025798706230658792 -0.44188444458661325 -0.7154079119659035 0.8954488966143158 0.22308073734770614 -0.4910899597769865 -0.2448109299359461 1.1968302667461388 2.036633806082009 -0.225165902011509 -0.5119524050482925 -0.16169076427599893 0.27988694770347283 0.007031967146116921 0.22393588625914984 0.03096199559915313 -0.0735759736149378 1.1068023182227649 0.5520870682856491 -0.1770299657362306 2.12843581578667 0.24000810923066407 0.2875454926899951 -0.3186797522009544 -0.655901014849522 2.042167334305728 -0.5604542093034219 -0.7627828017054412 0.14748593353052664 -1.3733442120778991 -0.04275127492459734 0.24150680526337762 -0.4125173042784056 -1.09306851357644 0.20432813933055133 0.6911863204143773 -0.7090076648665145 0.6894215152044707 0.6009120602081521 -0.10473208750276801 -0.08434092544092572 0.3469091793602929 -0.3742690594304845 -0.6614967637697445 -0.3730670687025833 -1.053418760395302 -0.9250546352958907 -1.6351563045575321 0.47749679447358406 -0.2067694017821923 -0.6975834821899728 0.7932259486866468 -0.07313554364340953 0.2282028890656199 0.923879641151183 0.24654591034918183 0.6521099232382059 -1.597832114185777 1.3723947036804365 -1.9663113064073623 -0.2557746280363014 -0.11651622462188965 -0.5863290201876548 -0.06952031548832543 -0.35754531891790037 0.7369714970692921 -0.5318797400998388 0.5962817605249925 0.000559214937579682 -0.009922144209718396 1.9126667816090284 1.215995269710364 1.3444879499678393 -1.683495357982552 0.015497324304650728 -0.3410712325222771 -1.1075379108372088 0.8958093652775282 0.2853775385043989 0.7151366605823878 0.9964032622422064 -0.006790026338639918 -0.15668071265591724 -0.2059397067920453 0.4698724451591069 0.3198552605662943 0.4451227490182528 0.3352337999048936 0.05733277228319803 0.1389534705794833 -0.1777475606285455 -0.5454081136035768 -0.8504823592059546 0.20202083135361337 0.18862564099363 0.17102746829589255 -0.16387054553613714 0.16336943753000252 0.45689583039378084 0.663703027392444 -0.6769367524738986 -0.1360093003494948 -0.05923950238760766 -0.28161884279291494 -0.6858060299390706 0.06424312624978613 -0.3971606193166773 -0.15782433934205722 -0.6112522657918957 0.8247168202060765 -1.007529454062355 0.46623741950968095 -0.22528211587439914 0.8552854370215528 0.26121276833273727 -1.8734631148263736 -0.1715046650426272 0.2933939810509721 1.0719785256753602 0.7626768722551962 -0.6767452052883828 0.20566125631967805 -1.0326715005456215 -0.6112864614639408 -0.7771426699715389 -0.18467616942757872 0.7809615294969969 -0.4762446672340378 -0.29541949612143314 0.5841955187844197 0.06650621125234998 -0.27458456165395295 -0.23969314909340658 0.07154968721352839 0.6003849840600886 -0.842027286460066 0.586383527574674 0.5496288365531437 0.6681091268799396 -0.5218658075072625 1.0864474087154967 -0.8393787930936253 -0.21680158920721374 0.5456760225529828 -0.8788462550606284 0.6974107040575344 0.4369978059182732 0.2827398437712356 -0.8193961793241114 0.7659131198043068 0.006671498482904639 -1.167226842057409 -1.6608524237720557 0.44397680833926767 -0.8379500310668988 -0.6276872714194675 0.7392232692179462 0.31759834621131755 -0.5858055435840169 -0.239901922670103 -0.8348981316144525 0.0627068921109178 0.4798308419233995 0.9048354800355385 0.38038957050592553 0.02952834847642011 0.09630375422975673 0.9758799454778743
0.8795795336822272 -1.0637911047685613 1.1536894696926068 0.12976203388820232 0.17071533637211245 -0.27728679107646437 0.46896947372886333 -0.19123299670949 0.3687409305234037 0.2310480718238989 0.8475654426694759 0.4178322887334158 -0.6145270798884256 0.19259748115718445 -0.5733215521843933 -0.29337495488757864 -0.8440036934601464 0.5193386702100347 0.05479149391858305 0.28490368419177386 -0.7908685041980638 -0.5899720162568807 0.2176225424466123 -0.0948024870938819 0.22606141724258488 -0.18511711361973926 0.3357130535341573 -0.3113757623403734 0.10817608018731048 -0.18939002996348028 -0.17998750570265779 -0.30922014944995135 0.20164210785795594 0.06870784688935908 -0.14754635445481687 -0.152077409555951 -0.1441085324178615 -0.23074853830560907 0.2838824420161111 0.45876296550950674 -0.3774703399766015 0.3034606212583548 0.09379024377928363 -0.1308267277072908 0.04989482794791407 -0.5489899174175642 -0.8342936652612342 0.02427609893854529 0.337355988454219 -0.04250419191079777 0.053123876408173024 0.316647552262274 0.3458889656258946 0.07571024634912121 -0.309047628427829 0.3062075878758726 -0.2717571195074868 -0.19379047302402108 -0.00046974054756693294 0.5358999170028255 0.13590465645083047 -0.21324832463831664 0.07344459024339609 0.05250886853199344 -0.28685155194676404 -0.1906717248893813 0.6334861374894316 -1.050753811968629 -0.11513708488617591 0.2556288464870565 0.01705027061406741 -0.6924304772341237 -0.3162526308167005 0.11721556468175941 -0.27685304597315546 0.9546588313155688 -1.368388924955153 -0.07364025119396996 -0.5281968919316129 0.5676216735861386 -0.28751438234174354 0.7874121702183471 0.3326143600041755 -0.014873831788038902 -0.44078324110263445 -0.4509249575223266 0.4229930069987489 -0.37290534631373845 -0.6040002122151727 -1.0648370295345726 -0.09059616232201816 0.06511087356672013 0.3991799637395512 -1.0737618428280282 -1.1780090202745777 0.27763106178976055 0.5195816394587761 1.2913923556944404 -0.4206239925459401 -0.04253813047252674 0.07441929545183958 0.011709060906812093 -0.18063876613341148 -0.5096677227791738 -0.3686902797911263 0.8928392269056108 0.0071772344747295744 -0.5060532659550382 2.4557619308087126 2.4260813730251445 0.20739597962259765 -0.4267699575426779 -0.011223379519645187 0.06086546802680486 -1.7100211721872227 -2.8180846165105984 0.23044771923573862 0.3899674440023478 0.2780825475048823 0.4690738605172115 0.008952066986965228 0.11578217466934253 0.4418967858817873 0.7985468466789281 -0.33114677431971357 0.36974057543251165 -0.01777789280871132 -0.28838598631341944 0.020208613737391003 0.14483923993629894 0.7320110677402232 0.04642306734922973 0.17205539533977465 -1.3185118376190519 0.17111540002400852 -0.07385082454287926 0.2057784986238327 0.8226769069579121 1.3278063755471003 1.0002018100526902 -0.5695888246148384 0.32916805332678795 0.987674367009641 0.6176468564643299 -0.4468721276091917 0.10086514834819403 -0.1556018777694417 -1.052652828763555 0.36060184635603704 -0.514352786959669 -0.7224990144847299 -0.42345889089157396 -0.22644528294456487 -1.0007222013325348 0.15510385508710062 0.3273073459689653 -0.2606579242705317 -0.461998698837985 0.3053256994915516 0.08138955612208564 0.43236236402879086 -0.23919769751422676 0.2240068487064013 -0.46250032106475186 -0.7263865224645941 -0.4624190742048552 -0.14883113470451143 0.5545933796472706 -1.6364223157541495 0.2431967913712908 0.5562715386806419 -0.10699028740932541 0.20838482589842822 0.0970102933784781 -0.36527765456515154 0.35002689905366813 0.30091342935646886 0.6619081402755503 1.5565365978710999 -0.8676100200251768 -0.04493491283947745 1.0977582057426254 0.40545551233561783 0.7142159485403312 -0.43573308027323665 -0.38082948625682156 -0.250767147519381 1.3206126860121385 -0.4315558089670955 0.003366859589703879 0.20160431264148504 -1.040132584809357
-0.2941136328258161 -0.06976791272275727 0.15839461002323044 0.753936921279037 -0.2699450059994125 0.32396516896960986 -0.5160106342780661 0.13901594838630252 0.4609792564345351 1.1577302154208835 1.2815676562945348 0.07529681296078646 0.13170733054003123 -0.2281003020494846 0.2776588297039025 -0.9187420628143016 -0.8031046412529395 -0.24353412010605152 -0.07044436996449158 0.5326191893690246 0.6523312952203927 -0.2901991282627583 -0.6217768194723033 0.21985631687313745 -0.28311959570815753 -0.7462323535459278 0.44000599661697765 -0.9734865055450332 -0.285737750057295 1.269950897991213 0.4119249221100454 0.6195348175156621 0.627312661688868 -0.22783342154134312 -0.04138987580069646 0.824306215031219 -0.5400046831998183 0.33443187282888853 0.2213925510120058 0.17330520858647575 0.3223284046971352 0.36010639477685724 -0.07358702935853133 0.5253205988250824 -0.19371462548076315 0.7974309879069299 -0.5215444196121019 -0.8407299078048812 -0.582238652168365 -0.40955179389217855 0.18350888859235492 -0.12502451920321694 0.8308273039791886 0.28024047438814964 -0.36501128827764234 -0.5886252724209992 -0.5215644742167598 -0.2705103915845793 0.3113582788388767 -1.0848049880160673 -0.2675299688000166 0.08140035475536303 -0.1459854377256002 0.21385896163912202 0.3950847106242551 -0.08635332788526419 1.0373640209252843 0.04027093170490484 0.32084153573896357 0.209480115845136 -0.6680163100558173 -0.25906641141369574 -0.5029463448949403 0.32308585168845005 0.08629573517445138 -1.089299019231679 0.18312810821416847 0.11955758255137473 -0.5966921085895337 -0.07674048738584849 0.2173875436176708 0.9620515242352141 -0.11183964508182673 0.1590553835356809 0.500632352049783 -0.3388210030355197 0.009842697122034663 0.5516615507124565 0.010355117982078941 0.2689070516532014 -0.20416024629411933 0.023465687222107973 -0.47174060871609724 0.8144820298519456 -0.24153714428068077 0.3878917924202417 0.2067686304512439 0.22964270683593999 -0.806918358572075 -1.0541494679137393 -1.4602634397689624 1.0687723600332368 -0.5108905394426814 -1.630365053816476 0.3515345939474462 0.8430001918962966 -0.24181559475304804 0.49064901558482593 -0.44869581108149176 0.6602994010275337 -0.40215601564873965 0.5747490286595393 0.18289233805427857 0.038731612242242974 -0.11690677519208899 0.35247844591795424 -0.772275828797541 -0.012390403244552855 1.080653427741539 0.3682251672292497 0.3770890453777828 -0.7383928028968509 -1.186902980330098 -0.32083665064295713 -0.4009699657604385 0.485032440728997 -0.4664513352926999 -1.0812164993338607 -0.7812330379908287 -0.226491562801468 -0.46666885062014474 -0.5311459472576078 -0.7706426640694921 -0.5328770710161016 0.14270291031958648 0.03120959283358496 0.6404201456051035 0.1438434516819329 0.49718630248271145 -0.4864154371194526 -0.27615190614107277 0.7067579496003892 0.7746564132145756 -0.7285524197676614 -0.33345151119349026 0.5968319766015076 0.6086102001833583 0.6421006186313201 0.39417351166389536 -0.7738460014981383 -0.5190219103005642 -0.14058303576310627 0.04949836384044379 -1.8981428769612405 0.05143106208678239 -0.9742331539030705 0.9830242698321392 -0.19600059330146244 -1.6230834325533983 0.4635752992964855 -0.11807482735826116 -0.6148811207937346 -0.40204648665406895 -0.04438443965264614 -0.3412555806189413 2.0977656403963225 0.3838443618237454 0.9637433101153402 0.20635108329785104 1.0098889554334674 0.016797016952680748 -0.2443710141850501 -1.1675117202876795 -0.3989146258933065 -0.13279387873599066 0.7703953239453765 -0.3326189879898659 0.48670082957035526 0.32806016497458984 0.5204817826755423 -0.6083091240031717 0.6236511536768808 1.9808233839806078 1.0874992470187788 0.056722392392708765 -0.25485237333234817 -0.2984557118445957 -0.06966224038282841 -0.23295017394261816 -0.36434151590412733 0.7080956945752063 -0.2950654552161241
-1.0185237482903298 -0.21997201651539536 -0.6698466783963367 0.608157686026972 0.23236833329721915 -0.06318717418144601 0.6515494227490456 -0.17106140685762156 0.46259776587456464 0.843667136056334 0.1149769051592278 -0.8438478846085726 -0.31503187103572194 0.2260341635490752 -0.517853601024076 0.488553566508378 -0.11356382686178508 0.7067229825973957 0.10837045558630369 -0.9313605229092604 -1.54020109393587 0.8190416241981701 -0.04564505153262462 -1.0779871937632854 -0.3816095589559557 -0.2770062837215681 0.42989847586933067 -0.35747769890475856 -0.5917926144053873 0.586803388720912 0.7458094070758962 1.1280601991602766 0.029468698883078282 -0.19884011963278658 -0.4425166788539734 0.7193291013971805 -0.9797165456151449 0.099779371483183 0.4351417265461409 -0.6460524041902164 -0.14890672513745323 -0.004142304303147705 1.475358643539188 0.3791603260845148 -0.467423212287666 -0.6712188761535149 1.9045819477183652 -1.1729951119997541 0.24456821779752072 0.721681660789757 1.9653304305513315 -0.02325305699066963 -0.8855696898273909 -0.42095875017753953 -0.33029959582806984 0.11366924209139778 -0.9448536722996888 -0.5701608950682245 -0.5123280432201563 -0.0254426084428207 -1.3046160534735662 1.6891926654776457 1.6949113131289777 -0.43687619273874445 -0.34623786432488113 -0.4870127043838192 0.2679050927512483 0.570941739098307 -0.5764639544681169 0.15780274207550243 -0.2482060716604241 -0.14504981328520825 0.15601171161335067 0.6378228171915725 0.09368765676314833 1.5243278743490394 -0.0162614561641849 -1.6838733101472614 0.3128816574619386 0.7832554677374963 0.0736235390234216 -0.3810261756486599 -0.6014159964277642 -0.09642922406402747 0.39249818084400145 0.10630277442399758 0.13094911221776803 -0.18893828713804237 -0.5775348189347924 -0.6176908223283879 -0.2523272929176493 -0.06600870279064117 0.2962612752964382 -0.9746036498686118 -0.302157329065899 0.783089117362961 -0.10606057650620443 -1.0083506644120697 -0.602299427473982 0.3598192025537416 0.05079625671626091 0.2962486768909478 -0.8878248044101549 -0.8021633603855928 -0.38927890257575537 0.1534434366655422 -1.7137538997567778 0.41220748634747073 -0.030809786292005002 -0.8232790593182854 0.5257409741919525 -0.12671167709765274 -1.9938861307018372 -1.0451161540668774 0.27473317141667525 0.598840265280788 1.4440472350204163 -0.6289939060460329 1.0818824150526336 0.21615058588677613 0.43324039575837 -0.18937563178577707 0.5885136865437993 0.2098354423020257 0.1298759337582473 1.1383430691435235 -0.49447635975071613 -0.48626554180514964 -0.1941576265554527 -0.43926217647241766 -0.6904851805822947 -0.07034846781657562 -0.5277587759529299 -0.06176638257451943 -0.25246458982646197 0.0019782067722933674 0.27251533782975 0.2228524233869839 0.3303492181190827 -0.22016639191438858 0.400873035171258 -0.42400062232765684 -0.2113248823633586 -0.3324459527471113 0.9614462865510474 0.0491558928993605 0.7432969250666875 0.5519284312205978 0.09982565134008614 0.8585900759147537 -0.809735773416212 -0.5067024695032628 -0.21085102805073364 0.011751226998657181 0.4905158324410714 -0.12006614675667707 0.7400791894603383 0.42869417114858427 -0.6166328133775186 0.2724757428410662 0.6000504835388053 -0.4254743786597059 0.3255353416702071 -0.3107260445715165 0.3620383216922474 0.24898305903576476 0.2718273106237899 0.4572028201112384 0.7389664160121339 -0.2570882046414024 -0.08274144216428976 -0.49489519245568964 0.13765197815924035 -0.6431917948129697 0.19459908496824552 -0.5557632315856558 -0.8698170549788246 -0.8217824201681008 1.2615539321767695 0.8329466643150364 -0.8507705798703349 -0.012098583035746905 0.26059030425738994 0.0517107981107303 0.2546492561826066 -0.12747040964054823 0.8553389159673075 1.5352095542585495 -0.5290512695121082 0.16093794527037447 0.36986810214931143 0.6992097049394861
-1.1415381790420533 -0.9345160378191067 0.9901739935030431 -0.16051011370433646 -0.9920079613879884 0.4134153906126429 1.0472519694629578 0.29697527064432727 0.615753496096359 -0.11044302184461625 -0.9814440698292128 0.5373795868721455 -0.5002862815642739 -0.3071393556615227 -0.7077475672071681 -1.6949449945803905 1.7843350524094495 -1.814675869484836 0.1332337944868867 0.3755636098721919 0.3580471982549834 -0.41067613730460883 0.38295013214425017 -0.6348812180647454 -0.2676790927833712 0.7673092288208849 0.1370976483176671 -0.4168120749990176 0.1450410715344599 0.9129588804736212 -0.5125255039429432 0.1068848721797127 0.5818213621252883 -0.6301568160058825 -0.17540194321450436 -0.5268221230712734 -0.6734912171274595 0.13887068105768985 0.03293197484133038 -0.8204171643894579 -0.9283813856762786 -0.6771005317452726 0.9934830032716181 -0.58795112917211 0.5363727428741859 0.21513191481427463 -0.08674799222052158 0.8161632742091105 2.1795053807689753 -1.800739719019718 1.4852267945825195 -0.662693098070691 1.0310259945223985 0.502934003599766 0.33436271015384994 -0.5266449740634608 -0.004745999325417633 -0.2137808001030189 -0.24748924809905765 -0.3560283680527417 -0.44645406623516654 -0.540655943630572 -0.21191700742140276 0.35007626423436483 -0.37697231729426045 0.21159921907066784 -0.013709893386924776 -0.813892733007379 -0.20729159283424944 0.1978330185245109 -0.5524346814330551 0.19196550400014034 0.39008262942397337 0.47451971412313115 -0.4327068918524032 0.5185886794178876 -0.15098983291872706 -0.6254013035987681 0.6068389672155484 0.040944817843477865 0.09925100978353875 0.2023851566715676 0.4527895215348912 0.1585092812242238 -0.06449175192548248 -0.38402125372124185 -0.4858680492564148 -0.19956851315837887 0.3087686637348295 0.27346895999227094 0.22888808805810257 -0.20655625733012165 -0.47016709358139025 -1.735560711219224 -2.4281768221015922 3.1369916542310103 0.8416166812852086 -0.43999519798370035 -2.0171353310377644 0.710710506490234 -0.161720846182986 -0.2159436120822926 0.1738523393391974 0.42185118008482186 -0.07839062139476177 -0.5721650699824469 -0.48933929563446693 -0.1733823416813143 -0.2728328690701688 -0.5285231649227801 -0.5893438957545786 0.6162839146785322 -0.3180002096354265 -0.34125223818483164 -0.6208213975375695 1.1564048117412409 -0.3340135543445473 -0.11799512316026131 -0.18212152132652507 0.9629406117083867 -1.3898658638820063 -0.3619398484411702 -0.14687143987497933 -0.3989480502344033 0.09720004079178099 0.08845031962360896 -0.04231881537286905 0.3229315854987729 -0.5548270929246315 -0.29667650845698584 0.036549774099575764 -0.3796231246535462 0.815860141146395 -0.2929031574574827 1.395671157709874 0.7004021825856906 0.7004217229697163 -0.30948574440651216 0.021807325683078572 0.8481971627162037 -0.26272200588841205 -0.2444260357927016 -0.07085368958776829 -0.9697728041388718 0.43415005205683294 -0.22660160601677107 -0.02585784160336837 0.05326400153046311 0.13396193090216285 0.2191037549778291 -0.37450123004594854 0.1086422211904516 -0.5704151771708756 0.5064353318848053 -0.008397480035075861 0.33513609798476474 0.3970528900942194 0.10363499778384734 0.5500450981549558 -0.056590751910850924 -0.7877970643615916 0.1892211084857838 1.7553204103446545 2.3728790779705524 -2.6933699152383164 -0.21857205084407516 0.08063673711646112 0.023539992103469135 0.5553809085455725 0.7742504360254086 0.2722818816627052 0.2766560994710009 -0.6125252189670484 0.5417466055915896 -0.25135078793699295 0.8430364444508708 -0.8550838625337079 0.9595264438205152 0.6285357354626917 -0.2024386356173223 -0.00040854829232832865 0.6530974839624558 0.5985250480332144 -0.9648314009731964 1.3534901534664496 1.6152816771207923 0.057212444655249856 0.25069207130707144 -0.6462771186065128 0.22485094187425145 0.3104897601909943 -0.2624456122985738