An instance of this daemon is already running

     Program PWSCF v.7.1 starts on  9May2023 at 15:31:30 

     This program is part of the open-source Quantum ESPRESSO suite
     for quantum simulation of materials; please cite
         "P. Giannozzi et al., J. Phys.:Condens. Matter 21 395502 (2009);
         "P. Giannozzi et al., J. Phys.:Condens. Matter 29 465901 (2017);
         "P. Giannozzi et al., J. Chem. Phys. 152 154105 (2020);
          URL http://www.quantum-espresso.org", 
     in publications or presentations arising from this work. More details at
     http://www.quantum-espresso.org/quote

     Parallel version (MPI & OpenMP), running on       4 processor cores
     Number of MPI processes:                 4
     Threads/MPI process:                     1

     MPI processes distributed on     1 nodes
     751773 MiB available memory on the printing compute node when the environment starts
 
     Reading input from pw-si-20.in
Warning: card &CELL ignored
Warning: card / ignored

     Current dimensions of program PWSCF are:
     Max number of different atomic species (ntypx) = 10
     Max number of k-points (npk) =  40000
     Max angular momentum in pseudopotentials (lmaxx) =  4

     IMPORTANT: XC functional enforced from input :
     Exchange-correlation= PBE
                           (   1   4   3   4   0   0   0)
     Any further DFT definition will be discarded
     Please, verify this is what you really want


     gamma-point specific algorithms are used
 
     K-points division:     npool     =       2
     R & G space division:  proc/nbgrp/npool/nimage =       2
     Subspace diagonalization in iterative solution of the eigenvalue problem:
     a serial algorithm will be used

     Message from routine divide_et_impera:
     suboptimal parallelization: some nodes have no k-points
 
     Parallelization info
     --------------------
     sticks:   dense  smooth     PW     G-vecs:    dense   smooth      PW
     Min        1896    1896    498                87912    87912   11922
     Max        1897    1897    499                87917    87917   11925
     Sum        3793    3793    997               175829   175829   23847
 
     Using Slab Decomposition
 


     bravais-lattice index     =            0
     lattice parameter (alat)  =      19.9390  a.u.
     unit-cell volume          =    7927.0534 (a.u.)^3
     number of atoms/cell      =           64
     number of atomic types    =            1
     number of electrons       =       256.00
     number of Kohn-Sham states=          128
     kinetic-energy cutoff     =      30.0000  Ry
     charge density cutoff     =     120.0000  Ry
     scf convergence threshold =      1.0E-06
     mixing beta               =       0.5000
     number of iterations used =            8  plain     mixing
     Exchange-correlation= PBE
                           (   1   4   3   4   0   0   0)

     GPU acceleration is ACTIVE.
     GPU-aware MPI enabled

     Message from routine print_cuda_info:
     High GPU oversubscription detected. Are you sure this is what you want?

     celldm(1)=  19.939025  celldm(2)=   0.000000  celldm(3)=   0.000000
     celldm(4)=   0.000000  celldm(5)=   0.000000  celldm(6)=   0.000000

     crystal axes: (cart. coord. in units of alat)
               a(1) = (   1.000000   0.000000   0.000000 )  
               a(2) = (   0.000000   1.000000   0.000000 )  
               a(3) = (   0.000000   0.000000   1.000000 )  

     reciprocal axes: (cart. coord. in units 2 pi/alat)
               b(1) = (  1.000000  0.000000  0.000000 )  
               b(2) = (  0.000000  1.000000  0.000000 )  
               b(3) = (  0.000000  0.000000  1.000000 )  


     PseudoPot. # 1 for Si read from file:
     /home/ppiaggi/pseudos/Si_ONCV_PBE_sr.upf
     MD5 check sum: 8553c464762ac42b85b1eed164b4d029
     Pseudo is Norm-conserving, Zval =  4.0
     Generated using ONCVPSP code by D. R. Hamann
     Using radial grid of 1510 points,  4 beta functions with: 
                l(1) =   0
                l(2) =   0
                l(3) =   1
                l(4) =   1

     atomic species   valence    mass     pseudopotential
        Si             4.00    28.08500     Si( 1.00)

     No symmetry found



   Cartesian axes

     site n.     atom                  positions (alat units)
         1           Si  tau(   1) = (   0.2913100   0.3853340   0.8320320  )
         2           Si  tau(   2) = (   0.8462670   0.1372290   0.3682570  )
         3           Si  tau(   3) = (   0.6941020   0.3875020   0.9805860  )
         4           Si  tau(   4) = (   0.5309710   0.4469890   0.1334960  )
         5           Si  tau(   5) = (   0.5797260   0.1368630   0.8905130  )
         6           Si  tau(   6) = (   0.3317280   0.1009410   0.0024957  )
         7           Si  tau(   7) = (   0.8246190   0.0996084   0.6525890  )
         8           Si  tau(   8) = (   0.3625400   0.0554021   0.7189340  )
         9           Si  tau(   9) = (   0.9034410   0.9039030   0.3853970  )
        10           Si  tau(  10) = (   0.0495225   0.1166040   0.5200710  )
        11           Si  tau(  11) = (   0.6256760   0.4431300   0.7550590  )
        12           Si  tau(  12) = (   0.1704260   0.1444700   0.3134820  )
        13           Si  tau(  13) = (   0.0197123   0.9618350   0.7612990  )
        14           Si  tau(  14) = (   0.0185620   0.7536240   0.5437770  )
        15           Si  tau(  15) = (   0.4666020   0.8371350   0.7602430  )
        16           Si  tau(  16) = (   0.0098598   0.3111070   0.0414738  )
        17           Si  tau(  17) = (   0.5257430   0.1101330   0.5439830  )
        18           Si  tau(  18) = (   0.4553650   0.4216550   0.4290090  )
        19           Si  tau(  19) = (   0.9956770   0.6198360   0.7949030  )
        20           Si  tau(  20) = (   0.2411320   0.6316360   0.5740090  )
        21           Si  tau(  21) = (   0.1258140   0.1208620   0.0885262  )
        22           Si  tau(  22) = (   0.5148750   0.9557770   0.3170930  )
        23           Si  tau(  23) = (   0.9364840   0.5320970   0.5762320  )
        24           Si  tau(  24) = (   0.4765900   0.5754100   0.8962560  )
        25           Si  tau(  25) = (   0.1923870   0.5304450   0.0301095  )
        26           Si  tau(  26) = (   0.8967300   0.5185550   0.9719570  )
        27           Si  tau(  27) = (   0.6559140   0.6475780   0.6562510  )
        28           Si  tau(  28) = (   0.6184940   0.6927330   0.1812720  )
        29           Si  tau(  29) = (   0.3022700   0.4431180   0.2363770  )
        30           Si  tau(  30) = (   0.7849730   0.8892440   0.1191280  )
        31           Si  tau(  31) = (   0.1047770   0.8904310   0.2574960  )
        32           Si  tau(  32) = (   0.3081020   0.6692210   0.3217740  )
        33           Si  tau(  33) = (   0.3743790   0.6932430   0.0874491  )
        34           Si  tau(  34) = (   0.7681930   0.5607190   0.4025340  )
        35           Si  tau(  35) = (   0.8980220   0.6868480   0.1608620  )
        36           Si  tau(  36) = (   0.8884010   0.3118800   0.2045160  )
        37           Si  tau(  37) = (   0.4205720   0.7908940   0.5430570  )
        38           Si  tau(  38) = (   0.4011150   0.1742640   0.3290420  )
        39           Si  tau(  39) = (   0.1737990   0.9291620   0.5796150  )
        40           Si  tau(  40) = (   0.5339080   0.6176250   0.4340050  )
        41           Si  tau(  41) = (   0.3145110   0.4395590   0.5918440  )
        42           Si  tau(  42) = (   0.0819672   0.7761300   0.0524763  )
        43           Si  tau(  43) = (   0.0773749   0.6463990   0.3248560  )
        44           Si  tau(  44) = (   0.4064630   0.9054860   0.0950878  )
        45           Si  tau(  45) = (   0.6856210   0.3950540   0.2774900  )
        46           Si  tau(  46) = (   0.7160530   0.7024400   0.9137830  )
        47           Si  tau(  47) = (   0.0903500   0.3767860   0.3292410  )
        48           Si  tau(  48) = (   0.6836570   0.2661100   0.4751890  )
        49           Si  tau(  49) = (   0.9783830   0.9780110   0.0115067  )
        50           Si  tau(  50) = (   0.2519020   0.8443150   0.8832790  )
        51           Si  tau(  51) = (   0.1758160   0.1728250   0.8002830  )
        52           Si  tau(  52) = (   0.2105390   0.6443060   0.7959180  )
        53           Si  tau(  53) = (   0.8056050   0.1514690   0.9573840  )
        54           Si  tau(  54) = (   0.3011770   0.9229290   0.3685400  )
        55           Si  tau(  55) = (   0.8398680   0.7996340   0.7509100  )
        56           Si  tau(  56) = (   0.4993990   0.2868910   0.6890390  )
        57           Si  tau(  57) = (   0.6933280   0.0904037   0.1923090  )
        58           Si  tau(  58) = (   0.0757274   0.3480940   0.5542290  )
        59           Si  tau(  59) = (   0.7051070   0.8188490   0.4092980  )
        60           Si  tau(  60) = (   0.6653080   0.9261330   0.6119920  )
        61           Si  tau(  61) = (   0.9603520   0.2559470   0.7963770  )
        62           Si  tau(  62) = (   0.8105170   0.3560440   0.6571290  )
        63           Si  tau(  63) = (   0.4897130   0.2014330   0.1181040  )
        64           Si  tau(  64) = (   0.5947080   0.9186220   0.9664690  )

     number of k points=     1
                       cart. coord. in units 2pi/alat
        k(    1) = (   0.0000000   0.0000000   0.0000000), wk =   2.0000000

     Dense  grid:    87915 G-vectors     FFT dimensions: (  72,  72,  72)

     Estimated max dynamical RAM per process >     130.01 MB

     Estimated total dynamical RAM >     498.56 MB

     Initial potential from superposition of free atoms

     starting charge     255.9608, renormalised to     256.0000
     Starting wfcs are  256 randomized atomic wfcs

     total cpu time spent up to now is        5.0 secs

     Self-consistent Calculation

     iteration #  1     ecut=    30.00 Ry     beta= 0.50
     Davidson diagonalization with overlap
     ethr =  1.00E-02,  avg # of iterations =  2.0

     Threshold (ethr) on eigenvalues was too large:
     Diagonalizing with lowered threshold

     Davidson diagonalization with overlap
     ethr =  3.75E-04,  avg # of iterations =  6.0

     total cpu time spent up to now is        5.3 secs

     total energy              =    -501.18667522 Ry
     estimated scf accuracy    <       1.20585490 Ry

     iteration #  2     ecut=    30.00 Ry     beta= 0.50
     Davidson diagonalization with overlap
     ethr =  4.71E-04,  avg # of iterations = 13.0

     total cpu time spent up to now is        5.4 secs

     total energy              =    -501.05927375 Ry
     estimated scf accuracy    <       2.12568248 Ry

     iteration #  3     ecut=    30.00 Ry     beta= 0.50
     Davidson diagonalization with overlap
     ethr =  4.71E-04,  avg # of iterations = 11.0

     total cpu time spent up to now is        5.6 secs

     total energy              =    -501.27307494 Ry
     estimated scf accuracy    <       1.43192175 Ry

     iteration #  4     ecut=    30.00 Ry     beta= 0.50
     Davidson diagonalization with overlap
     ethr =  4.71E-04,  avg # of iterations =  7.0

     total cpu time spent up to now is        5.7 secs

     total energy              =    -501.40916568 Ry
     estimated scf accuracy    <       0.23420417 Ry

     iteration #  5     ecut=    30.00 Ry     beta= 0.50
     Davidson diagonalization with overlap
     ethr =  9.15E-05,  avg # of iterations =  7.0

     total cpu time spent up to now is        5.8 secs

     total energy              =    -501.42752700 Ry
     estimated scf accuracy    <       0.16452554 Ry

     iteration #  6     ecut=    30.00 Ry     beta= 0.50
     Davidson diagonalization with overlap
     ethr =  6.43E-05,  avg # of iterations =  6.0

     total cpu time spent up to now is        5.9 secs

     total energy              =    -501.44557023 Ry
     estimated scf accuracy    <       0.08265989 Ry

     iteration #  7     ecut=    30.00 Ry     beta= 0.50
     Davidson diagonalization with overlap
     ethr =  3.23E-05,  avg # of iterations =  5.0

     total cpu time spent up to now is        6.0 secs

     total energy              =    -501.44959413 Ry
     estimated scf accuracy    <       0.01497011 Ry

     iteration #  8     ecut=    30.00 Ry     beta= 0.50
     Davidson diagonalization with overlap
     ethr =  5.85E-06,  avg # of iterations =  6.0

     total cpu time spent up to now is        6.1 secs

     total energy              =    -501.45246333 Ry
     estimated scf accuracy    <       0.00894636 Ry

     iteration #  9     ecut=    30.00 Ry     beta= 0.50
     Davidson diagonalization with overlap
     ethr =  3.49E-06,  avg # of iterations = 17.0

     total cpu time spent up to now is        6.3 secs

     total energy              =    -501.45302790 Ry
     estimated scf accuracy    <       0.00824740 Ry

     iteration # 10     ecut=    30.00 Ry     beta= 0.50
     Davidson diagonalization with overlap
     ethr =  3.22E-06,  avg # of iterations =  3.0

     total cpu time spent up to now is        6.4 secs

     total energy              =    -501.45268697 Ry
     estimated scf accuracy    <       0.00402693 Ry

     iteration # 11     ecut=    30.00 Ry     beta= 0.50
     Davidson diagonalization with overlap
     c_bands:  1 eigenvalues not converged
     ethr =  1.57E-06,  avg # of iterations = 20.0

     total cpu time spent up to now is        6.6 secs

     total energy              =    -501.45331500 Ry
     estimated scf accuracy    <       0.00077001 Ry

     iteration # 12     ecut=    30.00 Ry     beta= 0.50
     Davidson diagonalization with overlap
     ethr =  3.01E-07,  avg # of iterations = 10.0

     total cpu time spent up to now is        6.7 secs

     total energy              =    -501.45330021 Ry
     estimated scf accuracy    <       0.00093311 Ry

     iteration # 13     ecut=    30.00 Ry     beta= 0.50
     Davidson diagonalization with overlap
     ethr =  3.01E-07,  avg # of iterations = 17.0

     total cpu time spent up to now is        6.8 secs

     total energy              =    -501.45333865 Ry
     estimated scf accuracy    <       0.00023598 Ry

     iteration # 14     ecut=    30.00 Ry     beta= 0.50
     Davidson diagonalization with overlap
     ethr =  9.22E-08,  avg # of iterations =  9.0

     total cpu time spent up to now is        7.0 secs

     total energy              =    -501.45335677 Ry
     estimated scf accuracy    <       0.00006354 Ry

     iteration # 15     ecut=    30.00 Ry     beta= 0.50
     Davidson diagonalization with overlap
     ethr =  2.48E-08,  avg # of iterations = 13.0

     total cpu time spent up to now is        7.1 secs

     total energy              =    -501.45336358 Ry
     estimated scf accuracy    <       0.00001820 Ry

     iteration # 16     ecut=    30.00 Ry     beta= 0.50
     Davidson diagonalization with overlap
     ethr =  7.11E-09,  avg # of iterations = 17.0

     total cpu time spent up to now is        7.3 secs

     total energy              =    -501.45336566 Ry
     estimated scf accuracy    <       0.00000909 Ry

     iteration # 17     ecut=    30.00 Ry     beta= 0.50
     Davidson diagonalization with overlap
     ethr =  3.55E-09,  avg # of iterations =  9.0

     total cpu time spent up to now is        7.4 secs

     total energy              =    -501.45336659 Ry
     estimated scf accuracy    <       0.00000554 Ry

     iteration # 18     ecut=    30.00 Ry     beta= 0.50
     Davidson diagonalization with overlap
     ethr =  2.16E-09,  avg # of iterations =  7.0

     total cpu time spent up to now is        7.5 secs

     total energy              =    -501.45336690 Ry
     estimated scf accuracy    <       0.00000193 Ry

     iteration # 19     ecut=    30.00 Ry     beta= 0.50
     Davidson diagonalization with overlap
     ethr =  7.55E-10,  avg # of iterations =  5.0

     total cpu time spent up to now is        7.6 secs

     End of self-consistent calculation

          k = 0.0000 0.0000 0.0000 ( 11060 PWs)   bands (ev):

    -5.1663  -4.1602  -4.1345  -4.0230  -3.8493  -3.8148  -3.7193  -3.1108
    -3.0858  -2.9703  -2.9032  -2.8919  -2.7491  -2.7179  -2.5909  -2.5337
    -2.4324  -2.3426  -2.2557  -1.9546  -1.7159  -1.6202  -1.5712  -1.3638
    -1.3032  -1.2130  -1.1142  -0.6951  -0.5897  -0.3423  -0.1910  -0.1312
    -0.0095   0.0809   0.2319   0.2877   0.3465   0.4391   0.4619   0.5697
     0.6407   0.7453   0.8172   0.9601   0.9902   1.0756   1.1469   1.2346
     1.2917   1.4093   1.4708   1.5243   1.6405   1.7942   1.8313   1.9038
     2.0100   2.1324   2.2703   2.3360   2.3853   2.4972   2.5802   2.6396
     2.7084   2.8625   2.8766   2.9262   2.9304   3.0371   3.1923   3.2971
     3.3152   3.3546   3.4104   3.4984   3.6194   3.6878   3.7721   3.8470
     4.0502   4.4247   4.6902   4.7355   4.7703   4.8709   4.9575   4.9848
     5.0142   5.1426   5.1773   5.2907   5.3577   5.4179   5.4329   5.4626
     5.6011   5.6507   5.7128   5.7405   5.7946   5.8935   5.9689   6.0026
     6.1164   6.1272   6.1450   6.2192   6.2818   6.3203   6.3568   6.3916
     6.4175   6.5384   6.5720   6.6003   6.7551   6.8150   6.8848   6.9374
     6.9724   7.0314   7.0999   7.1490   7.1926   7.2681   7.3603   7.4676

     highest occupied level (ev):     7.4676

!    total energy              =    -501.45336694 Ry
     estimated scf accuracy    <       0.00000033 Ry

     The total energy is the sum of the following terms:
     one-electron contribution =     201.76600022 Ry
     hartree contribution      =      20.14910670 Ry
     xc contribution           =    -151.35856408 Ry
     ewald contribution        =    -572.00990979 Ry

     convergence has been achieved in  19 iterations

     Forces acting on atoms (cartesian axes, Ry/au):

     atom    1 type  1   force =     0.02242395    0.00256318   -0.01007528
     atom    2 type  1   force =     0.01556536   -0.00829928    0.00792189
     atom    3 type  1   force =     0.02335889   -0.00618516   -0.02573784
     atom    4 type  1   force =    -0.02891389    0.00814881   -0.02464039
     atom    5 type  1   force =     0.01756479   -0.00496177   -0.01088305
     atom    6 type  1   force =    -0.03975998   -0.03404013   -0.02801998
     atom    7 type  1   force =     0.04068598    0.00797596   -0.01812412
     atom    8 type  1   force =    -0.00052969   -0.02198239   -0.00260451
     atom    9 type  1   force =     0.04833922    0.02764608   -0.00556487
     atom   10 type  1   force =    -0.03956881    0.00032553   -0.02021900
     atom   11 type  1   force =     0.03717943    0.04100107    0.04194568
     atom   12 type  1   force =    -0.01170636    0.00445842    0.00068252
     atom   13 type  1   force =    -0.00117589    0.02270300    0.02410567
     atom   14 type  1   force =     0.00274673   -0.00052992   -0.02555128
     atom   15 type  1   force =     0.03549833    0.01631140    0.02025037
     atom   16 type  1   force =     0.01837153    0.01690801   -0.10099866
     atom   17 type  1   force =     0.00067587   -0.00160967   -0.02053876
     atom   18 type  1   force =    -0.00477243   -0.08392834   -0.03755731
     atom   19 type  1   force =    -0.04835968   -0.01646979   -0.03240340
     atom   20 type  1   force =    -0.01970431    0.10615270   -0.01019004
     atom   21 type  1   force =     0.01700443    0.01367169    0.02620077
     atom   22 type  1   force =     0.02580194    0.00965649   -0.03277624
     atom   23 type  1   force =    -0.01138914   -0.01144901    0.01609323
     atom   24 type  1   force =     0.00545555    0.00012023    0.01012536
     atom   25 type  1   force =     0.00997313    0.00898558    0.00320389
     atom   26 type  1   force =    -0.01833652   -0.00476534    0.02806980
     atom   27 type  1   force =    -0.01659021    0.00294937    0.00742448
     atom   28 type  1   force =    -0.00734089   -0.01633612    0.01651225
     atom   29 type  1   force =     0.01758550    0.03057720    0.00209084
     atom   30 type  1   force =    -0.00755624   -0.00560289   -0.01365450
     atom   31 type  1   force =    -0.02171305   -0.00556669   -0.02532415
     atom   32 type  1   force =     0.02340135   -0.00670222   -0.02921584
     atom   33 type  1   force =    -0.01099431   -0.04400637    0.00310394
     atom   34 type  1   force =    -0.00142012    0.04827985    0.01894869
     atom   35 type  1   force =    -0.01016255   -0.02030577   -0.00327904
     atom   36 type  1   force =    -0.03837155   -0.02340042    0.09295430
     atom   37 type  1   force =    -0.01889318   -0.02247198   -0.01648871
     atom   38 type  1   force =     0.00655773   -0.00766104    0.02575667
     atom   39 type  1   force =     0.01838397    0.01433480    0.01311368
     atom   40 type  1   force =     0.03321206    0.05986598    0.00478506
     atom   41 type  1   force =    -0.04999628   -0.10025525    0.03259277
     atom   42 type  1   force =     0.04042087    0.01545866    0.00026330
     atom   43 type  1   force =    -0.02221865    0.00132665    0.01232089
     atom   44 type  1   force =     0.02413377    0.03656321   -0.00011145
     atom   45 type  1   force =     0.02667760   -0.00040725    0.03252934
     atom   46 type  1   force =    -0.01908063    0.01513273    0.01541036
     atom   47 type  1   force =     0.00021484   -0.00956477    0.00037336
     atom   48 type  1   force =     0.01193357   -0.00852517    0.00719789
     atom   49 type  1   force =    -0.02720266   -0.01218122   -0.04144415
     atom   50 type  1   force =    -0.00291172    0.01612777    0.02264715
     atom   51 type  1   force =     0.00560160   -0.00875247    0.00991379
     atom   52 type  1   force =     0.00096277   -0.01322559   -0.00498305
     atom   53 type  1   force =    -0.00017940    0.03843613   -0.00256357
     atom   54 type  1   force =    -0.00720767   -0.02077738    0.03349005
     atom   55 type  1   force =     0.00973353   -0.00124113    0.00105283
     atom   56 type  1   force =    -0.05949723   -0.03959711    0.01715778
     atom   57 type  1   force =    -0.01138774   -0.01285211   -0.01567965
     atom   58 type  1   force =     0.04000775    0.02914967   -0.00501330
     atom   59 type  1   force =    -0.02642768   -0.00995958   -0.01071343
     atom   60 type  1   force =     0.00032152   -0.00699713    0.00643020
     atom   61 type  1   force =    -0.02224918   -0.01302675    0.02851555
     atom   62 type  1   force =    -0.00480219   -0.00684858   -0.01945875
     atom   63 type  1   force =     0.04531169    0.02619817    0.03141425
     atom   64 type  1   force =    -0.01468541   -0.01054254   -0.02078429

     Total force =     0.369201     Total SCF correction =     0.000984


     Computing stress (Cartesian axis) and pressure

          total   stress  (Ry/bohr**3)                   (kbar)     P=      -26.94
  -0.00019913   0.00005894  -0.00004900          -29.29        8.67       -7.21
   0.00005894  -0.00012578   0.00003193            8.67      -18.50        4.70
  -0.00004900   0.00003193  -0.00022445           -7.21        4.70      -33.02

 
     init_run     :      1.09s CPU      4.96s WALL (       1 calls)
     electrons    :      2.43s CPU      2.59s WALL (       1 calls)
     forces       :      0.03s CPU      0.04s WALL (       1 calls)
     stress       :      0.13s CPU      0.13s WALL (       1 calls)

     Called by init_run:
     wfcinit      :      0.56s CPU      4.25s WALL (       1 calls)
                                        4.25s GPU  (       1 calls)
     potinit      :      0.05s CPU      0.14s WALL (       1 calls)
     hinit0       :      0.47s CPU      0.50s WALL (       1 calls)

     Called by electrons:
     c_bands      :      1.64s CPU      1.72s WALL (      20 calls)
     sum_band     :      0.37s CPU      0.41s WALL (      20 calls)
     v_of_rho     :      0.19s CPU      0.30s WALL (      20 calls)
     mix_rho      :      0.19s CPU      0.20s WALL (      20 calls)

     Called by c_bands:
     init_us_2    :      0.07s CPU      0.07s WALL (      41 calls)
     init_us_2:gp :      0.07s CPU      0.07s WALL (      41 calls)
     regterg      :      1.48s CPU      1.55s WALL (      20 calls)

     Called by *egterg:
     rdiaghg      :      0.77s CPU      1.53s WALL (     209 calls)
                                        1.49s GPU  (     209 calls)
     h_psi        :      1.03s CPU      4.01s WALL (     211 calls)
                                        4.01s GPU  (     211 calls)
     g_psi        :      0.00s CPU      0.01s WALL (     190 calls)
                                        0.00s GPU  (     190 calls)

     Called by h_psi:
     h_psi:calbec :      0.53s CPU      3.43s WALL (     211 calls)
                                        3.43s GPU  (     211 calls)
     vloc_psi     :      0.38s CPU      0.45s WALL (     211 calls)
                                        0.45s GPU  (     211 calls)
     add_vuspsi   :      0.09s CPU      0.11s WALL (     211 calls)
                                        0.11s GPU  (     211 calls)

     General routines
     calbec       :      0.53s CPU      3.43s WALL (     216 calls)
     fft          :      0.64s CPU      0.77s WALL (     167 calls)
                                        0.13s GPU  (     106 calls)
     ffts         :      0.05s CPU      0.06s WALL (      20 calls)
     fftw         :      0.43s CPU      0.58s WALL (    2014 calls)
                                        0.50s GPU  (    2014 calls)
 
     Parallel routines
 
     PWSCF        :      3.73s CPU      7.81s WALL

 
   This run was terminated on:  15:31:38   9May2023            

=------------------------------------------------------------------------------=
   JOB DONE.
=------------------------------------------------------------------------------=
