An instance of this daemon is already running
An instance of this daemon is already running

     Program PWSCF v.7.1 starts on  9May2023 at 15:30:24 

     This program is part of the open-source Quantum ESPRESSO suite
     for quantum simulation of materials; please cite
         "P. Giannozzi et al., J. Phys.:Condens. Matter 21 395502 (2009);
         "P. Giannozzi et al., J. Phys.:Condens. Matter 29 465901 (2017);
         "P. Giannozzi et al., J. Chem. Phys. 152 154105 (2020);
          URL http://www.quantum-espresso.org", 
     in publications or presentations arising from this work. More details at
     http://www.quantum-espresso.org/quote

     Parallel version (MPI & OpenMP), running on       4 processor cores
     Number of MPI processes:                 4
     Threads/MPI process:                     1

     MPI processes distributed on     1 nodes
     751770 MiB available memory on the printing compute node when the environment starts
 
     Reading input from pw-si-16.in
Warning: card &CELL ignored
Warning: card / ignored

     Current dimensions of program PWSCF are:
     Max number of different atomic species (ntypx) = 10
     Max number of k-points (npk) =  40000
     Max angular momentum in pseudopotentials (lmaxx) =  4

     IMPORTANT: XC functional enforced from input :
     Exchange-correlation= PBE
                           (   1   4   3   4   0   0   0)
     Any further DFT definition will be discarded
     Please, verify this is what you really want


     gamma-point specific algorithms are used
 
     K-points division:     npool     =       2
     R & G space division:  proc/nbgrp/npool/nimage =       2
     Subspace diagonalization in iterative solution of the eigenvalue problem:
     a serial algorithm will be used

     Message from routine divide_et_impera:
     suboptimal parallelization: some nodes have no k-points
 
     Parallelization info
     --------------------
     sticks:   dense  smooth     PW     G-vecs:    dense   smooth      PW
     Min        1933    1933    515                90495    90495   12286
     Max        1936    1936    518                90500    90500   12287
     Sum        3869    3869   1033               180995   180995   24573
 
     Using Slab Decomposition
 


     bravais-lattice index     =            0
     lattice parameter (alat)  =      20.1243  a.u.
     unit-cell volume          =    8150.0864 (a.u.)^3
     number of atoms/cell      =           64
     number of atomic types    =            1
     number of electrons       =       256.00
     number of Kohn-Sham states=          128
     kinetic-energy cutoff     =      30.0000  Ry
     charge density cutoff     =     120.0000  Ry
     scf convergence threshold =      1.0E-06
     mixing beta               =       0.5000
     number of iterations used =            8  plain     mixing
     Exchange-correlation= PBE
                           (   1   4   3   4   0   0   0)

     GPU acceleration is ACTIVE.
     GPU-aware MPI enabled

     Message from routine print_cuda_info:
     High GPU oversubscription detected. Are you sure this is what you want?

     celldm(1)=  20.124298  celldm(2)=   0.000000  celldm(3)=   0.000000
     celldm(4)=   0.000000  celldm(5)=   0.000000  celldm(6)=   0.000000

     crystal axes: (cart. coord. in units of alat)
               a(1) = (   1.000000   0.000000   0.000000 )  
               a(2) = (   0.000000   1.000000   0.000000 )  
               a(3) = (   0.000000   0.000000   1.000000 )  

     reciprocal axes: (cart. coord. in units 2 pi/alat)
               b(1) = (  1.000000  0.000000  0.000000 )  
               b(2) = (  0.000000  1.000000  0.000000 )  
               b(3) = (  0.000000  0.000000  1.000000 )  


     PseudoPot. # 1 for Si read from file:
     /home/ppiaggi/pseudos/Si_ONCV_PBE_sr.upf
     MD5 check sum: 8553c464762ac42b85b1eed164b4d029
     Pseudo is Norm-conserving, Zval =  4.0
     Generated using ONCVPSP code by D. R. Hamann
     Using radial grid of 1510 points,  4 beta functions with: 
                l(1) =   0
                l(2) =   0
                l(3) =   1
                l(4) =   1

     atomic species   valence    mass     pseudopotential
        Si             4.00    28.08500     Si( 1.00)

     No symmetry found



   Cartesian axes

     site n.     atom                  positions (alat units)
         1           Si  tau(   1) = (   0.6057120   0.3028360   0.0017542  )
         2           Si  tau(   2) = (   0.5488010   0.8750980   0.3836290  )
         3           Si  tau(   3) = (   0.9721030   0.0564788   0.8585970  )
         4           Si  tau(   4) = (   0.1630880   0.0827953   0.0008710  )
         5           Si  tau(   5) = (   0.0128186   0.2617860   0.7299710  )
         6           Si  tau(   6) = (   0.4898490   0.6314960   0.8442080  )
         7           Si  tau(   7) = (   0.8655550   0.6279840   0.7158600  )
         8           Si  tau(   8) = (   0.5679650   0.7988800   0.7154080  )
         9           Si  tau(   9) = (   0.7046930   0.5144320   0.8346560  )
        10           Si  tau(  10) = (   0.0899103   0.4865490   0.1275300  )
        11           Si  tau(  11) = (   0.0195247   0.2245420   0.3485140  )
        12           Si  tau(  12) = (   0.5170210   0.0909954   0.4328940  )
        13           Si  tau(  13) = (   0.4570610   0.2888320   0.2911570  )
        14           Si  tau(  14) = (   0.9412520   0.6631760   0.2840170  )
        15           Si  tau(  15) = (   0.6356040   0.2401250   0.5916560  )
        16           Si  tau(  16) = (   0.2265080   0.6870890   0.9906680  )
        17           Si  tau(  17) = (   0.3667590   0.3566480   0.0010418  )
        18           Si  tau(  18) = (   0.2478030   0.8972700   0.4809460  )
        19           Si  tau(  19) = (   0.1571060   0.3392370   0.9789130  )
        20           Si  tau(  20) = (   0.2352380   0.1625690   0.4740350  )
        21           Si  tau(  21) = (   0.6568690   0.6420470   0.0521243  )
        22           Si  tau(  22) = (   0.0541589   0.8353520   0.1089510  )
        23           Si  tau(  23) = (   0.0999985   0.4692650   0.3898920  )
        24           Si  tau(  24) = (   0.7468510   0.1105790   0.8216010  )
        25           Si  tau(  25) = (   0.3306990   0.6731480   0.6376500  )
        26           Si  tau(  26) = (   0.9260620   0.9252390   0.5827020  )
        27           Si  tau(  27) = (   0.1808820   0.0502296   0.2700440  )
        28           Si  tau(  28) = (   0.8819210   0.3744040   0.1720010  )
        29           Si  tau(  29) = (   0.7234180   0.7974450   0.5474290  )
        30           Si  tau(  30) = (   0.2891700   0.9817020   0.8321790  )
        31           Si  tau(  31) = (   0.4186450   0.8416200   0.0049362  )
        32           Si  tau(  32) = (   0.7462220   0.8081140   0.2276080  )
        33           Si  tau(  33) = (   0.9505160   0.5724070   0.9481090  )
        34           Si  tau(  34) = (   0.8633660   0.3319060   0.9262800  )
        35           Si  tau(  35) = (   0.8278140   0.1363650   0.6045330  )
        36           Si  tau(  36) = (   0.3774990   0.1563400   0.1510730  )
        37           Si  tau(  37) = (   0.9239720   0.1153720   0.1069300  )
        38           Si  tau(  38) = (   0.3411360   0.8806410   0.2299070  )
        39           Si  tau(  39) = (   0.2223270   0.1739550   0.7048170  )
        40           Si  tau(  40) = (   0.6767720   0.2655530   0.2205500  )
        41           Si  tau(  41) = (   0.1993050   0.7863940   0.7864000  )
        42           Si  tau(  42) = (   0.7046100   0.5200650   0.2284360  )
        43           Si  tau(  43) = (   0.6040200   0.4618100   0.6229550  )
        44           Si  tau(  44) = (   0.8106080   0.1203840   0.3614290  )
        45           Si  tau(  45) = (   0.7247570   0.9949050   0.1420010  )
        46           Si  tau(  46) = (   0.0690357   0.7402010   0.5069370  )
        47           Si  tau(  47) = (   0.8340550   0.3776610   0.4807100  )
        48           Si  tau(  48) = (   0.8830640   0.7704840   0.0004227  )
        49           Si  tau(  49) = (   0.1628310   0.4779750   0.8018650  )
        50           Si  tau(  50) = (   0.4149980   0.9438420   0.6463950  )
        51           Si  tau(  51) = (   0.4774580   0.5251440   0.3035470  )
        52           Si  tau(  52) = (   0.4415570   0.5722590   0.0666099  )
        53           Si  tau(  53) = (   0.4002200   0.7122940   0.4342170  )
        54           Si  tau(  54) = (   0.9931860   0.4607340   0.6022330  )
        55           Si  tau(  55) = (   0.2074810   0.6707240   0.2618730  )
        56           Si  tau(  56) = (   0.5091300   0.1500620   0.7946920  )
        57           Si  tau(  57) = (   0.9660140   0.9346880   0.3495010  )
        58           Si  tau(  58) = (   0.3582960   0.3141250   0.7812480  )
        59           Si  tau(  59) = (   0.9656740   0.8451360   0.7867450  )
        60           Si  tau(  60) = (   0.7157530   0.5842020   0.4397640  )
        61           Si  tau(  61) = (   0.7000190   0.8659270   0.8921910  )
        62           Si  tau(  62) = (   0.2861690   0.3894600   0.4569210  )
        63           Si  tau(  63) = (   0.5407370   0.0365572   0.0064593  )
        64           Si  tau(  64) = (   0.4005800   0.4733810   0.6387020  )

     number of k points=     1
                       cart. coord. in units 2pi/alat
        k(    1) = (   0.0000000   0.0000000   0.0000000), wk =   2.0000000

     Dense  grid:    90498 G-vectors     FFT dimensions: (  72,  72,  72)

     Estimated max dynamical RAM per process >     133.25 MB

     Estimated total dynamical RAM >     510.90 MB

     Initial potential from superposition of free atoms

     starting charge     255.9608, renormalised to     256.0000
     Starting wfcs are  256 randomized atomic wfcs

     total cpu time spent up to now is        5.0 secs

     Self-consistent Calculation

     iteration #  1     ecut=    30.00 Ry     beta= 0.50
     Davidson diagonalization with overlap
     ethr =  1.00E-02,  avg # of iterations =  2.0

     Threshold (ethr) on eigenvalues was too large:
     Diagonalizing with lowered threshold

     Davidson diagonalization with overlap
     ethr =  3.65E-04,  avg # of iterations =  6.0

     total cpu time spent up to now is        5.3 secs

     total energy              =    -501.05703421 Ry
     estimated scf accuracy    <       1.20912944 Ry

     iteration #  2     ecut=    30.00 Ry     beta= 0.50
     Davidson diagonalization with overlap
     ethr =  4.72E-04,  avg # of iterations = 11.0

     total cpu time spent up to now is        5.4 secs

     total energy              =    -500.54665667 Ry
     estimated scf accuracy    <       6.18438369 Ry

     iteration #  3     ecut=    30.00 Ry     beta= 0.50
     Davidson diagonalization with overlap
     ethr =  4.72E-04,  avg # of iterations =  9.0

     total cpu time spent up to now is        5.6 secs

     total energy              =    -501.15401255 Ry
     estimated scf accuracy    <       1.80007784 Ry

     iteration #  4     ecut=    30.00 Ry     beta= 0.50
     Davidson diagonalization with overlap
     ethr =  4.72E-04,  avg # of iterations =  5.0

     total cpu time spent up to now is        5.7 secs

     total energy              =    -501.26425534 Ry
     estimated scf accuracy    <       0.32836701 Ry

     iteration #  5     ecut=    30.00 Ry     beta= 0.50
     Davidson diagonalization with overlap
     ethr =  1.28E-04,  avg # of iterations =  9.0

     total cpu time spent up to now is        5.8 secs

     total energy              =    -501.30177096 Ry
     estimated scf accuracy    <       0.19692239 Ry

     iteration #  6     ecut=    30.00 Ry     beta= 0.50
     Davidson diagonalization with overlap
     ethr =  7.69E-05,  avg # of iterations = 10.0

     total cpu time spent up to now is        5.9 secs

     total energy              =    -501.32021796 Ry
     estimated scf accuracy    <       0.11773429 Ry

     iteration #  7     ecut=    30.00 Ry     beta= 0.50
     Davidson diagonalization with overlap
     ethr =  4.60E-05,  avg # of iterations =  3.0

     total cpu time spent up to now is        6.0 secs

     total energy              =    -501.31979110 Ry
     estimated scf accuracy    <       0.04578759 Ry

     iteration #  8     ecut=    30.00 Ry     beta= 0.50
     Davidson diagonalization with overlap
     ethr =  1.79E-05,  avg # of iterations = 11.0

     total cpu time spent up to now is        6.2 secs

     total energy              =    -501.32698547 Ry
     estimated scf accuracy    <       0.00876612 Ry

     iteration #  9     ecut=    30.00 Ry     beta= 0.50
     Davidson diagonalization with overlap
     ethr =  3.42E-06,  avg # of iterations =  8.0

     total cpu time spent up to now is        6.3 secs

     total energy              =    -501.32704688 Ry
     estimated scf accuracy    <       0.01376860 Ry

     iteration # 10     ecut=    30.00 Ry     beta= 0.50
     Davidson diagonalization with overlap
     ethr =  3.42E-06,  avg # of iterations =  3.0

     total cpu time spent up to now is        6.4 secs

     total energy              =    -501.32718276 Ry
     estimated scf accuracy    <       0.00397397 Ry

     iteration # 11     ecut=    30.00 Ry     beta= 0.50
     Davidson diagonalization with overlap
     ethr =  1.55E-06,  avg # of iterations = 11.0

     total cpu time spent up to now is        6.5 secs

     total energy              =    -501.32779928 Ry
     estimated scf accuracy    <       0.00193586 Ry

     iteration # 12     ecut=    30.00 Ry     beta= 0.50
     Davidson diagonalization with overlap
     ethr =  7.56E-07,  avg # of iterations =  2.0

     total cpu time spent up to now is        6.6 secs

     total energy              =    -501.32766206 Ry
     estimated scf accuracy    <       0.00118364 Ry

     iteration # 13     ecut=    30.00 Ry     beta= 0.50
     Davidson diagonalization with overlap
     ethr =  4.62E-07,  avg # of iterations =  9.0

     total cpu time spent up to now is        6.7 secs

     total energy              =    -501.32784787 Ry
     estimated scf accuracy    <       0.00017977 Ry

     iteration # 14     ecut=    30.00 Ry     beta= 0.50
     Davidson diagonalization with overlap
     ethr =  7.02E-08,  avg # of iterations =  6.0

     total cpu time spent up to now is        6.8 secs

     total energy              =    -501.32784784 Ry
     estimated scf accuracy    <       0.00015826 Ry

     iteration # 15     ecut=    30.00 Ry     beta= 0.50
     Davidson diagonalization with overlap
     ethr =  6.18E-08,  avg # of iterations =  3.0

     total cpu time spent up to now is        6.9 secs

     total energy              =    -501.32784864 Ry
     estimated scf accuracy    <       0.00004915 Ry

     iteration # 16     ecut=    30.00 Ry     beta= 0.50
     Davidson diagonalization with overlap
     ethr =  1.92E-08,  avg # of iterations =  8.0

     total cpu time spent up to now is        7.1 secs

     total energy              =    -501.32785938 Ry
     estimated scf accuracy    <       0.00003058 Ry

     iteration # 17     ecut=    30.00 Ry     beta= 0.50
     Davidson diagonalization with overlap
     ethr =  1.19E-08,  avg # of iterations =  2.0

     total cpu time spent up to now is        7.1 secs

     total energy              =    -501.32785840 Ry
     estimated scf accuracy    <       0.00003130 Ry

     iteration # 18     ecut=    30.00 Ry     beta= 0.50
     Davidson diagonalization with overlap
     ethr =  1.19E-08,  avg # of iterations =  2.0

     total cpu time spent up to now is        7.2 secs

     total energy              =    -501.32785734 Ry
     estimated scf accuracy    <       0.00001916 Ry

     iteration # 19     ecut=    30.00 Ry     beta= 0.50
     Davidson diagonalization with overlap
     ethr =  7.48E-09,  avg # of iterations =  3.0

     total cpu time spent up to now is        7.3 secs

     total energy              =    -501.32785729 Ry
     estimated scf accuracy    <       0.00000596 Ry

     iteration # 20     ecut=    30.00 Ry     beta= 0.50
     Davidson diagonalization with overlap
     ethr =  2.33E-09,  avg # of iterations = 14.0

     total cpu time spent up to now is        7.5 secs

     total energy              =    -501.32785881 Ry
     estimated scf accuracy    <       0.00000833 Ry

     iteration # 21     ecut=    30.00 Ry     beta= 0.50
     Davidson diagonalization with overlap
     ethr =  2.33E-09,  avg # of iterations =  2.0

     total cpu time spent up to now is        7.6 secs

     total energy              =    -501.32785867 Ry
     estimated scf accuracy    <       0.00000518 Ry

     iteration # 22     ecut=    30.00 Ry     beta= 0.50
     Davidson diagonalization with overlap
     ethr =  2.02E-09,  avg # of iterations =  1.0

     total cpu time spent up to now is        7.6 secs

     total energy              =    -501.32785840 Ry
     estimated scf accuracy    <       0.00000333 Ry

     iteration # 23     ecut=    30.00 Ry     beta= 0.50
     Davidson diagonalization with overlap
     ethr =  1.30E-09,  avg # of iterations =  8.0

     total cpu time spent up to now is        7.7 secs

     End of self-consistent calculation

          k = 0.0000 0.0000 0.0000 ( 11324 PWs)   bands (ev):

    -5.3268  -4.4454  -4.2767  -4.1765  -4.1731  -3.9841  -3.9420  -3.3076
    -3.1973  -3.1689  -3.1257  -3.0762  -3.0245  -2.9493  -2.8448  -2.7815
    -2.6662  -2.5900  -2.4455  -2.0401  -2.0077  -1.9658  -1.7724  -1.6354
    -1.5408  -1.4292  -1.1173  -0.8517  -0.7785  -0.6224  -0.5751  -0.4985
    -0.3625  -0.1107  -0.0383   0.0123   0.1112   0.1452   0.2416   0.3330
     0.4323   0.5177   0.5926   0.6045   0.7073   0.7726   0.9156   0.9440
     1.0524   1.1256   1.3081   1.3488   1.4504   1.4661   1.5827   1.7009
     1.7163   1.8202   1.9418   1.9796   2.1209   2.1794   2.2424   2.3416
     2.5288   2.6272   2.6880   2.7347   2.7552   2.8447   2.9034   3.0608
     3.0871   3.2224   3.2753   3.3856   3.4217   3.5032   3.5745   3.5866
     3.8088   4.1616   4.3136   4.3461   4.4459   4.4868   4.5833   4.6371
     4.7947   4.8556   4.8888   4.9497   4.9993   5.1039   5.1243   5.2010
     5.3329   5.3561   5.3848   5.4450   5.5590   5.6229   5.6499   5.7082
     5.7886   5.8033   5.8770   5.9102   5.9922   6.0454   6.0868   6.1498
     6.2263   6.3209   6.3371   6.3959   6.4363   6.5348   6.5390   6.6642
     6.6807   6.7499   6.7736   6.8177   6.8657   6.9574   7.0411   7.0806

     highest occupied level (ev):     7.0806

!    total energy              =    -501.32785851 Ry
     estimated scf accuracy    <       0.00000022 Ry

     The total energy is the sum of the following terms:
     one-electron contribution =     193.11175917 Ry
     hartree contribution      =      21.56585142 Ry
     xc contribution           =    -150.63999972 Ry
     ewald contribution        =    -565.36546938 Ry

     convergence has been achieved in  23 iterations

     Forces acting on atoms (cartesian axes, Ry/au):

     atom    1 type  1   force =     0.00287380   -0.03614791   -0.01561242
     atom    2 type  1   force =     0.02852914   -0.02697752   -0.00651944
     atom    3 type  1   force =    -0.00474801    0.02055073    0.03141657
     atom    4 type  1   force =    -0.02314574    0.01951435    0.01326843
     atom    5 type  1   force =    -0.00885811   -0.01267424    0.00711326
     atom    6 type  1   force =     0.01968841    0.00990004   -0.02309005
     atom    7 type  1   force =     0.02887762    0.00557786    0.01324280
     atom    8 type  1   force =     0.01431584   -0.01471275   -0.00710342
     atom    9 type  1   force =    -0.00510446    0.00320759   -0.01056563
     atom   10 type  1   force =    -0.02079749    0.05519363    0.02054140
     atom   11 type  1   force =    -0.02051327    0.01061040   -0.02918755
     atom   12 type  1   force =    -0.02046468    0.02420699    0.04693943
     atom   13 type  1   force =     0.02504425    0.02556871    0.05680883
     atom   14 type  1   force =     0.00163089    0.02735412   -0.00326995
     atom   15 type  1   force =    -0.02315170   -0.00361024   -0.01290813
     atom   16 type  1   force =     0.01288473    0.00405100    0.01325998
     atom   17 type  1   force =     0.06550405   -0.00144765    0.02403507
     atom   18 type  1   force =    -0.00918442   -0.00020263   -0.00489253
     atom   19 type  1   force =    -0.03288275   -0.04680503   -0.00570123
     atom   20 type  1   force =     0.01910841   -0.00173012    0.01197125
     atom   21 type  1   force =     0.00421219    0.03644520   -0.02854440
     atom   22 type  1   force =     0.05888500    0.01180083    0.04009481
     atom   23 type  1   force =    -0.01923286    0.02310149   -0.01056143
     atom   24 type  1   force =    -0.00374537   -0.00544312    0.02361511
     atom   25 type  1   force =    -0.00665583    0.02786786    0.02854924
     atom   26 type  1   force =    -0.04603060   -0.01363835   -0.03069873
     atom   27 type  1   force =    -0.01934817   -0.01884068    0.00065096
     atom   28 type  1   force =     0.01172376   -0.03231854   -0.01879273
     atom   29 type  1   force =    -0.00582457   -0.01534984   -0.01141395
     atom   30 type  1   force =     0.02457879    0.03315422    0.00166903
     atom   31 type  1   force =    -0.01279227   -0.01123131   -0.01659477
     atom   32 type  1   force =     0.01099331   -0.05128513    0.03330494
     atom   33 type  1   force =     0.00805025   -0.04588574   -0.02143052
     atom   34 type  1   force =    -0.01869416   -0.00903619   -0.00325229
     atom   35 type  1   force =     0.05125725   -0.01199918    0.00575393
     atom   36 type  1   force =    -0.01667009   -0.02692437   -0.05961195
     atom   37 type  1   force =     0.01621216    0.01792311   -0.00510952
     atom   38 type  1   force =    -0.00773718   -0.01978773    0.01758254
     atom   39 type  1   force =    -0.05306908   -0.03717868   -0.03157315
     atom   40 type  1   force =    -0.01278873    0.01891739    0.01051884
     atom   41 type  1   force =    -0.03044715   -0.02678704   -0.00551676
     atom   42 type  1   force =     0.01773727   -0.04421206    0.00581059
     atom   43 type  1   force =     0.10092392    0.00348258   -0.01361801
     atom   44 type  1   force =     0.00138743    0.01041423    0.01215326
     atom   45 type  1   force =    -0.00243003    0.06695435   -0.04625051
     atom   46 type  1   force =    -0.00063053    0.02033511   -0.03050289
     atom   47 type  1   force =    -0.02493593   -0.02685530   -0.02504665
     atom   48 type  1   force =    -0.06425167    0.01933293   -0.00786608
     atom   49 type  1   force =    -0.02585709    0.02341377   -0.01463952
     atom   50 type  1   force =    -0.00984171    0.03976322   -0.02460253
     atom   51 type  1   force =    -0.00637367    0.00179189   -0.00828993
     atom   52 type  1   force =    -0.05898657    0.00240399    0.00192270
     atom   53 type  1   force =    -0.00005998    0.00610858   -0.03677132
     atom   54 type  1   force =     0.00680857    0.02550897    0.03516035
     atom   55 type  1   force =    -0.00504076    0.01571906    0.00534580
     atom   56 type  1   force =     0.03845040   -0.01885104    0.00786156
     atom   57 type  1   force =     0.01843462   -0.00259797   -0.00703046
     atom   58 type  1   force =     0.03158519    0.01808823    0.02388635
     atom   59 type  1   force =     0.01446305   -0.03919304   -0.00685671
     atom   60 type  1   force =     0.00924026   -0.00035529    0.05263756
     atom   61 type  1   force =    -0.00621589    0.03376592    0.01902005
     atom   62 type  1   force =     0.04570521   -0.05080034    0.00512207
     atom   63 type  1   force =     0.01666150    0.00958063    0.02193797
     atom   64 type  1   force =    -0.07925673   -0.01872995   -0.00776951

     Total force =     0.367765     Total SCF correction =     0.000948


     Computing stress (Cartesian axis) and pressure

          total   stress  (Ry/bohr**3)                   (kbar)     P=      -33.71
  -0.00009871   0.00002817  -0.00002041          -14.52        4.14       -3.00
   0.00002817  -0.00031268  -0.00003039            4.14      -46.00       -4.47
  -0.00002041  -0.00003039  -0.00027600           -3.00       -4.47      -40.60

 
     init_run     :      1.36s CPU      4.93s WALL (       1 calls)
     electrons    :      2.57s CPU      2.73s WALL (       1 calls)
     forces       :      0.03s CPU      0.04s WALL (       1 calls)
     stress       :      0.13s CPU      0.14s WALL (       1 calls)

     Called by init_run:
     wfcinit      :      0.82s CPU      4.22s WALL (       1 calls)
                                        4.22s GPU  (       1 calls)
     potinit      :      0.06s CPU      0.14s WALL (       1 calls)
     hinit0       :      0.47s CPU      0.50s WALL (       1 calls)

     Called by electrons:
     c_bands      :      1.60s CPU      1.66s WALL (      24 calls)
     sum_band     :      0.45s CPU      0.51s WALL (      24 calls)
     v_of_rho     :      0.23s CPU      0.34s WALL (      24 calls)
     mix_rho      :      0.24s CPU      0.25s WALL (      24 calls)

     Called by c_bands:
     init_us_2    :      0.09s CPU      0.09s WALL (      49 calls)
     init_us_2:gp :      0.08s CPU      0.09s WALL (      49 calls)
     regterg      :      1.41s CPU      1.46s WALL (      24 calls)

     Called by *egterg:
     rdiaghg      :      0.66s CPU      1.38s WALL (     171 calls)
                                        1.35s GPU  (     171 calls)
     h_psi        :      1.33s CPU      4.05s WALL (     173 calls)
                                        4.05s GPU  (     173 calls)
     g_psi        :      0.00s CPU      0.00s WALL (     148 calls)
                                        0.00s GPU  (     148 calls)

     Called by h_psi:
     h_psi:calbec :      0.80s CPU      3.45s WALL (     173 calls)
                                        3.45s GPU  (     173 calls)
     vloc_psi     :      0.43s CPU      0.50s WALL (     173 calls)
                                        0.50s GPU  (     173 calls)
     add_vuspsi   :      0.07s CPU      0.09s WALL (     173 calls)
                                        0.09s GPU  (     173 calls)

     General routines
     calbec       :      0.80s CPU      3.45s WALL (     178 calls)
     fft          :      0.68s CPU      0.80s WALL (     199 calls)
                                        0.14s GPU  (     126 calls)
     ffts         :      0.07s CPU      0.07s WALL (      24 calls)
     fftw         :      0.51s CPU      0.65s WALL (    2226 calls)
                                        0.57s GPU  (    2226 calls)
 
     Parallel routines
 
     PWSCF        :      4.15s CPU      7.93s WALL

 
   This run was terminated on:  15:30:32   9May2023            

=------------------------------------------------------------------------------=
   JOB DONE.
=------------------------------------------------------------------------------=
