An instance of this daemon is already running

     Program PWSCF v.7.1 starts on  9May2023 at 15:45:24 

     This program is part of the open-source Quantum ESPRESSO suite
     for quantum simulation of materials; please cite
         "P. Giannozzi et al., J. Phys.:Condens. Matter 21 395502 (2009);
         "P. Giannozzi et al., J. Phys.:Condens. Matter 29 465901 (2017);
         "P. Giannozzi et al., J. Chem. Phys. 152 154105 (2020);
          URL http://www.quantum-espresso.org", 
     in publications or presentations arising from this work. More details at
     http://www.quantum-espresso.org/quote

     Parallel version (MPI & OpenMP), running on       4 processor cores
     Number of MPI processes:                 4
     Threads/MPI process:                     1

     MPI processes distributed on     1 nodes
     751757 MiB available memory on the printing compute node when the environment starts
 
     Reading input from pw-si-87.in
Warning: card &CELL ignored
Warning: card / ignored

     Current dimensions of program PWSCF are:
     Max number of different atomic species (ntypx) = 10
     Max number of k-points (npk) =  40000
     Max angular momentum in pseudopotentials (lmaxx) =  4

     IMPORTANT: XC functional enforced from input :
     Exchange-correlation= PBE
                           (   1   4   3   4   0   0   0)
     Any further DFT definition will be discarded
     Please, verify this is what you really want


     gamma-point specific algorithms are used
 
     K-points division:     npool     =       2
     R & G space division:  proc/nbgrp/npool/nimage =       2
     Subspace diagonalization in iterative solution of the eigenvalue problem:
     a serial algorithm will be used

     Message from routine divide_et_impera:
     suboptimal parallelization: some nodes have no k-points
 
     Parallelization info
     --------------------
     sticks:   dense  smooth     PW     G-vecs:    dense   smooth      PW
     Min        1942    1942    516                90833    90833   12416
     Max        1943    1943    517                90834    90834   12421
     Sum        3885    3885   1033               181667   181667   24837
 
     Using Slab Decomposition
 


     bravais-lattice index     =            0
     lattice parameter (alat)  =      20.1511  a.u.
     unit-cell volume          =    8182.6706 (a.u.)^3
     number of atoms/cell      =           64
     number of atomic types    =            1
     number of electrons       =       256.00
     number of Kohn-Sham states=          128
     kinetic-energy cutoff     =      30.0000  Ry
     charge density cutoff     =     120.0000  Ry
     scf convergence threshold =      1.0E-06
     mixing beta               =       0.5000
     number of iterations used =            8  plain     mixing
     Exchange-correlation= PBE
                           (   1   4   3   4   0   0   0)

     GPU acceleration is ACTIVE.
     GPU-aware MPI enabled

     Message from routine print_cuda_info:
     High GPU oversubscription detected. Are you sure this is what you want?

     celldm(1)=  20.151081  celldm(2)=   0.000000  celldm(3)=   0.000000
     celldm(4)=   0.000000  celldm(5)=   0.000000  celldm(6)=   0.000000

     crystal axes: (cart. coord. in units of alat)
               a(1) = (   1.000000   0.000000   0.000000 )  
               a(2) = (   0.000000   1.000000   0.000000 )  
               a(3) = (   0.000000   0.000000   1.000000 )  

     reciprocal axes: (cart. coord. in units 2 pi/alat)
               b(1) = (  1.000000  0.000000  0.000000 )  
               b(2) = (  0.000000  1.000000  0.000000 )  
               b(3) = (  0.000000  0.000000  1.000000 )  


     PseudoPot. # 1 for Si read from file:
     /home/ppiaggi/pseudos/Si_ONCV_PBE_sr.upf
     MD5 check sum: 8553c464762ac42b85b1eed164b4d029
     Pseudo is Norm-conserving, Zval =  4.0
     Generated using ONCVPSP code by D. R. Hamann
     Using radial grid of 1510 points,  4 beta functions with: 
                l(1) =   0
                l(2) =   0
                l(3) =   1
                l(4) =   1

     atomic species   valence    mass     pseudopotential
        Si             4.00    28.08500     Si( 1.00)

     No symmetry found



   Cartesian axes

     site n.     atom                  positions (alat units)
         1           Si  tau(   1) = (   0.5097580   0.0060565   0.5736540  )
         2           Si  tau(   2) = (   0.9593200   0.1025530   0.0570023  )
         3           Si  tau(   3) = (   0.0429245   0.6909150   0.3314280  )
         4           Si  tau(   4) = (   0.3388070   0.5529350   0.6247720  )
         5           Si  tau(   5) = (   0.0393333   0.1562490   0.2734880  )
         6           Si  tau(   6) = (   0.1204810   0.2700220   0.6406640  )
         7           Si  tau(   7) = (   0.5125020   0.6479360   0.0776807  )
         8           Si  tau(   8) = (   0.5793460   0.1732380   0.4089720  )
         9           Si  tau(   9) = (   0.4863090   0.2133810   0.6775270  )
        10           Si  tau(  10) = (   0.7759680   0.7977280   0.7228430  )
        11           Si  tau(  11) = (   0.4936940   0.4316310   0.7272290  )
        12           Si  tau(  12) = (   0.0436999   0.9815880   0.7512980  )
        13           Si  tau(  13) = (   0.8594780   0.0520721   0.8441890  )
        14           Si  tau(  14) = (   0.8009560   0.6047300   0.0218403  )
        15           Si  tau(  15) = (   0.2023770   0.0536183   0.0809291  )
        16           Si  tau(  16) = (   0.2427500   0.9887630   0.8402140  )
        17           Si  tau(  17) = (   0.2518150   0.6993400   0.4532770  )
        18           Si  tau(  18) = (   0.7091130   0.0676585   0.2689650  )
        19           Si  tau(  19) = (   0.8003660   0.2645060   0.1844340  )
        20           Si  tau(  20) = (   0.9666350   0.3078860   0.9440920  )
        21           Si  tau(  21) = (   0.3077290   0.9000900   0.6192240  )
        22           Si  tau(  22) = (   0.0656479   0.7828180   0.6080090  )
        23           Si  tau(  23) = (   0.6439230   0.6013070   0.8504280  )
        24           Si  tau(  24) = (   0.4799560   0.7542630   0.7338640  )
        25           Si  tau(  25) = (   0.5802340   0.4434630   0.1335210  )
        26           Si  tau(  26) = (   0.4670800   0.5118390   0.3841670  )
        27           Si  tau(  27) = (   0.8289740   0.5894710   0.3466850  )
        28           Si  tau(  28) = (   0.7572250   0.3910230   0.8444490  )
        29           Si  tau(  29) = (   0.9364270   0.7770030   0.8696210  )
        30           Si  tau(  30) = (   0.2101920   0.4329750   0.4544410  )
        31           Si  tau(  31) = (   0.0883785   0.8474790   0.0443022  )
        32           Si  tau(  32) = (   0.6714940   0.2829490   0.0003436  )
        33           Si  tau(  33) = (   0.4326130   0.3946860   0.9572830  )
        34           Si  tau(  34) = (   0.7663460   0.9163700   0.0626507  )
        35           Si  tau(  35) = (   0.9939650   0.4243270   0.3591250  )
        36           Si  tau(  36) = (   0.4064940   0.3002670   0.2736390  )
        37           Si  tau(  37) = (   0.6289470   0.5774310   0.5664770  )
        38           Si  tau(  38) = (   0.4231560   0.0463265   0.1752800  )
        39           Si  tau(  39) = (   0.3230050   0.7716650   0.8995380  )
        40           Si  tau(  40) = (   0.2192850   0.2783880   0.1657020  )
        41           Si  tau(  41) = (   0.5739350   0.0778040   0.0233016  )
        42           Si  tau(  42) = (   0.6197720   0.9697320   0.8023470  )
        43           Si  tau(  43) = (   0.3650310   0.6343060   0.2237360  )
        44           Si  tau(  44) = (   0.2247900   0.0391706   0.4206560  )
        45           Si  tau(  45) = (   0.1850570   0.6546230   0.7520470  )
        46           Si  tau(  46) = (   0.8502130   0.6177530   0.6028370  )
        47           Si  tau(  47) = (   0.3805190   0.8935770   0.3440720  )
        48           Si  tau(  48) = (   0.0183652   0.5353340   0.8531430  )
        49           Si  tau(  49) = (   0.1401190   0.6493540   0.1309010  )
        50           Si  tau(  50) = (   0.1831860   0.2414000   0.8571350  )
        51           Si  tau(  51) = (   0.4141580   0.1730840   0.8753630  )
        52           Si  tau(  52) = (   0.9856420   0.4646590   0.1299510  )
        53           Si  tau(  53) = (   0.8600470   0.0634328   0.4326600  )
        54           Si  tau(  54) = (   0.3144400   0.2253040   0.5168110  )
        55           Si  tau(  55) = (   0.7158520   0.2034650   0.7099050  )
        56           Si  tau(  56) = (   0.7058600   0.7410600   0.1877140  )
        57           Si  tau(  57) = (   0.2099910   0.4223720   0.0044493  )
        58           Si  tau(  58) = (   0.9438050   0.4144730   0.6741300  )
        59           Si  tau(  59) = (   0.5771630   0.7738150   0.4006260  )
        60           Si  tau(  60) = (   0.0326672   0.0856463   0.5667820  )
        61           Si  tau(  61) = (   0.7131350   0.9065700   0.5154770  )
        62           Si  tau(  62) = (   0.8120350   0.2730690   0.5399570  )
        63           Si  tau(  63) = (   0.7018590   0.4071510   0.3556800  )
        64           Si  tau(  64) = (   0.9378840   0.9048180   0.2449660  )

     number of k points=     1
                       cart. coord. in units 2pi/alat
        k(    1) = (   0.0000000   0.0000000   0.0000000), wk =   2.0000000

     Dense  grid:    90834 G-vectors     FFT dimensions: (  72,  72,  72)

     Estimated max dynamical RAM per process >     133.72 MB

     Estimated total dynamical RAM >     512.72 MB

     Initial potential from superposition of free atoms

     starting charge     255.9608, renormalised to     256.0000
     Starting wfcs are  256 randomized atomic wfcs

     total cpu time spent up to now is        5.0 secs

     Self-consistent Calculation

     iteration #  1     ecut=    30.00 Ry     beta= 0.50
     Davidson diagonalization with overlap
     ethr =  1.00E-02,  avg # of iterations =  2.0

     Threshold (ethr) on eigenvalues was too large:
     Diagonalizing with lowered threshold

     Davidson diagonalization with overlap
     ethr =  3.98E-04,  avg # of iterations =  4.0

     total cpu time spent up to now is        5.2 secs

     total energy              =    -501.13235272 Ry
     estimated scf accuracy    <       1.29341862 Ry

     iteration #  2     ecut=    30.00 Ry     beta= 0.50
     Davidson diagonalization with overlap
     ethr =  5.05E-04,  avg # of iterations = 13.0

     total cpu time spent up to now is        5.4 secs

     total energy              =    -500.60174118 Ry
     estimated scf accuracy    <       7.00472244 Ry

     iteration #  3     ecut=    30.00 Ry     beta= 0.50
     Davidson diagonalization with overlap
     ethr =  5.05E-04,  avg # of iterations = 11.0

     total cpu time spent up to now is        5.6 secs

     total energy              =    -501.23913442 Ry
     estimated scf accuracy    <       1.98553182 Ry

     iteration #  4     ecut=    30.00 Ry     beta= 0.50
     Davidson diagonalization with overlap
     ethr =  5.05E-04,  avg # of iterations =  8.0

     total cpu time spent up to now is        5.7 secs

     total energy              =    -501.38296953 Ry
     estimated scf accuracy    <       0.50208399 Ry

     iteration #  5     ecut=    30.00 Ry     beta= 0.50
     Davidson diagonalization with overlap
     ethr =  1.96E-04,  avg # of iterations =  8.0

     total cpu time spent up to now is        5.8 secs

     total energy              =    -501.41287819 Ry
     estimated scf accuracy    <       0.36394273 Ry

     iteration #  6     ecut=    30.00 Ry     beta= 0.50
     Davidson diagonalization with overlap
     ethr =  1.42E-04,  avg # of iterations =  6.0

     total cpu time spent up to now is        5.9 secs

     total energy              =    -501.45385180 Ry
     estimated scf accuracy    <       0.03565435 Ry

     iteration #  7     ecut=    30.00 Ry     beta= 0.50
     Davidson diagonalization with overlap
     c_bands:  1 eigenvalues not converged
     ethr =  1.39E-05,  avg # of iterations = 20.0

     total cpu time spent up to now is        6.1 secs

     total energy              =    -501.46025938 Ry
     estimated scf accuracy    <       0.05904468 Ry

     iteration #  8     ecut=    30.00 Ry     beta= 0.50
     Davidson diagonalization with overlap
     c_bands:  1 eigenvalues not converged
     ethr =  1.39E-05,  avg # of iterations = 20.0

     total cpu time spent up to now is        6.3 secs

     total energy              =    -501.46137385 Ry
     estimated scf accuracy    <       0.02468031 Ry

     iteration #  9     ecut=    30.00 Ry     beta= 0.50
     Davidson diagonalization with overlap
     c_bands:  1 eigenvalues not converged
     ethr =  9.64E-06,  avg # of iterations = 20.0

     total cpu time spent up to now is        6.5 secs

     total energy              =    -501.46260816 Ry
     estimated scf accuracy    <       0.00679797 Ry

     iteration # 10     ecut=    30.00 Ry     beta= 0.50
     Davidson diagonalization with overlap
     ethr =  2.66E-06,  avg # of iterations = 12.0

     total cpu time spent up to now is        6.6 secs

     total energy              =    -501.46369596 Ry
     estimated scf accuracy    <       0.00571921 Ry

     iteration # 11     ecut=    30.00 Ry     beta= 0.50
     Davidson diagonalization with overlap
     ethr =  2.23E-06,  avg # of iterations =  3.0

     total cpu time spent up to now is        6.7 secs

     total energy              =    -501.46360380 Ry
     estimated scf accuracy    <       0.00346726 Ry

     iteration # 12     ecut=    30.00 Ry     beta= 0.50
     Davidson diagonalization with overlap
     ethr =  1.35E-06,  avg # of iterations = 16.0

     total cpu time spent up to now is        6.9 secs

     total energy              =    -501.46389683 Ry
     estimated scf accuracy    <       0.00069947 Ry

     iteration # 13     ecut=    30.00 Ry     beta= 0.50
     Davidson diagonalization with overlap
     ethr =  2.73E-07,  avg # of iterations = 14.0

     total cpu time spent up to now is        7.0 secs

     total energy              =    -501.46400534 Ry
     estimated scf accuracy    <       0.00064268 Ry

     iteration # 14     ecut=    30.00 Ry     beta= 0.50
     Davidson diagonalization with overlap
     ethr =  2.51E-07,  avg # of iterations =  3.0

     total cpu time spent up to now is        7.1 secs

     total energy              =    -501.46398394 Ry
     estimated scf accuracy    <       0.00029267 Ry

     iteration # 15     ecut=    30.00 Ry     beta= 0.50
     Davidson diagonalization with overlap
     ethr =  1.14E-07,  avg # of iterations = 11.0

     total cpu time spent up to now is        7.3 secs

     total energy              =    -501.46401349 Ry
     estimated scf accuracy    <       0.00029426 Ry

     iteration # 16     ecut=    30.00 Ry     beta= 0.50
     Davidson diagonalization with overlap
     ethr =  1.14E-07,  avg # of iterations =  3.0

     total cpu time spent up to now is        7.4 secs

     total energy              =    -501.46402694 Ry
     estimated scf accuracy    <       0.00007266 Ry

     iteration # 17     ecut=    30.00 Ry     beta= 0.50
     Davidson diagonalization with overlap
     ethr =  2.84E-08,  avg # of iterations = 16.0

     total cpu time spent up to now is        7.5 secs

     total energy              =    -501.46403315 Ry
     estimated scf accuracy    <       0.00003371 Ry

     iteration # 18     ecut=    30.00 Ry     beta= 0.50
     Davidson diagonalization with overlap
     ethr =  1.32E-08,  avg # of iterations = 16.0

     total cpu time spent up to now is        7.7 secs

     total energy              =    -501.46403709 Ry
     estimated scf accuracy    <       0.00001065 Ry

     iteration # 19     ecut=    30.00 Ry     beta= 0.50
     Davidson diagonalization with overlap
     ethr =  4.16E-09,  avg # of iterations = 13.0

     total cpu time spent up to now is        7.9 secs

     total energy              =    -501.46403735 Ry
     estimated scf accuracy    <       0.00000968 Ry

     iteration # 20     ecut=    30.00 Ry     beta= 0.50
     Davidson diagonalization with overlap
     ethr =  3.78E-09,  avg # of iterations =  6.0

     total cpu time spent up to now is        8.0 secs

     total energy              =    -501.46403755 Ry
     estimated scf accuracy    <       0.00000724 Ry

     iteration # 21     ecut=    30.00 Ry     beta= 0.50
     Davidson diagonalization with overlap
     c_bands:  1 eigenvalues not converged
     ethr =  2.83E-09,  avg # of iterations = 20.0

     total cpu time spent up to now is        8.1 secs

     total energy              =    -501.46403797 Ry
     estimated scf accuracy    <       0.00000403 Ry

     iteration # 22     ecut=    30.00 Ry     beta= 0.50
     Davidson diagonalization with overlap
     ethr =  1.57E-09,  avg # of iterations =  9.0

     total cpu time spent up to now is        8.3 secs

     total energy              =    -501.46403793 Ry
     estimated scf accuracy    <       0.00000188 Ry

     iteration # 23     ecut=    30.00 Ry     beta= 0.50
     Davidson diagonalization with overlap
     ethr =  7.35E-10,  avg # of iterations = 13.0

     total cpu time spent up to now is        8.4 secs

     total energy              =    -501.46403820 Ry
     estimated scf accuracy    <       0.00000105 Ry

     iteration # 24     ecut=    30.00 Ry     beta= 0.50
     Davidson diagonalization with overlap
     ethr =  4.12E-10,  avg # of iterations =  2.0

     total cpu time spent up to now is        8.5 secs

     End of self-consistent calculation

          k = 0.0000 0.0000 0.0000 ( 11372 PWs)   bands (ev):

    -5.3977  -4.3897  -4.3223  -4.2562  -4.2170  -4.1427  -3.9480  -3.5250
    -3.3021  -3.2531  -3.1927  -3.0740  -3.0322  -2.9290  -2.8622  -2.8024
    -2.7376  -2.7003  -2.4119  -2.1966  -2.1414  -1.9099  -1.7855  -1.7106
    -1.6367  -1.4420  -1.2702  -1.1264  -0.9794  -0.7171  -0.5623  -0.4581
    -0.2928  -0.2203  -0.0747  -0.0107   0.0631   0.1105   0.2135   0.2347
     0.2555   0.4110   0.4896   0.5565   0.6159   0.6914   0.7371   0.8517
     0.9413   1.0395   1.1207   1.2736   1.3308   1.4593   1.5945   1.6343
     1.7667   1.8097   1.8636   1.9654   2.0734   2.1622   2.3487   2.4218
     2.5131   2.5770   2.6560   2.7155   2.7942   2.8247   2.9456   3.0157
     3.0915   3.1800   3.2283   3.3250   3.3776   3.4289   3.5488   3.7027
     3.7632   4.0021   4.2093   4.3334   4.3726   4.4990   4.5420   4.5605
     4.7007   4.7399   4.7986   4.8751   4.8982   5.0001   5.1432   5.1758
     5.2099   5.3091   5.3542   5.3776   5.4500   5.4854   5.5794   5.6093
     5.6613   5.7382   5.7629   5.8375   5.8599   5.9382   6.0029   6.0850
     6.1237   6.2160   6.2456   6.2793   6.3343   6.4293   6.4493   6.5155
     6.6268   6.6602   6.8103   6.8217   6.8666   6.9043   6.9642   7.0463

     highest occupied level (ev):     7.0463

!    total energy              =    -501.46403746 Ry
     estimated scf accuracy    <       0.00000084 Ry

     The total energy is the sum of the following terms:
     one-electron contribution =     184.13574154 Ry
     hartree contribution      =      25.56950060 Ry
     xc contribution           =    -150.77891560 Ry
     ewald contribution        =    -560.39036401 Ry

     convergence has been achieved in  24 iterations

     Forces acting on atoms (cartesian axes, Ry/au):

     atom    1 type  1   force =     0.00622054   -0.00908748   -0.00619966
     atom    2 type  1   force =    -0.01592870    0.03022571    0.00241029
     atom    3 type  1   force =     0.00241365    0.00552884    0.00981320
     atom    4 type  1   force =    -0.01880137    0.01066829   -0.03744992
     atom    5 type  1   force =     0.01608889   -0.00022269   -0.00504340
     atom    6 type  1   force =     0.02156408    0.02353196   -0.00523017
     atom    7 type  1   force =     0.05823555    0.01450977   -0.07126533
     atom    8 type  1   force =    -0.02164066    0.02588012    0.01818544
     atom    9 type  1   force =     0.00310710    0.00346230   -0.02979583
     atom   10 type  1   force =    -0.03215140    0.01002777   -0.01184760
     atom   11 type  1   force =     0.01565800    0.01593640    0.01501112
     atom   12 type  1   force =     0.00928198   -0.06012604    0.00368941
     atom   13 type  1   force =    -0.03856557    0.02007349    0.02695756
     atom   14 type  1   force =     0.02027430    0.00041524   -0.01220757
     atom   15 type  1   force =     0.00531761   -0.01030652   -0.02418433
     atom   16 type  1   force =     0.03230226    0.00855674    0.00291091
     atom   17 type  1   force =    -0.00672664    0.01905905    0.00146983
     atom   18 type  1   force =     0.02173302    0.00798223   -0.04283804
     atom   19 type  1   force =     0.01404528   -0.01404853   -0.00224291
     atom   20 type  1   force =    -0.00091442   -0.01289445    0.01911783
     atom   21 type  1   force =     0.00988031   -0.00350804    0.00602965
     atom   22 type  1   force =    -0.00351134   -0.00250769    0.00522825
     atom   23 type  1   force =    -0.00092766   -0.00152789    0.01148227
     atom   24 type  1   force =     0.00566626    0.00458049   -0.02906732
     atom   25 type  1   force =    -0.00610701   -0.02600522    0.01438797
     atom   26 type  1   force =    -0.00589939    0.01077187    0.02495722
     atom   27 type  1   force =     0.02680822    0.02755688    0.02306887
     atom   28 type  1   force =     0.03706831    0.01208291   -0.05154554
     atom   29 type  1   force =     0.02454273   -0.01034002    0.04823121
     atom   30 type  1   force =     0.01519958   -0.01110602    0.03059556
     atom   31 type  1   force =    -0.03264264    0.00931978    0.00838712
     atom   32 type  1   force =    -0.02543096   -0.03210560    0.06810663
     atom   33 type  1   force =     0.00552312    0.00398370   -0.00784958
     atom   34 type  1   force =     0.02290430    0.02818806    0.01428547
     atom   35 type  1   force =     0.01466388   -0.00480540   -0.01153653
     atom   36 type  1   force =     0.03530263   -0.01757460    0.02283930
     atom   37 type  1   force =    -0.03639297    0.01361109   -0.00717490
     atom   38 type  1   force =    -0.04492672    0.01569354    0.02208079
     atom   39 type  1   force =    -0.00738985   -0.00992547   -0.00562500
     atom   40 type  1   force =    -0.02872267   -0.04881539    0.00759939
     atom   41 type  1   force =     0.02346535    0.00122941   -0.04013502
     atom   42 type  1   force =     0.01924236   -0.02496421   -0.01453372
     atom   43 type  1   force =    -0.07815364    0.01376683    0.05132779
     atom   44 type  1   force =    -0.03080305    0.02657756    0.02036258
     atom   45 type  1   force =     0.00481465   -0.01229235    0.02569733
     atom   46 type  1   force =     0.01529183    0.01125605   -0.02554791
     atom   47 type  1   force =     0.00513143   -0.02905544   -0.00089396
     atom   48 type  1   force =     0.02329991    0.01935692    0.00903065
     atom   49 type  1   force =     0.02337023   -0.02786063    0.01791341
     atom   50 type  1   force =    -0.00385900   -0.00946048    0.00053563
     atom   51 type  1   force =    -0.04669642   -0.00285056    0.02875625
     atom   52 type  1   force =    -0.02191863    0.00523941   -0.01461958
     atom   53 type  1   force =    -0.00175387    0.00918303    0.00197853
     atom   54 type  1   force =    -0.00346745    0.00631305   -0.01209993
     atom   55 type  1   force =    -0.02227555   -0.02082799    0.05905870
     atom   56 type  1   force =    -0.01933036   -0.00221987    0.01822215
     atom   57 type  1   force =    -0.01333774    0.03164003   -0.02908192
     atom   58 type  1   force =    -0.02979916    0.00295625    0.00304444
     atom   59 type  1   force =     0.00767090   -0.01928458   -0.01375971
     atom   60 type  1   force =     0.02651267   -0.00714062   -0.04885303
     atom   61 type  1   force =     0.00270549    0.01242714    0.03656321
     atom   62 type  1   force =     0.02390410    0.00444752   -0.07420113
     atom   63 type  1   force =    -0.01192776   -0.03075907   -0.00679299
     atom   64 type  1   force =     0.01079207   -0.00441657   -0.03771340

     Total force =     0.330091     Total SCF correction =     0.001797


     Computing stress (Cartesian axis) and pressure

          total   stress  (Ry/bohr**3)                   (kbar)     P=      -33.78
  -0.00023265   0.00004763  -0.00006193          -34.22        7.01       -9.11
   0.00004763  -0.00025388  -0.00007714            7.01      -37.35      -11.35
  -0.00006193  -0.00007714  -0.00020239           -9.11      -11.35      -29.77

 
     init_run     :      1.34s CPU      4.91s WALL (       1 calls)
     electrons    :      3.32s CPU      3.51s WALL (       1 calls)
     forces       :      0.03s CPU      0.04s WALL (       1 calls)
     stress       :      0.14s CPU      0.14s WALL (       1 calls)

     Called by init_run:
     wfcinit      :      0.79s CPU      4.19s WALL (       1 calls)
                                        4.19s GPU  (       1 calls)
     potinit      :      0.06s CPU      0.14s WALL (       1 calls)
     hinit0       :      0.47s CPU      0.50s WALL (       1 calls)

     Called by electrons:
     c_bands      :      2.28s CPU      2.37s WALL (      25 calls)
     sum_band     :      0.49s CPU      0.55s WALL (      25 calls)
     v_of_rho     :      0.25s CPU      0.35s WALL (      25 calls)
     mix_rho      :      0.26s CPU      0.27s WALL (      25 calls)

     Called by c_bands:
     init_us_2    :      0.09s CPU      0.09s WALL (      51 calls)
     init_us_2:gp :      0.09s CPU      0.09s WALL (      51 calls)
     regterg      :      2.06s CPU      2.14s WALL (      25 calls)

     Called by *egterg:
     rdiaghg      :      1.07s CPU      1.80s WALL (     293 calls)
                                        1.75s GPU  (     293 calls)
     h_psi        :      1.44s CPU      4.18s WALL (     295 calls)
                                        4.17s GPU  (     295 calls)
     g_psi        :      0.00s CPU      0.01s WALL (     269 calls)
                                        0.00s GPU  (     269 calls)

     Called by h_psi:
     h_psi:calbec :      0.79s CPU      3.44s WALL (     295 calls)
                                        3.44s GPU  (     295 calls)
     vloc_psi     :      0.48s CPU      0.56s WALL (     295 calls)
                                        0.55s GPU  (     295 calls)
     add_vuspsi   :      0.13s CPU      0.16s WALL (     295 calls)
                                        0.16s GPU  (     295 calls)

     General routines
     calbec       :      0.79s CPU      3.44s WALL (     300 calls)
     fft          :      0.70s CPU      0.82s WALL (     207 calls)
                                        0.14s GPU  (     131 calls)
     ffts         :      0.07s CPU      0.08s WALL (      25 calls)
     fftw         :      0.56s CPU      0.73s WALL (    2566 calls)
                                        0.63s GPU  (    2566 calls)
 
     Parallel routines
 
     PWSCF        :      4.88s CPU      8.68s WALL

 
   This run was terminated on:  15:45:32   9May2023            

=------------------------------------------------------------------------------=
   JOB DONE.
=------------------------------------------------------------------------------=
