An instance of this daemon is already running

     Program PWSCF v.7.1 starts on  9May2023 at 15:44:53 

     This program is part of the open-source Quantum ESPRESSO suite
     for quantum simulation of materials; please cite
         "P. Giannozzi et al., J. Phys.:Condens. Matter 21 395502 (2009);
         "P. Giannozzi et al., J. Phys.:Condens. Matter 29 465901 (2017);
         "P. Giannozzi et al., J. Chem. Phys. 152 154105 (2020);
          URL http://www.quantum-espresso.org", 
     in publications or presentations arising from this work. More details at
     http://www.quantum-espresso.org/quote

     Parallel version (MPI & OpenMP), running on       4 processor cores
     Number of MPI processes:                 4
     Threads/MPI process:                     1

     MPI processes distributed on     1 nodes
     751746 MiB available memory on the printing compute node when the environment starts
 
     Reading input from pw-si-85.in
Warning: card &CELL ignored
Warning: card / ignored

     Current dimensions of program PWSCF are:
     Max number of different atomic species (ntypx) = 10
     Max number of k-points (npk) =  40000
     Max angular momentum in pseudopotentials (lmaxx) =  4

     IMPORTANT: XC functional enforced from input :
     Exchange-correlation= PBE
                           (   1   4   3   4   0   0   0)
     Any further DFT definition will be discarded
     Please, verify this is what you really want


     gamma-point specific algorithms are used
 
     K-points division:     npool     =       2
     R & G space division:  proc/nbgrp/npool/nimage =       2
     Subspace diagonalization in iterative solution of the eigenvalue problem:
     a serial algorithm will be used

     Message from routine divide_et_impera:
     suboptimal parallelization: some nodes have no k-points
 
     Parallelization info
     --------------------
     sticks:   dense  smooth     PW     G-vecs:    dense   smooth      PW
     Min        1945    1945    516                91383    91383   12416
     Max        1948    1948    517                91388    91388   12421
     Sum        3893    3893   1033               182771   182771   24837
 
     Using Slab Decomposition
 


     bravais-lattice index     =            0
     lattice parameter (alat)  =      20.1817  a.u.
     unit-cell volume          =    8220.0674 (a.u.)^3
     number of atoms/cell      =           64
     number of atomic types    =            1
     number of electrons       =       256.00
     number of Kohn-Sham states=          128
     kinetic-energy cutoff     =      30.0000  Ry
     charge density cutoff     =     120.0000  Ry
     scf convergence threshold =      1.0E-06
     mixing beta               =       0.5000
     number of iterations used =            8  plain     mixing
     Exchange-correlation= PBE
                           (   1   4   3   4   0   0   0)

     GPU acceleration is ACTIVE.
     GPU-aware MPI enabled

     Message from routine print_cuda_info:
     High GPU oversubscription detected. Are you sure this is what you want?

     celldm(1)=  20.181733  celldm(2)=   0.000000  celldm(3)=   0.000000
     celldm(4)=   0.000000  celldm(5)=   0.000000  celldm(6)=   0.000000

     crystal axes: (cart. coord. in units of alat)
               a(1) = (   1.000000   0.000000   0.000000 )  
               a(2) = (   0.000000   1.000000   0.000000 )  
               a(3) = (   0.000000   0.000000   1.000000 )  

     reciprocal axes: (cart. coord. in units 2 pi/alat)
               b(1) = (  1.000000  0.000000  0.000000 )  
               b(2) = (  0.000000  1.000000  0.000000 )  
               b(3) = (  0.000000  0.000000  1.000000 )  


     PseudoPot. # 1 for Si read from file:
     /home/ppiaggi/pseudos/Si_ONCV_PBE_sr.upf
     MD5 check sum: 8553c464762ac42b85b1eed164b4d029
     Pseudo is Norm-conserving, Zval =  4.0
     Generated using ONCVPSP code by D. R. Hamann
     Using radial grid of 1510 points,  4 beta functions with: 
                l(1) =   0
                l(2) =   0
                l(3) =   1
                l(4) =   1

     atomic species   valence    mass     pseudopotential
        Si             4.00    28.08500     Si( 1.00)

     No symmetry found



   Cartesian axes

     site n.     atom                  positions (alat units)
         1           Si  tau(   1) = (   0.0731628   0.6069030   0.5209600  )
         2           Si  tau(   2) = (   0.9958620   0.2433430   0.3337260  )
         3           Si  tau(   3) = (   0.7605980   0.3394650   0.4445230  )
         4           Si  tau(   4) = (   0.0808863   0.8266300   0.2466890  )
         5           Si  tau(   5) = (   0.3282960   0.3044290   0.9907260  )
         6           Si  tau(   6) = (   0.3946600   0.8749870   0.6441490  )
         7           Si  tau(   7) = (   0.8630670   0.5027780   0.3132630  )
         8           Si  tau(   8) = (   0.8445250   0.1258520   0.6067240  )
         9           Si  tau(   9) = (   0.3570620   0.7183980   0.0166755  )
        10           Si  tau(  10) = (   0.3500800   0.0655877   0.2430960  )
        11           Si  tau(  11) = (   0.4854710   0.6995390   0.7325430  )
        12           Si  tau(  12) = (   0.1934340   0.9675500   0.4123980  )
        13           Si  tau(  13) = (   0.3860790   0.2783070   0.2304430  )
        14           Si  tau(  14) = (   0.8490050   0.7757680   0.1296880  )
        15           Si  tau(  15) = (   0.6345380   0.7734490   0.1488570  )
        16           Si  tau(  16) = (   0.0008684   0.3117200   0.5769250  )
        17           Si  tau(  17) = (   0.2200710   0.4493990   0.5560550  )
        18           Si  tau(  18) = (   0.2041840   0.0785381   0.0194671  )
        19           Si  tau(  19) = (   0.8541490   0.9400000   0.9883690  )
        20           Si  tau(  20) = (   0.2103000   0.3072340   0.3797520  )
        21           Si  tau(  21) = (   0.0866172   0.6336870   0.3056570  )
        22           Si  tau(  22) = (   0.8401550   0.7121040   0.7672700  )
        23           Si  tau(  23) = (   0.5478970   0.9773640   0.1579340  )
        24           Si  tau(  24) = (   0.8264780   0.9665270   0.3149390  )
        25           Si  tau(  25) = (   0.7202630   0.3650110   0.8374240  )
        26           Si  tau(  26) = (   0.5812840   0.7254010   0.9463320  )
        27           Si  tau(  27) = (   0.0964630   0.8635480   0.0226595  )
        28           Si  tau(  28) = (   0.4656520   0.5239550   0.5561160  )
        29           Si  tau(  29) = (   0.9120140   0.5441700   0.6551020  )
        30           Si  tau(  30) = (   0.0657574   0.4599300   0.8059120  )
        31           Si  tau(  31) = (   0.6849280   0.9022150   0.8555880  )
        32           Si  tau(  32) = (   0.4834350   0.2971920   0.5974900  )
        33           Si  tau(  33) = (   0.7288490   0.5483080   0.9694820  )
        34           Si  tau(  34) = (   0.1855550   0.8015860   0.5723980  )
        35           Si  tau(  35) = (   0.9573560   0.0573136   0.7913790  )
        36           Si  tau(  36) = (   0.3059920   0.5645060   0.7947420  )
        37           Si  tau(  37) = (   0.0294776   0.4402190   0.1546660  )
        38           Si  tau(  38) = (   0.5217670   0.6057070   0.3284610  )
        39           Si  tau(  39) = (   0.1952740   0.0838362   0.7578540  )
        40           Si  tau(  40) = (   0.7028470   0.4770180   0.6051050  )
        41           Si  tau(  41) = (   0.8206260   0.1147680   0.1443260  )
        42           Si  tau(  42) = (   0.7546270   0.7238110   0.3928580  )
        43           Si  tau(  43) = (   0.6662640   0.5141650   0.1796800  )
        44           Si  tau(  44) = (   0.6193290   0.1641950   0.7226580  )
        45           Si  tau(  45) = (   0.2508120   0.3125330   0.7515520  )
        46           Si  tau(  46) = (   0.3411120   0.8128230   0.2200560  )
        47           Si  tau(  47) = (   0.0123555   0.8379990   0.7176370  )
        48           Si  tau(  48) = (   0.4774620   0.8116170   0.4230660  )
        49           Si  tau(  49) = (   0.2687300   0.5116160   0.0951478  )
        50           Si  tau(  50) = (   0.6487530   0.2727440   0.1825580  )
        51           Si  tau(  51) = (   0.3458390   0.9142880   0.8790810  )
        52           Si  tau(  52) = (   0.0177731   0.2274880   0.0536020  )
        53           Si  tau(  53) = (   0.9679200   0.0502559   0.4277210  )
        54           Si  tau(  54) = (   0.6260380   0.9977390   0.4092050  )
        55           Si  tau(  55) = (   0.9359420   0.2800640   0.8639220  )
        56           Si  tau(  56) = (   0.2967070   0.1381980   0.5414050  )
        57           Si  tau(  57) = (   0.3087370   0.5196770   0.3058650  )
        58           Si  tau(  58) = (   0.5599260   0.2298980   0.3918290  )
        59           Si  tau(  59) = (   0.1432580   0.7190320   0.8400100  )
        60           Si  tau(  60) = (   0.9497420   0.6220620   0.9810190  )
        61           Si  tau(  61) = (   0.6265970   0.9455290   0.6320450  )
        62           Si  tau(  62) = (   0.5322710   0.0294218   0.9298560  )
        63           Si  tau(  63) = (   0.6950110   0.7137180   0.5981850  )
        64           Si  tau(  64) = (   0.5420360   0.2558030   0.0030735  )

     number of k points=     1
                       cart. coord. in units 2pi/alat
        k(    1) = (   0.0000000   0.0000000   0.0000000), wk =   2.0000000

     Dense  grid:    91386 G-vectors     FFT dimensions: (  72,  72,  72)

     Estimated max dynamical RAM per process >     134.30 MB

     Estimated total dynamical RAM >     514.87 MB

     Initial potential from superposition of free atoms

     starting charge     255.9608, renormalised to     256.0000
     Starting wfcs are  256 randomized atomic wfcs

     total cpu time spent up to now is        5.1 secs

     Self-consistent Calculation

     iteration #  1     ecut=    30.00 Ry     beta= 0.50
     Davidson diagonalization with overlap
     ethr =  1.00E-02,  avg # of iterations =  2.0

     Threshold (ethr) on eigenvalues was too large:
     Diagonalizing with lowered threshold

     Davidson diagonalization with overlap
     ethr =  5.58E-04,  avg # of iterations =  4.0

     total cpu time spent up to now is        5.3 secs

     total energy              =    -501.01164706 Ry
     estimated scf accuracy    <       1.76266923 Ry

     iteration #  2     ecut=    30.00 Ry     beta= 0.50
     Davidson diagonalization with overlap
     ethr =  6.89E-04,  avg # of iterations = 13.0

     total cpu time spent up to now is        5.5 secs

     total energy              =    -499.83261192 Ry
     estimated scf accuracy    <      19.28849070 Ry

     iteration #  3     ecut=    30.00 Ry     beta= 0.50
     Davidson diagonalization with overlap
     ethr =  6.89E-04,  avg # of iterations =  9.0

     total cpu time spent up to now is        5.6 secs

     total energy              =    -501.37225728 Ry
     estimated scf accuracy    <       1.34724635 Ry

     iteration #  4     ecut=    30.00 Ry     beta= 0.50
     Davidson diagonalization with overlap
     ethr =  5.26E-04,  avg # of iterations =  6.0

     total cpu time spent up to now is        5.7 secs

     total energy              =    -501.51398330 Ry
     estimated scf accuracy    <       0.41974481 Ry

     iteration #  5     ecut=    30.00 Ry     beta= 0.50
     Davidson diagonalization with overlap
     ethr =  1.64E-04,  avg # of iterations =  8.0

     total cpu time spent up to now is        5.8 secs

     total energy              =    -501.53389513 Ry
     estimated scf accuracy    <       0.21517425 Ry

     iteration #  6     ecut=    30.00 Ry     beta= 0.50
     Davidson diagonalization with overlap
     ethr =  8.41E-05,  avg # of iterations = 10.0

     total cpu time spent up to now is        6.0 secs

     total energy              =    -501.55914236 Ry
     estimated scf accuracy    <       0.11228419 Ry

     iteration #  7     ecut=    30.00 Ry     beta= 0.50
     Davidson diagonalization with overlap
     c_bands:  1 eigenvalues not converged
     ethr =  4.39E-05,  avg # of iterations = 20.0

     total cpu time spent up to now is        6.1 secs

     total energy              =    -501.57360118 Ry
     estimated scf accuracy    <       0.06465741 Ry

     iteration #  8     ecut=    30.00 Ry     beta= 0.50
     Davidson diagonalization with overlap
     ethr =  2.53E-05,  avg # of iterations = 12.0

     total cpu time spent up to now is        6.3 secs

     total energy              =    -501.57482533 Ry
     estimated scf accuracy    <       0.02477171 Ry

     iteration #  9     ecut=    30.00 Ry     beta= 0.50
     Davidson diagonalization with overlap
     ethr =  9.68E-06,  avg # of iterations =  2.0

     total cpu time spent up to now is        6.4 secs

     total energy              =    -501.57423272 Ry
     estimated scf accuracy    <       0.01370008 Ry

     iteration # 10     ecut=    30.00 Ry     beta= 0.50
     Davidson diagonalization with overlap
     c_bands:  1 eigenvalues not converged
     ethr =  5.35E-06,  avg # of iterations = 20.0

     total cpu time spent up to now is        6.5 secs

     total energy              =    -501.57468403 Ry
     estimated scf accuracy    <       0.01555559 Ry

     iteration # 11     ecut=    30.00 Ry     beta= 0.50
     Davidson diagonalization with overlap
     ethr =  5.35E-06,  avg # of iterations =  3.0

     total cpu time spent up to now is        6.6 secs

     total energy              =    -501.57518085 Ry
     estimated scf accuracy    <       0.00639656 Ry

     iteration # 12     ecut=    30.00 Ry     beta= 0.50
     Davidson diagonalization with overlap
     ethr =  2.50E-06,  avg # of iterations =  2.0

     total cpu time spent up to now is        6.7 secs

     total energy              =    -501.57452851 Ry
     estimated scf accuracy    <       0.00407399 Ry

     iteration # 13     ecut=    30.00 Ry     beta= 0.50
     Davidson diagonalization with overlap
     c_bands:  1 eigenvalues not converged
     ethr =  1.59E-06,  avg # of iterations = 20.0

     total cpu time spent up to now is        6.9 secs

     total energy              =    -501.57635104 Ry
     estimated scf accuracy    <       0.01748403 Ry

     iteration # 14     ecut=    30.00 Ry     beta= 0.50
     Davidson diagonalization with overlap
     ethr =  1.59E-06,  avg # of iterations = 19.0

     total cpu time spent up to now is        7.1 secs

     total energy              =    -501.57641134 Ry
     estimated scf accuracy    <       0.01492408 Ry

     iteration # 15     ecut=    30.00 Ry     beta= 0.50
     Davidson diagonalization with overlap
     ethr =  1.59E-06,  avg # of iterations =  2.0

     total cpu time spent up to now is        7.2 secs

     total energy              =    -501.57563135 Ry
     estimated scf accuracy    <       0.01279158 Ry

     iteration # 16     ecut=    30.00 Ry     beta= 0.50
     Davidson diagonalization with overlap
     ethr =  1.59E-06,  avg # of iterations =  2.0

     total cpu time spent up to now is        7.3 secs

     total energy              =    -501.57552153 Ry
     estimated scf accuracy    <       0.00894575 Ry

     iteration # 17     ecut=    30.00 Ry     beta= 0.50
     Davidson diagonalization with overlap
     ethr =  1.59E-06,  avg # of iterations =  1.0

     total cpu time spent up to now is        7.3 secs

     total energy              =    -501.57488309 Ry
     estimated scf accuracy    <       0.00765627 Ry

     iteration # 18     ecut=    30.00 Ry     beta= 0.50
     Davidson diagonalization with overlap
     c_bands:  1 eigenvalues not converged
     ethr =  1.59E-06,  avg # of iterations = 20.0

     total cpu time spent up to now is        7.5 secs

     total energy              =    -501.57586436 Ry
     estimated scf accuracy    <       0.01084143 Ry

     iteration # 19     ecut=    30.00 Ry     beta= 0.50
     Davidson diagonalization with overlap
     ethr =  1.59E-06,  avg # of iterations = 18.0

     total cpu time spent up to now is        7.7 secs

     total energy              =    -501.57586348 Ry
     estimated scf accuracy    <       0.00761674 Ry

     iteration # 20     ecut=    30.00 Ry     beta= 0.50
     Davidson diagonalization with overlap
     ethr =  1.59E-06,  avg # of iterations =  2.0

     total cpu time spent up to now is        7.7 secs

     total energy              =    -501.57597472 Ry
     estimated scf accuracy    <       0.00543201 Ry

     iteration # 21     ecut=    30.00 Ry     beta= 0.50
     Davidson diagonalization with overlap
     ethr =  1.59E-06,  avg # of iterations =  1.0

     total cpu time spent up to now is        7.8 secs

     total energy              =    -501.57593283 Ry
     estimated scf accuracy    <       0.00513055 Ry

     iteration # 22     ecut=    30.00 Ry     beta= 0.50
     Davidson diagonalization with overlap
     ethr =  1.59E-06,  avg # of iterations =  1.0

     total cpu time spent up to now is        7.9 secs

     total energy              =    -501.57568697 Ry
     estimated scf accuracy    <       0.00502936 Ry

     iteration # 23     ecut=    30.00 Ry     beta= 0.50
     Davidson diagonalization with overlap
     ethr =  1.59E-06,  avg # of iterations =  1.0

     total cpu time spent up to now is        8.0 secs

     total energy              =    -501.57558895 Ry
     estimated scf accuracy    <       0.00371373 Ry

     iteration # 24     ecut=    30.00 Ry     beta= 0.50
     Davidson diagonalization with overlap
     ethr =  1.45E-06,  avg # of iterations =  2.0

     total cpu time spent up to now is        8.1 secs

     total energy              =    -501.57558057 Ry
     estimated scf accuracy    <       0.00278883 Ry

     iteration # 25     ecut=    30.00 Ry     beta= 0.50
     Davidson diagonalization with overlap
     ethr =  1.09E-06,  avg # of iterations =  1.0

     total cpu time spent up to now is        8.2 secs

     total energy              =    -501.57562305 Ry
     estimated scf accuracy    <       0.00245943 Ry

     iteration # 26     ecut=    30.00 Ry     beta= 0.50
     Davidson diagonalization with overlap
     ethr =  9.61E-07,  avg # of iterations =  2.0

     total cpu time spent up to now is        8.2 secs

     total energy              =    -501.57493994 Ry
     estimated scf accuracy    <       0.00230863 Ry

     iteration # 27     ecut=    30.00 Ry     beta= 0.50
     Davidson diagonalization with overlap
     c_bands:  2 eigenvalues not converged
     ethr =  9.02E-07,  avg # of iterations = 20.0

     total cpu time spent up to now is        8.4 secs

     total energy              =    -501.57682975 Ry
     estimated scf accuracy    <       0.03930281 Ry

     iteration # 28     ecut=    30.00 Ry     beta= 0.50
     Davidson diagonalization with overlap
     ethr =  9.02E-07,  avg # of iterations = 18.0

     total cpu time spent up to now is        8.6 secs

     total energy              =    -501.57674363 Ry
     estimated scf accuracy    <       0.02186371 Ry

     iteration # 29     ecut=    30.00 Ry     beta= 0.50
     Davidson diagonalization with overlap
     ethr =  9.02E-07,  avg # of iterations =  2.0

     total cpu time spent up to now is        8.7 secs

     total energy              =    -501.57608200 Ry
     estimated scf accuracy    <       0.01867725 Ry

     iteration # 30     ecut=    30.00 Ry     beta= 0.50
     Davidson diagonalization with overlap
     ethr =  9.02E-07,  avg # of iterations =  1.0

     total cpu time spent up to now is        8.8 secs

     total energy              =    -501.57676658 Ry
     estimated scf accuracy    <       0.01521464 Ry

     iteration # 31     ecut=    30.00 Ry     beta= 0.50
     Davidson diagonalization with overlap
     ethr =  9.02E-07,  avg # of iterations =  1.0

     total cpu time spent up to now is        8.9 secs

     total energy              =    -501.57691591 Ry
     estimated scf accuracy    <       0.01685073 Ry

     iteration # 32     ecut=    30.00 Ry     beta= 0.50
     Davidson diagonalization with overlap
     ethr =  9.02E-07,  avg # of iterations =  1.0

     total cpu time spent up to now is        8.9 secs

     total energy              =    -501.57685711 Ry
     estimated scf accuracy    <       0.01746979 Ry

     iteration # 33     ecut=    30.00 Ry     beta= 0.50
     Davidson diagonalization with overlap
     ethr =  9.02E-07,  avg # of iterations =  1.0

     total cpu time spent up to now is        9.0 secs

     total energy              =    -501.57670860 Ry
     estimated scf accuracy    <       0.01735662 Ry

     iteration # 34     ecut=    30.00 Ry     beta= 0.50
     Davidson diagonalization with overlap
     ethr =  9.02E-07,  avg # of iterations =  1.0

     total cpu time spent up to now is        9.1 secs

     total energy              =    -501.57672267 Ry
     estimated scf accuracy    <       0.01676085 Ry

     iteration # 35     ecut=    30.00 Ry     beta= 0.50
     Davidson diagonalization with overlap
     ethr =  9.02E-07,  avg # of iterations =  1.0

     total cpu time spent up to now is        9.2 secs

     total energy              =    -501.57081661 Ry
     estimated scf accuracy    <       0.01676534 Ry

     iteration # 36     ecut=    30.00 Ry     beta= 0.50
     Davidson diagonalization with overlap
     c_bands:  1 eigenvalues not converged
     ethr =  9.02E-07,  avg # of iterations = 20.0

     total cpu time spent up to now is        9.4 secs

     total energy              =    -501.57809098 Ry
     estimated scf accuracy    <       0.10803937 Ry

     iteration # 37     ecut=    30.00 Ry     beta= 0.50
     Davidson diagonalization with overlap
     ethr =  9.02E-07,  avg # of iterations = 12.0

     total cpu time spent up to now is        9.5 secs

     total energy              =    -501.57812813 Ry
     estimated scf accuracy    <       0.04405447 Ry

     iteration # 38     ecut=    30.00 Ry     beta= 0.50
     Davidson diagonalization with overlap
     ethr =  9.02E-07,  avg # of iterations =  3.0

     total cpu time spent up to now is        9.6 secs

     total energy              =    -501.57789152 Ry
     estimated scf accuracy    <       0.03185474 Ry

     iteration # 39     ecut=    30.00 Ry     beta= 0.50
     Davidson diagonalization with overlap
     ethr =  9.02E-07,  avg # of iterations =  2.0

     total cpu time spent up to now is        9.7 secs

     total energy              =    -501.57350865 Ry
     estimated scf accuracy    <       0.02877987 Ry

     iteration # 40     ecut=    30.00 Ry     beta= 0.50
     Davidson diagonalization with overlap
     ethr =  9.02E-07,  avg # of iterations = 20.0

     total cpu time spent up to now is        9.9 secs

     total energy              =    -501.57739465 Ry
     estimated scf accuracy    <       0.01148448 Ry

     iteration # 41     ecut=    30.00 Ry     beta= 0.50
     Davidson diagonalization with overlap
     ethr =  9.02E-07,  avg # of iterations =  2.0

     total cpu time spent up to now is       10.0 secs

     total energy              =    -501.57633558 Ry
     estimated scf accuracy    <       0.01397577 Ry

     iteration # 42     ecut=    30.00 Ry     beta= 0.50
     Davidson diagonalization with overlap
     ethr =  9.02E-07,  avg # of iterations =  2.0

     total cpu time spent up to now is       10.1 secs

     total energy              =    -501.57581788 Ry
     estimated scf accuracy    <       0.01000595 Ry

     iteration # 43     ecut=    30.00 Ry     beta= 0.50
     Davidson diagonalization with overlap
     c_bands:  1 eigenvalues not converged
     ethr =  9.02E-07,  avg # of iterations = 20.0

     total cpu time spent up to now is       10.3 secs

     total energy              =    -501.57593690 Ry
     estimated scf accuracy    <       0.00222949 Ry

     iteration # 44     ecut=    30.00 Ry     beta= 0.50
     Davidson diagonalization with overlap
     c_bands:  1 eigenvalues not converged
     ethr =  8.71E-07,  avg # of iterations = 20.0

     total cpu time spent up to now is       10.4 secs

     total energy              =    -501.57606259 Ry
     estimated scf accuracy    <       0.00145374 Ry

     iteration # 45     ecut=    30.00 Ry     beta= 0.50
     Davidson diagonalization with overlap
     ethr =  5.68E-07,  avg # of iterations = 19.0

     total cpu time spent up to now is       10.6 secs

     total energy              =    -501.57618336 Ry
     estimated scf accuracy    <       0.00144889 Ry

     iteration # 46     ecut=    30.00 Ry     beta= 0.50
     Davidson diagonalization with overlap
     ethr =  5.66E-07,  avg # of iterations =  3.0

     total cpu time spent up to now is       10.7 secs

     total energy              =    -501.57637409 Ry
     estimated scf accuracy    <       0.00170125 Ry

     iteration # 47     ecut=    30.00 Ry     beta= 0.50
     Davidson diagonalization with overlap
     c_bands:  1 eigenvalues not converged
     ethr =  5.66E-07,  avg # of iterations = 20.0

     total cpu time spent up to now is       10.9 secs

     total energy              =    -501.57649491 Ry
     estimated scf accuracy    <       0.01287888 Ry

     iteration # 48     ecut=    30.00 Ry     beta= 0.50
     Davidson diagonalization with overlap
     ethr =  5.66E-07,  avg # of iterations = 15.0

     total cpu time spent up to now is       11.0 secs

     total energy              =    -501.57346085 Ry
     estimated scf accuracy    <       0.01097015 Ry

     iteration # 49     ecut=    30.00 Ry     beta= 0.50
     Davidson diagonalization with overlap
     c_bands:  1 eigenvalues not converged
     ethr =  5.66E-07,  avg # of iterations = 20.0

     total cpu time spent up to now is       11.2 secs

     total energy              =    -501.57484023 Ry
     estimated scf accuracy    <       0.07475712 Ry

     iteration # 50     ecut=    30.00 Ry     beta= 0.50
     Davidson diagonalization with overlap
     c_bands:  1 eigenvalues not converged
     ethr =  5.66E-07,  avg # of iterations = 20.0

     total cpu time spent up to now is       11.4 secs

     total energy              =    -501.57587150 Ry
     estimated scf accuracy    <       0.01725778 Ry

     iteration # 51     ecut=    30.00 Ry     beta= 0.50
     Davidson diagonalization with overlap
     c_bands:  1 eigenvalues not converged
     ethr =  5.66E-07,  avg # of iterations = 20.0

     total cpu time spent up to now is       11.6 secs

     total energy              =    -501.57589490 Ry
     estimated scf accuracy    <       0.00758341 Ry

     iteration # 52     ecut=    30.00 Ry     beta= 0.50
     Davidson diagonalization with overlap
     c_bands:  1 eigenvalues not converged
     ethr =  5.66E-07,  avg # of iterations = 20.0

     total cpu time spent up to now is       11.7 secs

     total energy              =    -501.57594586 Ry
     estimated scf accuracy    <       0.00473317 Ry

     iteration # 53     ecut=    30.00 Ry     beta= 0.50
     Davidson diagonalization with overlap
     c_bands:  1 eigenvalues not converged
     ethr =  5.66E-07,  avg # of iterations = 20.0

     total cpu time spent up to now is       11.9 secs

     total energy              =    -501.57601183 Ry
     estimated scf accuracy    <       0.00240326 Ry

     iteration # 54     ecut=    30.00 Ry     beta= 0.50
     Davidson diagonalization with overlap
     c_bands:  1 eigenvalues not converged
     ethr =  5.66E-07,  avg # of iterations = 20.0

     total cpu time spent up to now is       12.1 secs

     total energy              =    -501.57607942 Ry
     estimated scf accuracy    <       0.00152835 Ry

     iteration # 55     ecut=    30.00 Ry     beta= 0.50
     Davidson diagonalization with overlap
     ethr =  5.66E-07,  avg # of iterations =  2.0

     total cpu time spent up to now is       12.2 secs

     total energy              =    -501.57606994 Ry
     estimated scf accuracy    <       0.00140184 Ry

     iteration # 56     ecut=    30.00 Ry     beta= 0.50
     Davidson diagonalization with overlap
     ethr =  5.48E-07,  avg # of iterations =  3.0

     total cpu time spent up to now is       12.3 secs

     total energy              =    -501.57610490 Ry
     estimated scf accuracy    <       0.00131292 Ry

     iteration # 57     ecut=    30.00 Ry     beta= 0.50
     Davidson diagonalization with overlap
     ethr =  5.13E-07,  avg # of iterations =  1.0

     total cpu time spent up to now is       12.3 secs

     total energy              =    -501.57581603 Ry
     estimated scf accuracy    <       0.00143791 Ry

     iteration # 58     ecut=    30.00 Ry     beta= 0.50
     Davidson diagonalization with overlap
     ethr =  5.13E-07,  avg # of iterations = 10.0

     total cpu time spent up to now is       12.5 secs

     total energy              =    -501.57542387 Ry
     estimated scf accuracy    <       0.00403413 Ry

     iteration # 59     ecut=    30.00 Ry     beta= 0.50
     Davidson diagonalization with overlap
     c_bands:  1 eigenvalues not converged
     ethr =  5.13E-07,  avg # of iterations = 20.0

     total cpu time spent up to now is       12.7 secs

     total energy              =    -501.57430916 Ry
     estimated scf accuracy    <       0.04786783 Ry

     iteration # 60     ecut=    30.00 Ry     beta= 0.50
     Davidson diagonalization with overlap
     c_bands:  1 eigenvalues not converged
     ethr =  5.13E-07,  avg # of iterations = 20.0

     total cpu time spent up to now is       12.9 secs

     total energy              =    -501.57591970 Ry
     estimated scf accuracy    <       0.00229661 Ry

     iteration # 61     ecut=    30.00 Ry     beta= 0.50
     Davidson diagonalization with overlap
     ethr =  5.13E-07,  avg # of iterations = 11.0

     total cpu time spent up to now is       13.0 secs

     total energy              =    -501.57603016 Ry
     estimated scf accuracy    <       0.00194674 Ry

     iteration # 62     ecut=    30.00 Ry     beta= 0.50
     Davidson diagonalization with overlap
     ethr =  5.13E-07,  avg # of iterations =  1.0

     total cpu time spent up to now is       13.1 secs

     total energy              =    -501.57606516 Ry
     estimated scf accuracy    <       0.00172509 Ry

     iteration # 63     ecut=    30.00 Ry     beta= 0.50
     Davidson diagonalization with overlap
     ethr =  5.13E-07,  avg # of iterations =  1.0

     total cpu time spent up to now is       13.2 secs

     total energy              =    -501.57607919 Ry
     estimated scf accuracy    <       0.00174322 Ry

     iteration # 64     ecut=    30.00 Ry     beta= 0.50
     Davidson diagonalization with overlap
     ethr =  5.13E-07,  avg # of iterations =  1.0

     total cpu time spent up to now is       13.2 secs

     total energy              =    -501.57607637 Ry
     estimated scf accuracy    <       0.00175789 Ry

     iteration # 65     ecut=    30.00 Ry     beta= 0.50
     Davidson diagonalization with overlap
     ethr =  5.13E-07,  avg # of iterations =  1.0

     total cpu time spent up to now is       13.3 secs

     total energy              =    -501.57606813 Ry
     estimated scf accuracy    <       0.00170767 Ry

     iteration # 66     ecut=    30.00 Ry     beta= 0.50
     Davidson diagonalization with overlap
     ethr =  5.13E-07,  avg # of iterations =  1.0

     total cpu time spent up to now is       13.4 secs

     total energy              =    -501.57561457 Ry
     estimated scf accuracy    <       0.00164487 Ry

     iteration # 67     ecut=    30.00 Ry     beta= 0.50
     Davidson diagonalization with overlap
     c_bands:  1 eigenvalues not converged
     ethr =  5.13E-07,  avg # of iterations = 20.0

     total cpu time spent up to now is       13.6 secs

     total energy              =    -501.57510465 Ry
     estimated scf accuracy    <       0.03642635 Ry

     iteration # 68     ecut=    30.00 Ry     beta= 0.50
     Davidson diagonalization with overlap
     ethr =  5.13E-07,  avg # of iterations = 15.0

     total cpu time spent up to now is       13.8 secs

     total energy              =    -501.57594579 Ry
     estimated scf accuracy    <       0.01629038 Ry

     iteration # 69     ecut=    30.00 Ry     beta= 0.50
     Davidson diagonalization with overlap
     ethr =  5.13E-07,  avg # of iterations =  9.0

     total cpu time spent up to now is       13.9 secs

     total energy              =    -501.57565882 Ry
     estimated scf accuracy    <       0.01440361 Ry

     iteration # 70     ecut=    30.00 Ry     beta= 0.50
     Davidson diagonalization with overlap
     ethr =  5.13E-07,  avg # of iterations =  8.0

     total cpu time spent up to now is       14.0 secs

     total energy              =    -501.57573010 Ry
     estimated scf accuracy    <       0.01296805 Ry

     iteration # 71     ecut=    30.00 Ry     beta= 0.50
     Davidson diagonalization with overlap
     ethr =  5.13E-07,  avg # of iterations =  2.0

     total cpu time spent up to now is       14.1 secs

     total energy              =    -501.57554596 Ry
     estimated scf accuracy    <       0.01271058 Ry

     iteration # 72     ecut=    30.00 Ry     beta= 0.50
     Davidson diagonalization with overlap
     ethr =  5.13E-07,  avg # of iterations =  2.0

     total cpu time spent up to now is       14.2 secs

     total energy              =    -501.57543475 Ry
     estimated scf accuracy    <       0.01176565 Ry

     iteration # 73     ecut=    30.00 Ry     beta= 0.50
     Davidson diagonalization with overlap
     ethr =  5.13E-07,  avg # of iterations =  1.0

     total cpu time spent up to now is       14.3 secs

     total energy              =    -501.57502114 Ry
     estimated scf accuracy    <       0.01114990 Ry

     iteration # 74     ecut=    30.00 Ry     beta= 0.50
     Davidson diagonalization with overlap
     c_bands:  1 eigenvalues not converged
     ethr =  5.13E-07,  avg # of iterations = 20.0

     total cpu time spent up to now is       14.4 secs

     total energy              =    -501.57618856 Ry
     estimated scf accuracy    <       0.00846951 Ry

     iteration # 75     ecut=    30.00 Ry     beta= 0.50
     Davidson diagonalization with overlap
     ethr =  5.13E-07,  avg # of iterations = 19.0

     total cpu time spent up to now is       14.6 secs

     total energy              =    -501.57906133 Ry
     estimated scf accuracy    <       0.00792720 Ry

     iteration # 76     ecut=    30.00 Ry     beta= 0.50
     Davidson diagonalization with overlap
     ethr =  5.13E-07,  avg # of iterations = 16.0

     total cpu time spent up to now is       14.8 secs

     total energy              =    -501.57779113 Ry
     estimated scf accuracy    <       0.03471948 Ry

     iteration # 77     ecut=    30.00 Ry     beta= 0.50
     Davidson diagonalization with overlap
     ethr =  5.13E-07,  avg # of iterations = 20.0

     total cpu time spent up to now is       15.0 secs

     total energy              =    -501.57683123 Ry
     estimated scf accuracy    <       0.02081170 Ry

     iteration # 78     ecut=    30.00 Ry     beta= 0.50
     Davidson diagonalization with overlap
     ethr =  5.13E-07,  avg # of iterations =  9.0

     total cpu time spent up to now is       15.1 secs

     total energy              =    -501.57653660 Ry
     estimated scf accuracy    <       0.01374924 Ry

     iteration # 79     ecut=    30.00 Ry     beta= 0.50
     Davidson diagonalization with overlap
     ethr =  5.13E-07,  avg # of iterations =  3.0

     total cpu time spent up to now is       15.2 secs

     total energy              =    -501.57630313 Ry
     estimated scf accuracy    <       0.01071256 Ry

     iteration # 80     ecut=    30.00 Ry     beta= 0.50
     Davidson diagonalization with overlap
     ethr =  5.13E-07,  avg # of iterations =  2.0

     total cpu time spent up to now is       15.3 secs

     total energy              =    -501.57607916 Ry
     estimated scf accuracy    <       0.00896129 Ry

     iteration # 81     ecut=    30.00 Ry     beta= 0.50
     Davidson diagonalization with overlap
     ethr =  5.13E-07,  avg # of iterations =  2.0

     total cpu time spent up to now is       15.4 secs

     total energy              =    -501.57551295 Ry
     estimated scf accuracy    <       0.00754452 Ry

     iteration # 82     ecut=    30.00 Ry     beta= 0.50
     Davidson diagonalization with overlap
     c_bands:  1 eigenvalues not converged
     ethr =  5.13E-07,  avg # of iterations = 20.0

     total cpu time spent up to now is       15.6 secs

     total energy              =    -501.57689532 Ry
     estimated scf accuracy    <       0.00434007 Ry

     iteration # 83     ecut=    30.00 Ry     beta= 0.50
     Davidson diagonalization with overlap
     c_bands:  1 eigenvalues not converged
     ethr =  5.13E-07,  avg # of iterations = 20.0

     total cpu time spent up to now is       15.7 secs

     total energy              =    -501.57505164 Ry
     estimated scf accuracy    <       0.03594051 Ry

     iteration # 84     ecut=    30.00 Ry     beta= 0.50
     Davidson diagonalization with overlap
     c_bands:  1 eigenvalues not converged
     ethr =  5.13E-07,  avg # of iterations = 20.0

     total cpu time spent up to now is       15.9 secs

     total energy              =    -501.57623913 Ry
     estimated scf accuracy    <       0.00286032 Ry

     iteration # 85     ecut=    30.00 Ry     beta= 0.50
     Davidson diagonalization with overlap
     c_bands:  1 eigenvalues not converged
     ethr =  5.13E-07,  avg # of iterations = 20.0

     total cpu time spent up to now is       16.1 secs

     total energy              =    -501.57626666 Ry
     estimated scf accuracy    <       0.00425483 Ry

     iteration # 86     ecut=    30.00 Ry     beta= 0.50
     Davidson diagonalization with overlap
     ethr =  5.13E-07,  avg # of iterations =  1.0

     total cpu time spent up to now is       16.2 secs

     total energy              =    -501.57611406 Ry
     estimated scf accuracy    <       0.00413633 Ry

     iteration # 87     ecut=    30.00 Ry     beta= 0.50
     Davidson diagonalization with overlap
     ethr =  5.13E-07,  avg # of iterations =  3.0

     total cpu time spent up to now is       16.3 secs

     total energy              =    -501.57606438 Ry
     estimated scf accuracy    <       0.00365032 Ry

     iteration # 88     ecut=    30.00 Ry     beta= 0.50
     Davidson diagonalization with overlap
     ethr =  5.13E-07,  avg # of iterations =  2.0

     total cpu time spent up to now is       16.3 secs

     total energy              =    -501.57605356 Ry
     estimated scf accuracy    <       0.00330883 Ry

     iteration # 89     ecut=    30.00 Ry     beta= 0.50
     Davidson diagonalization with overlap
     ethr =  5.13E-07,  avg # of iterations =  1.0

     total cpu time spent up to now is       16.4 secs

     total energy              =    -501.57594830 Ry
     estimated scf accuracy    <       0.00312006 Ry

     iteration # 90     ecut=    30.00 Ry     beta= 0.50
     Davidson diagonalization with overlap
     ethr =  5.13E-07,  avg # of iterations =  1.0

     total cpu time spent up to now is       16.5 secs

     total energy              =    -501.57515500 Ry
     estimated scf accuracy    <       0.00254890 Ry

     iteration # 91     ecut=    30.00 Ry     beta= 0.50
     Davidson diagonalization with overlap
     c_bands:  1 eigenvalues not converged
     ethr =  5.13E-07,  avg # of iterations = 20.0

     total cpu time spent up to now is       16.7 secs

     total energy              =    -501.57518563 Ry
     estimated scf accuracy    <       0.03723889 Ry

     iteration # 92     ecut=    30.00 Ry     beta= 0.50
     Davidson diagonalization with overlap
     c_bands:  1 eigenvalues not converged
     ethr =  5.13E-07,  avg # of iterations = 20.0

     total cpu time spent up to now is       16.9 secs

     total energy              =    -501.57595366 Ry
     estimated scf accuracy    <       0.00577106 Ry

     iteration # 93     ecut=    30.00 Ry     beta= 0.50
     Davidson diagonalization with overlap
     ethr =  5.13E-07,  avg # of iterations = 14.0

     total cpu time spent up to now is       17.0 secs

     total energy              =    -501.57591784 Ry
     estimated scf accuracy    <       0.00483542 Ry

     iteration # 94     ecut=    30.00 Ry     beta= 0.50
     Davidson diagonalization with overlap
     ethr =  5.13E-07,  avg # of iterations =  1.0

     total cpu time spent up to now is       17.1 secs

     total energy              =    -501.57585266 Ry
     estimated scf accuracy    <       0.00429025 Ry

     iteration # 95     ecut=    30.00 Ry     beta= 0.50
     Davidson diagonalization with overlap
     ethr =  5.13E-07,  avg # of iterations =  1.0

     total cpu time spent up to now is       17.2 secs

     total energy              =    -501.57617994 Ry
     estimated scf accuracy    <       0.00378113 Ry

     iteration # 96     ecut=    30.00 Ry     beta= 0.50
     Davidson diagonalization with overlap
     ethr =  5.13E-07,  avg # of iterations =  2.0

     total cpu time spent up to now is       17.3 secs

     total energy              =    -501.57633799 Ry
     estimated scf accuracy    <       0.00503308 Ry

     iteration # 97     ecut=    30.00 Ry     beta= 0.50
     Davidson diagonalization with overlap
     ethr =  5.13E-07,  avg # of iterations =  1.0

     total cpu time spent up to now is       17.4 secs

     total energy              =    -501.57620860 Ry
     estimated scf accuracy    <       0.00580243 Ry

     iteration # 98     ecut=    30.00 Ry     beta= 0.50
     Davidson diagonalization with overlap
     ethr =  5.13E-07,  avg # of iterations =  1.0

     total cpu time spent up to now is       17.4 secs

     total energy              =    -501.57619733 Ry
     estimated scf accuracy    <       0.00551089 Ry

     iteration # 99     ecut=    30.00 Ry     beta= 0.50
     Davidson diagonalization with overlap
     ethr =  5.13E-07,  avg # of iterations =  1.0

     total cpu time spent up to now is       17.5 secs

     total energy              =    -501.57454467 Ry
     estimated scf accuracy    <       0.00551072 Ry

     iteration #100     ecut=    30.00 Ry     beta= 0.50
     Davidson diagonalization with overlap
     c_bands:  1 eigenvalues not converged
     ethr =  5.13E-07,  avg # of iterations = 20.0

     total cpu time spent up to now is       17.7 secs

     total energy              =    -501.57703968 Ry
     estimated scf accuracy    <       0.03707099 Ry

     End of self-consistent calculation

     convergence NOT achieved after 100 iterations: stopping

     Writing config to output data dir ./pwscf.save/
     Message from routine punch:
     wavefunctions written to file
 
     init_run     :      1.08s CPU      5.00s WALL (       1 calls)
     electrons    :     11.99s CPU     12.65s WALL (       1 calls)

     Called by init_run:
     wfcinit      :      0.55s CPU      4.28s WALL (       1 calls)
                                        4.28s GPU  (       1 calls)
     potinit      :      0.04s CPU      0.14s WALL (       1 calls)
     hinit0       :      0.47s CPU      0.50s WALL (       1 calls)

     Called by electrons:
     c_bands      :      7.68s CPU      7.95s WALL (     101 calls)
     sum_band     :      1.86s CPU      2.09s WALL (     101 calls)
     v_of_rho     :      0.86s CPU      1.03s WALL (     101 calls)
     mix_rho      :      1.21s CPU      1.25s WALL (     101 calls)

     Called by c_bands:
     init_us_2    :      0.36s CPU      0.37s WALL (     203 calls)
     init_us_2:gp :      0.36s CPU      0.37s WALL (     203 calls)
     regterg      :      6.90s CPU      7.14s WALL (     101 calls)

     Called by *egterg:
     rdiaghg      :      3.31s CPU      4.13s WALL (    1016 calls)
                                        3.98s GPU  (    1016 calls)
     h_psi        :      3.13s CPU      6.22s WALL (    1018 calls)
                                        6.20s GPU  (    1018 calls)
     g_psi        :      0.00s CPU      0.02s WALL (     916 calls)
                                        0.02s GPU  (     916 calls)

     Called by h_psi:
     h_psi:calbec :      0.84s CPU      3.77s WALL (    1018 calls)
                                        3.76s GPU  (    1018 calls)
     vloc_psi     :      1.68s CPU      1.83s WALL (    1018 calls)
                                        1.82s GPU  (    1018 calls)
     add_vuspsi   :      0.46s CPU      0.56s WALL (    1018 calls)
                                        0.55s GPU  (    1018 calls)

     General routines
     calbec       :      0.83s CPU      3.75s WALL (    1018 calls)
     fft          :      1.28s CPU      1.48s WALL (     809 calls)
                                        0.20s GPU  (     505 calls)
     ffts         :      0.28s CPU      0.31s WALL (     101 calls)
     fftw         :      1.97s CPU      2.45s WALL (    9892 calls)
                                        2.11s GPU  (    9892 calls)
     davcio       :      0.00s CPU      0.00s WALL (      19 calls)
 
     Parallel routines
 
     PWSCF        :     13.13s CPU     17.75s WALL

 
   This run was terminated on:  15:45:11   9May2023            

=------------------------------------------------------------------------------=
   JOB DONE.
=------------------------------------------------------------------------------=
