An instance of this daemon is already running

     Program PWSCF v.7.1 starts on  9May2023 at 15:48: 3 

     This program is part of the open-source Quantum ESPRESSO suite
     for quantum simulation of materials; please cite
         "P. Giannozzi et al., J. Phys.:Condens. Matter 21 395502 (2009);
         "P. Giannozzi et al., J. Phys.:Condens. Matter 29 465901 (2017);
         "P. Giannozzi et al., J. Chem. Phys. 152 154105 (2020);
          URL http://www.quantum-espresso.org", 
     in publications or presentations arising from this work. More details at
     http://www.quantum-espresso.org/quote

     Parallel version (MPI & OpenMP), running on       4 processor cores
     Number of MPI processes:                 4
     Threads/MPI process:                     1

     MPI processes distributed on     1 nodes
     751732 MiB available memory on the printing compute node when the environment starts
 
     Reading input from pw-si-99.in
Warning: card &CELL ignored
Warning: card / ignored

     Current dimensions of program PWSCF are:
     Max number of different atomic species (ntypx) = 10
     Max number of k-points (npk) =  40000
     Max angular momentum in pseudopotentials (lmaxx) =  4

     IMPORTANT: XC functional enforced from input :
     Exchange-correlation= PBE
                           (   1   4   3   4   0   0   0)
     Any further DFT definition will be discarded
     Please, verify this is what you really want


     gamma-point specific algorithms are used
 
     K-points division:     npool     =       2
     R & G space division:  proc/nbgrp/npool/nimage =       2
     Subspace diagonalization in iterative solution of the eigenvalue problem:
     a serial algorithm will be used

     Message from routine divide_et_impera:
     suboptimal parallelization: some nodes have no k-points
 
     Parallelization info
     --------------------
     sticks:   dense  smooth     PW     G-vecs:    dense   smooth      PW
     Min        1916    1916    502                89532    89532   12150
     Max        1917    1917    503                89537    89537   12153
     Sum        3833    3833   1005               179069   179069   24303
 
     Using Slab Decomposition
 


     bravais-lattice index     =            0
     lattice parameter (alat)  =      20.0640  a.u.
     unit-cell volume          =    8077.0115 (a.u.)^3
     number of atoms/cell      =           64
     number of atomic types    =            1
     number of electrons       =       256.00
     number of Kohn-Sham states=          128
     kinetic-energy cutoff     =      30.0000  Ry
     charge density cutoff     =     120.0000  Ry
     scf convergence threshold =      1.0E-06
     mixing beta               =       0.5000
     number of iterations used =            8  plain     mixing
     Exchange-correlation= PBE
                           (   1   4   3   4   0   0   0)

     GPU acceleration is ACTIVE.
     GPU-aware MPI enabled

     Message from routine print_cuda_info:
     High GPU oversubscription detected. Are you sure this is what you want?

     celldm(1)=  20.063971  celldm(2)=   0.000000  celldm(3)=   0.000000
     celldm(4)=   0.000000  celldm(5)=   0.000000  celldm(6)=   0.000000

     crystal axes: (cart. coord. in units of alat)
               a(1) = (   1.000000   0.000000   0.000000 )  
               a(2) = (   0.000000   1.000000   0.000000 )  
               a(3) = (   0.000000   0.000000   1.000000 )  

     reciprocal axes: (cart. coord. in units 2 pi/alat)
               b(1) = (  1.000000  0.000000  0.000000 )  
               b(2) = (  0.000000  1.000000  0.000000 )  
               b(3) = (  0.000000  0.000000  1.000000 )  


     PseudoPot. # 1 for Si read from file:
     /home/ppiaggi/pseudos/Si_ONCV_PBE_sr.upf
     MD5 check sum: 8553c464762ac42b85b1eed164b4d029
     Pseudo is Norm-conserving, Zval =  4.0
     Generated using ONCVPSP code by D. R. Hamann
     Using radial grid of 1510 points,  4 beta functions with: 
                l(1) =   0
                l(2) =   0
                l(3) =   1
                l(4) =   1

     atomic species   valence    mass     pseudopotential
        Si             4.00    28.08500     Si( 1.00)

     No symmetry found



   Cartesian axes

     site n.     atom                  positions (alat units)
         1           Si  tau(   1) = (   0.9555320   0.2314170   0.7732860  )
         2           Si  tau(   2) = (   0.7832570   0.0552033   0.7695100  )
         3           Si  tau(   3) = (   0.9255860   0.9442350   0.4427090  )
         4           Si  tau(   4) = (   0.6042790   0.6101620   0.2922960  )
         5           Si  tau(   5) = (   0.1826610   0.3539350   0.2432370  )
         6           Si  tau(   6) = (   0.2647020   0.0656619   0.5530010  )
         7           Si  tau(   7) = (   0.3730290   0.9427700   0.2862960  )
         8           Si  tau(   8) = (   0.2640410   0.5301970   0.1167590  )
         9           Si  tau(   9) = (   0.3985030   0.7028630   0.2335510  )
        10           Si  tau(  10) = (   0.9485440   0.4939140   0.7130140  )
        11           Si  tau(  11) = (   0.7830130   0.0971915   0.5569050  )
        12           Si  tau(  12) = (   0.6888270   0.7320080   0.4993220  )
        13           Si  tau(  13) = (   0.6332180   0.4858790   0.7652220  )
        14           Si  tau(  14) = (   0.2720110   0.9480320   0.1156150  )
        15           Si  tau(  15) = (   0.1844080   0.9341990   0.8112810  )
        16           Si  tau(  16) = (   0.6949380   0.4496830   0.1461620  )
        17           Si  tau(  17) = (   0.3595000   0.4159810   0.9621390  )
        18           Si  tau(  18) = (   0.0806589   0.0802009   0.3635260  )
        19           Si  tau(  19) = (   0.0600716   0.6136830   0.5599450  )
        20           Si  tau(  20) = (   0.9108270   0.4743010   0.2374180  )
        21           Si  tau(  21) = (   0.6112660   0.0155767   0.9869080  )
        22           Si  tau(  22) = (   0.7951590   0.1766130   0.0602246  )
        23           Si  tau(  23) = (   0.4080460   0.0002021   0.7182480  )
        24           Si  tau(  24) = (   0.3406680   0.1176790   0.9782390  )
        25           Si  tau(  25) = (   0.0072912   0.8265970   0.6371940  )
        26           Si  tau(  26) = (   0.2435680   0.8583880   0.4578350  )
        27           Si  tau(  27) = (   0.5650770   0.0372635   0.2081190  )
        28           Si  tau(  28) = (   0.9207270   0.3993790   0.9762480  )
        29           Si  tau(  29) = (   0.5651240   0.3983410   0.4343090  )
        30           Si  tau(  30) = (   0.4272390   0.5336040   0.7592910  )
        31           Si  tau(  31) = (   0.1507370   0.5104420   0.8419180  )
        32           Si  tau(  32) = (   0.8058660   0.6463060   0.8154770  )
        33           Si  tau(  33) = (   0.7503470   0.8274050   0.7086690  )
        34           Si  tau(  34) = (   0.9056220   0.2406820   0.2880510  )
        35           Si  tau(  35) = (   0.0661518   0.1113520   0.9175010  )
        36           Si  tau(  36) = (   0.0235407   0.7338020   0.2144080  )
        37           Si  tau(  37) = (   0.1981220   0.6608460   0.3504200  )
        38           Si  tau(  38) = (   0.5765630   0.1593980   0.7966880  )
        39           Si  tau(  39) = (   0.5619180   0.1234990   0.4833560  )
        40           Si  tau(  40) = (   0.6452590   0.3319330   0.9477970  )
        41           Si  tau(  41) = (   0.8982200   0.3022380   0.5199600  )
        42           Si  tau(  42) = (   0.0380787   0.6037310   0.0300034  )
        43           Si  tau(  43) = (   0.8895930   0.6343870   0.4202200  )
        44           Si  tau(  44) = (   0.6491610   0.2450940   0.2648630  )
        45           Si  tau(  45) = (   0.4195360   0.2414900   0.1402420  )
        46           Si  tau(  46) = (   0.0639498   0.9564420   0.1587580  )
        47           Si  tau(  47) = (   0.0296893   0.2185720   0.1093600  )
        48           Si  tau(  48) = (   0.1395540   0.2342820   0.6180840  )
        49           Si  tau(  49) = (   0.3397100   0.2082260   0.3559090  )
        50           Si  tau(  50) = (   0.2425890   0.7047910   0.7149230  )
        51           Si  tau(  51) = (   0.2742380   0.2896890   0.7923970  )
        52           Si  tau(  52) = (   0.1632780   0.4113820   0.4751430  )
        53           Si  tau(  53) = (   0.9907850   0.8041810   0.9078050  )
        54           Si  tau(  54) = (   0.5123250   0.8091460   0.7402630  )
        55           Si  tau(  55) = (   0.3510230   0.5170360   0.5253280  )
        56           Si  tau(  56) = (   0.8108940   0.7947390   0.1786950  )
        57           Si  tau(  57) = (   0.5031260   0.8274730   0.9728920  )
        58           Si  tau(  58) = (   0.4450710   0.7472380   0.5309130  )
        59           Si  tau(  59) = (   0.8763060   0.9587540   0.0304846  )
        60           Si  tau(  60) = (   0.6832570   0.6771210   0.9980780  )
        61           Si  tau(  61) = (   0.2715270   0.7273440   0.9784170  )
        62           Si  tau(  62) = (   0.7500810   0.4734040   0.5436490  )
        63           Si  tau(  63) = (   0.7156400   0.9122910   0.3560220  )
        64           Si  tau(  64) = (   0.4386960   0.2890390   0.6333930  )

     number of k points=     1
                       cart. coord. in units 2pi/alat
        k(    1) = (   0.0000000   0.0000000   0.0000000), wk =   2.0000000

     Dense  grid:    89535 G-vectors     FFT dimensions: (  72,  72,  72)

     Estimated max dynamical RAM per process >     132.17 MB

     Estimated total dynamical RAM >     506.83 MB

     Initial potential from superposition of free atoms

     starting charge     255.9608, renormalised to     256.0000
     Starting wfcs are  256 randomized atomic wfcs

     total cpu time spent up to now is        4.8 secs

     Self-consistent Calculation

     iteration #  1     ecut=    30.00 Ry     beta= 0.50
     Davidson diagonalization with overlap
     ethr =  1.00E-02,  avg # of iterations =  2.0

     Threshold (ethr) on eigenvalues was too large:
     Diagonalizing with lowered threshold

     Davidson diagonalization with overlap
     ethr =  3.93E-04,  avg # of iterations =  5.0

     total cpu time spent up to now is        5.0 secs

     total energy              =    -501.20141651 Ry
     estimated scf accuracy    <       1.25723850 Ry

     iteration #  2     ecut=    30.00 Ry     beta= 0.50
     Davidson diagonalization with overlap
     ethr =  4.91E-04,  avg # of iterations = 16.0

     total cpu time spent up to now is        5.2 secs

     total energy              =    -500.86026276 Ry
     estimated scf accuracy    <       3.93752024 Ry

     iteration #  3     ecut=    30.00 Ry     beta= 0.50
     Davidson diagonalization with overlap
     ethr =  4.91E-04,  avg # of iterations = 11.0

     total cpu time spent up to now is        5.3 secs

     total energy              =    -501.29650102 Ry
     estimated scf accuracy    <       1.50074864 Ry

     iteration #  4     ecut=    30.00 Ry     beta= 0.50
     Davidson diagonalization with overlap
     ethr =  4.91E-04,  avg # of iterations =  6.0

     total cpu time spent up to now is        5.5 secs

     total energy              =    -501.43319517 Ry
     estimated scf accuracy    <       0.28541983 Ry

     iteration #  5     ecut=    30.00 Ry     beta= 0.50
     Davidson diagonalization with overlap
     ethr =  1.11E-04,  avg # of iterations =  6.0

     total cpu time spent up to now is        5.6 secs

     total energy              =    -501.45901874 Ry
     estimated scf accuracy    <       0.11060704 Ry

     iteration #  6     ecut=    30.00 Ry     beta= 0.50
     Davidson diagonalization with overlap
     ethr =  4.32E-05,  avg # of iterations = 16.0

     total cpu time spent up to now is        5.7 secs

     total energy              =    -501.47288253 Ry
     estimated scf accuracy    <       0.14452556 Ry

     iteration #  7     ecut=    30.00 Ry     beta= 0.50
     Davidson diagonalization with overlap
     ethr =  4.32E-05,  avg # of iterations =  3.0

     total cpu time spent up to now is        5.8 secs

     total energy              =    -501.47941294 Ry
     estimated scf accuracy    <       0.02099139 Ry

     iteration #  8     ecut=    30.00 Ry     beta= 0.50
     Davidson diagonalization with overlap
     ethr =  8.20E-06,  avg # of iterations = 18.0

     total cpu time spent up to now is        6.0 secs

     total energy              =    -501.48476724 Ry
     estimated scf accuracy    <       0.01839757 Ry

     iteration #  9     ecut=    30.00 Ry     beta= 0.50
     Davidson diagonalization with overlap
     ethr =  7.19E-06,  avg # of iterations =  2.0

     total cpu time spent up to now is        6.1 secs

     total energy              =    -501.48424387 Ry
     estimated scf accuracy    <       0.00861254 Ry

     iteration # 10     ecut=    30.00 Ry     beta= 0.50
     Davidson diagonalization with overlap
     ethr =  3.36E-06,  avg # of iterations = 14.0

     total cpu time spent up to now is        6.2 secs

     total energy              =    -501.48524120 Ry
     estimated scf accuracy    <       0.00103621 Ry

     iteration # 11     ecut=    30.00 Ry     beta= 0.50
     Davidson diagonalization with overlap
     c_bands:  1 eigenvalues not converged
     ethr =  4.05E-07,  avg # of iterations = 20.0

     total cpu time spent up to now is        6.4 secs

     total energy              =    -501.48651886 Ry
     estimated scf accuracy    <       0.02816392 Ry

     iteration # 12     ecut=    30.00 Ry     beta= 0.50
     Davidson diagonalization with overlap
     c_bands:  1 eigenvalues not converged
     ethr =  4.05E-07,  avg # of iterations = 20.0

     total cpu time spent up to now is        6.6 secs

     total energy              =    -501.48659141 Ry
     estimated scf accuracy    <       0.02871298 Ry

     iteration # 13     ecut=    30.00 Ry     beta= 0.50
     Davidson diagonalization with overlap
     ethr =  4.05E-07,  avg # of iterations =  3.0

     total cpu time spent up to now is        6.7 secs

     total energy              =    -501.48664737 Ry
     estimated scf accuracy    <       0.02723820 Ry

     iteration # 14     ecut=    30.00 Ry     beta= 0.50
     Davidson diagonalization with overlap
     ethr =  4.05E-07,  avg # of iterations =  2.0

     total cpu time spent up to now is        6.8 secs

     total energy              =    -501.48646947 Ry
     estimated scf accuracy    <       0.02748727 Ry

     iteration # 15     ecut=    30.00 Ry     beta= 0.50
     Davidson diagonalization with overlap
     c_bands:  1 eigenvalues not converged
     ethr =  4.05E-07,  avg # of iterations = 20.0

     total cpu time spent up to now is        6.9 secs

     total energy              =    -501.48643003 Ry
     estimated scf accuracy    <       0.02768712 Ry

     iteration # 16     ecut=    30.00 Ry     beta= 0.50
     Davidson diagonalization with overlap
     ethr =  4.05E-07,  avg # of iterations =  3.0

     total cpu time spent up to now is        7.0 secs

     total energy              =    -501.48652458 Ry
     estimated scf accuracy    <       0.02725919 Ry

     iteration # 17     ecut=    30.00 Ry     beta= 0.50
     Davidson diagonalization with overlap
     c_bands:  1 eigenvalues not converged
     ethr =  4.05E-07,  avg # of iterations = 20.0

     total cpu time spent up to now is        7.2 secs

     total energy              =    -501.48576591 Ry
     estimated scf accuracy    <       0.02638585 Ry

     iteration # 18     ecut=    30.00 Ry     beta= 0.50
     Davidson diagonalization with overlap
     c_bands:  1 eigenvalues not converged
     ethr =  4.05E-07,  avg # of iterations = 20.0

     total cpu time spent up to now is        7.4 secs

     total energy              =    -501.48576188 Ry
     estimated scf accuracy    <       0.02719471 Ry

     iteration # 19     ecut=    30.00 Ry     beta= 0.50
     Davidson diagonalization with overlap
     c_bands:  1 eigenvalues not converged
     ethr =  4.05E-07,  avg # of iterations = 20.0

     total cpu time spent up to now is        7.6 secs

     total energy              =    -501.48124029 Ry
     estimated scf accuracy    <       0.02711371 Ry

     iteration # 20     ecut=    30.00 Ry     beta= 0.50
     Davidson diagonalization with overlap
     c_bands:  1 eigenvalues not converged
     ethr =  4.05E-07,  avg # of iterations = 20.0

     total cpu time spent up to now is        7.8 secs

     total energy              =    -501.46648311 Ry
     estimated scf accuracy    <       0.17294511 Ry

     iteration # 21     ecut=    30.00 Ry     beta= 0.50
     Davidson diagonalization with overlap
     c_bands:  3 eigenvalues not converged
     ethr =  4.05E-07,  avg # of iterations = 20.0

     total cpu time spent up to now is        8.0 secs

     total energy              =    -501.47580431 Ry
     estimated scf accuracy    <       0.12235526 Ry

     iteration # 22     ecut=    30.00 Ry     beta= 0.50
     Davidson diagonalization with overlap
     c_bands:  2 eigenvalues not converged
     ethr =  4.05E-07,  avg # of iterations = 20.0

     total cpu time spent up to now is        8.2 secs

     total energy              =    -501.48440043 Ry
     estimated scf accuracy    <       0.02470042 Ry

     iteration # 23     ecut=    30.00 Ry     beta= 0.50
     Davidson diagonalization with overlap
     ethr =  4.05E-07,  avg # of iterations = 15.0

     total cpu time spent up to now is        8.4 secs

     total energy              =    -501.48588714 Ry
     estimated scf accuracy    <       0.00893789 Ry

     iteration # 24     ecut=    30.00 Ry     beta= 0.50
     Davidson diagonalization with overlap
     c_bands:  1 eigenvalues not converged
     ethr =  4.05E-07,  avg # of iterations = 20.0

     total cpu time spent up to now is        8.5 secs

     total energy              =    -501.48592899 Ry
     estimated scf accuracy    <       0.00490256 Ry

     iteration # 25     ecut=    30.00 Ry     beta= 0.50
     Davidson diagonalization with overlap
     c_bands:  1 eigenvalues not converged
     ethr =  4.05E-07,  avg # of iterations = 20.0

     total cpu time spent up to now is        8.7 secs

     total energy              =    -501.48555360 Ry
     estimated scf accuracy    <       0.00631290 Ry

     iteration # 26     ecut=    30.00 Ry     beta= 0.50
     Davidson diagonalization with overlap
     c_bands:  1 eigenvalues not converged
     ethr =  4.05E-07,  avg # of iterations = 20.0

     total cpu time spent up to now is        8.9 secs

     total energy              =    -501.48561184 Ry
     estimated scf accuracy    <       0.00356708 Ry

     iteration # 27     ecut=    30.00 Ry     beta= 0.50
     Davidson diagonalization with overlap
     ethr =  4.05E-07,  avg # of iterations = 12.0

     total cpu time spent up to now is        9.0 secs

     total energy              =    -501.48561967 Ry
     estimated scf accuracy    <       0.00178218 Ry

     iteration # 28     ecut=    30.00 Ry     beta= 0.50
     Davidson diagonalization with overlap
     ethr =  4.05E-07,  avg # of iterations =  2.0

     total cpu time spent up to now is        9.1 secs

     total energy              =    -501.48518343 Ry
     estimated scf accuracy    <       0.00126683 Ry

     iteration # 29     ecut=    30.00 Ry     beta= 0.50
     Davidson diagonalization with overlap
     c_bands:  1 eigenvalues not converged
     ethr =  4.05E-07,  avg # of iterations = 20.0

     total cpu time spent up to now is        9.3 secs

     total energy              =    -501.48505881 Ry
     estimated scf accuracy    <       0.00650215 Ry

     iteration # 30     ecut=    30.00 Ry     beta= 0.50
     Davidson diagonalization with overlap
     c_bands:  1 eigenvalues not converged
     ethr =  4.05E-07,  avg # of iterations = 20.0

     total cpu time spent up to now is        9.5 secs

     total energy              =    -501.48548930 Ry
     estimated scf accuracy    <       0.00278338 Ry

     iteration # 31     ecut=    30.00 Ry     beta= 0.50
     Davidson diagonalization with overlap
     ethr =  4.05E-07,  avg # of iterations = 19.0

     total cpu time spent up to now is        9.7 secs

     total energy              =    -501.48557819 Ry
     estimated scf accuracy    <       0.00210059 Ry

     iteration # 32     ecut=    30.00 Ry     beta= 0.50
     Davidson diagonalization with overlap
     ethr =  4.05E-07,  avg # of iterations =  2.0

     total cpu time spent up to now is        9.8 secs

     total energy              =    -501.48558910 Ry
     estimated scf accuracy    <       0.00210276 Ry

     iteration # 33     ecut=    30.00 Ry     beta= 0.50
     Davidson diagonalization with overlap
     ethr =  4.05E-07,  avg # of iterations =  2.0

     total cpu time spent up to now is        9.9 secs

     total energy              =    -501.48546684 Ry
     estimated scf accuracy    <       0.00219051 Ry

     iteration # 34     ecut=    30.00 Ry     beta= 0.50
     Davidson diagonalization with overlap
     ethr =  4.05E-07,  avg # of iterations =  1.0

     total cpu time spent up to now is        9.9 secs

     total energy              =    -501.48540317 Ry
     estimated scf accuracy    <       0.00161885 Ry

     iteration # 35     ecut=    30.00 Ry     beta= 0.50
     Davidson diagonalization with overlap
     ethr =  4.05E-07,  avg # of iterations =  2.0

     total cpu time spent up to now is       10.0 secs

     total energy              =    -501.48536841 Ry
     estimated scf accuracy    <       0.00129060 Ry

     iteration # 36     ecut=    30.00 Ry     beta= 0.50
     Davidson diagonalization with overlap
     ethr =  4.05E-07,  avg # of iterations =  1.0

     total cpu time spent up to now is       10.1 secs

     total energy              =    -501.48526526 Ry
     estimated scf accuracy    <       0.00098937 Ry

     iteration # 37     ecut=    30.00 Ry     beta= 0.50
     Davidson diagonalization with overlap
     c_bands:  1 eigenvalues not converged
     ethr =  3.86E-07,  avg # of iterations = 20.0

     total cpu time spent up to now is       10.3 secs

     total energy              =    -501.48628187 Ry
     estimated scf accuracy    <       0.02320840 Ry

     iteration # 38     ecut=    30.00 Ry     beta= 0.50
     Davidson diagonalization with overlap
     c_bands:  1 eigenvalues not converged
     ethr =  3.86E-07,  avg # of iterations = 20.0

     total cpu time spent up to now is       10.5 secs

     total energy              =    -501.48685251 Ry
     estimated scf accuracy    <       0.02247659 Ry

     iteration # 39     ecut=    30.00 Ry     beta= 0.50
     Davidson diagonalization with overlap
     ethr =  3.86E-07,  avg # of iterations = 10.0

     total cpu time spent up to now is       10.6 secs

     total energy              =    -501.48664507 Ry
     estimated scf accuracy    <       0.02155532 Ry

     iteration # 40     ecut=    30.00 Ry     beta= 0.50
     Davidson diagonalization with overlap
     ethr =  3.86E-07,  avg # of iterations =  2.0

     total cpu time spent up to now is       10.7 secs

     total energy              =    -501.48650088 Ry
     estimated scf accuracy    <       0.02047124 Ry

     iteration # 41     ecut=    30.00 Ry     beta= 0.50
     Davidson diagonalization with overlap
     ethr =  3.86E-07,  avg # of iterations =  1.0

     total cpu time spent up to now is       10.7 secs

     total energy              =    -501.48614551 Ry
     estimated scf accuracy    <       0.01972469 Ry

     iteration # 42     ecut=    30.00 Ry     beta= 0.50
     Davidson diagonalization with overlap
     ethr =  3.86E-07,  avg # of iterations =  2.0

     total cpu time spent up to now is       10.8 secs

     total energy              =    -501.48602015 Ry
     estimated scf accuracy    <       0.01788603 Ry

     iteration # 43     ecut=    30.00 Ry     beta= 0.50
     Davidson diagonalization with overlap
     ethr =  3.86E-07,  avg # of iterations =  2.0

     total cpu time spent up to now is       10.9 secs

     total energy              =    -501.48558805 Ry
     estimated scf accuracy    <       0.01714808 Ry

     iteration # 44     ecut=    30.00 Ry     beta= 0.50
     Davidson diagonalization with overlap
     c_bands:  1 eigenvalues not converged
     ethr =  3.86E-07,  avg # of iterations = 20.0

     total cpu time spent up to now is       11.1 secs

     total energy              =    -501.48564756 Ry
     estimated scf accuracy    <       0.01151309 Ry

     iteration # 45     ecut=    30.00 Ry     beta= 0.50
     Davidson diagonalization with overlap
     ethr =  3.86E-07,  avg # of iterations = 19.0

     total cpu time spent up to now is       11.2 secs

     total energy              =    -501.48362431 Ry
     estimated scf accuracy    <       0.00919975 Ry

     iteration # 46     ecut=    30.00 Ry     beta= 0.50
     Davidson diagonalization with overlap
     c_bands:  1 eigenvalues not converged
     ethr =  3.86E-07,  avg # of iterations = 20.0

     total cpu time spent up to now is       11.4 secs

     total energy              =    -501.48413211 Ry
     estimated scf accuracy    <       0.04182371 Ry

     iteration # 47     ecut=    30.00 Ry     beta= 0.50
     Davidson diagonalization with overlap
     c_bands:  1 eigenvalues not converged
     ethr =  3.86E-07,  avg # of iterations = 20.0

     total cpu time spent up to now is       11.6 secs

     total energy              =    -501.48516749 Ry
     estimated scf accuracy    <       0.01444698 Ry

     iteration # 48     ecut=    30.00 Ry     beta= 0.50
     Davidson diagonalization with overlap
     c_bands:  1 eigenvalues not converged
     ethr =  3.86E-07,  avg # of iterations = 20.0

     total cpu time spent up to now is       11.8 secs

     total energy              =    -501.48561549 Ry
     estimated scf accuracy    <       0.01149148 Ry

     iteration # 49     ecut=    30.00 Ry     beta= 0.50
     Davidson diagonalization with overlap
     ethr =  3.86E-07,  avg # of iterations = 12.0

     total cpu time spent up to now is       12.0 secs

     total energy              =    -501.48545555 Ry
     estimated scf accuracy    <       0.00957125 Ry

     iteration # 50     ecut=    30.00 Ry     beta= 0.50
     Davidson diagonalization with overlap
     ethr =  3.86E-07,  avg # of iterations =  2.0

     total cpu time spent up to now is       12.1 secs

     total energy              =    -501.48565054 Ry
     estimated scf accuracy    <       0.00848279 Ry

     iteration # 51     ecut=    30.00 Ry     beta= 0.50
     Davidson diagonalization with overlap
     ethr =  3.86E-07,  avg # of iterations =  2.0

     total cpu time spent up to now is       12.1 secs

     total energy              =    -501.48543513 Ry
     estimated scf accuracy    <       0.00862641 Ry

     iteration # 52     ecut=    30.00 Ry     beta= 0.50
     Davidson diagonalization with overlap
     ethr =  3.86E-07,  avg # of iterations =  2.0

     total cpu time spent up to now is       12.2 secs

     total energy              =    -501.48402489 Ry
     estimated scf accuracy    <       0.00758537 Ry

     iteration # 53     ecut=    30.00 Ry     beta= 0.50
     Davidson diagonalization with overlap
     c_bands:  1 eigenvalues not converged
     ethr =  3.86E-07,  avg # of iterations = 20.0

     total cpu time spent up to now is       12.4 secs

     total energy              =    -501.48539442 Ry
     estimated scf accuracy    <       0.01284330 Ry

     iteration # 54     ecut=    30.00 Ry     beta= 0.50
     Davidson diagonalization with overlap
     c_bands:  1 eigenvalues not converged
     ethr =  3.86E-07,  avg # of iterations = 20.0

     total cpu time spent up to now is       12.6 secs

     total energy              =    -501.48563566 Ry
     estimated scf accuracy    <       0.00402683 Ry

     iteration # 55     ecut=    30.00 Ry     beta= 0.50
     Davidson diagonalization with overlap
     ethr =  3.86E-07,  avg # of iterations =  8.0

     total cpu time spent up to now is       12.7 secs

     total energy              =    -501.48570776 Ry
     estimated scf accuracy    <       0.00383167 Ry

     iteration # 56     ecut=    30.00 Ry     beta= 0.50
     Davidson diagonalization with overlap
     ethr =  3.86E-07,  avg # of iterations =  3.0

     total cpu time spent up to now is       12.8 secs

     total energy              =    -501.48565690 Ry
     estimated scf accuracy    <       0.00340513 Ry

     iteration # 57     ecut=    30.00 Ry     beta= 0.50
     Davidson diagonalization with overlap
     ethr =  3.86E-07,  avg # of iterations =  2.0

     total cpu time spent up to now is       12.9 secs

     total energy              =    -501.48556051 Ry
     estimated scf accuracy    <       0.00292040 Ry

     iteration # 58     ecut=    30.00 Ry     beta= 0.50
     Davidson diagonalization with overlap
     ethr =  3.86E-07,  avg # of iterations =  2.0

     total cpu time spent up to now is       13.0 secs

     total energy              =    -501.48548581 Ry
     estimated scf accuracy    <       0.00239216 Ry

     iteration # 59     ecut=    30.00 Ry     beta= 0.50
     Davidson diagonalization with overlap
     ethr =  3.86E-07,  avg # of iterations =  2.0

     total cpu time spent up to now is       13.1 secs

     total energy              =    -501.48538869 Ry
     estimated scf accuracy    <       0.00195739 Ry

     iteration # 60     ecut=    30.00 Ry     beta= 0.50
     Davidson diagonalization with overlap
     c_bands:  1 eigenvalues not converged
     ethr =  3.86E-07,  avg # of iterations = 20.0

     total cpu time spent up to now is       13.2 secs

     total energy              =    -501.48565783 Ry
     estimated scf accuracy    <       0.00438665 Ry

     iteration # 61     ecut=    30.00 Ry     beta= 0.50
     Davidson diagonalization with overlap
     ethr =  3.86E-07,  avg # of iterations = 19.0

     total cpu time spent up to now is       13.4 secs

     total energy              =    -501.48620452 Ry
     estimated scf accuracy    <       0.00410796 Ry

     iteration # 62     ecut=    30.00 Ry     beta= 0.50
     Davidson diagonalization with overlap
     c_bands:  1 eigenvalues not converged
     ethr =  3.86E-07,  avg # of iterations = 20.0

     total cpu time spent up to now is       13.6 secs

     total energy              =    -501.48517220 Ry
     estimated scf accuracy    <       0.02637694 Ry

     iteration # 63     ecut=    30.00 Ry     beta= 0.50
     Davidson diagonalization with overlap
     c_bands:  1 eigenvalues not converged
     ethr =  3.86E-07,  avg # of iterations = 20.0

     total cpu time spent up to now is       13.8 secs

     total energy              =    -501.48538676 Ry
     estimated scf accuracy    <       0.01697489 Ry

     iteration # 64     ecut=    30.00 Ry     beta= 0.50
     Davidson diagonalization with overlap
     c_bands:  1 eigenvalues not converged
     ethr =  3.86E-07,  avg # of iterations = 20.0

     total cpu time spent up to now is       13.9 secs

     total energy              =    -501.48530266 Ry
     estimated scf accuracy    <       0.01260986 Ry

     iteration # 65     ecut=    30.00 Ry     beta= 0.50
     Davidson diagonalization with overlap
     c_bands:  1 eigenvalues not converged
     ethr =  3.86E-07,  avg # of iterations = 20.0

     total cpu time spent up to now is       14.1 secs

     total energy              =    -501.48525322 Ry
     estimated scf accuracy    <       0.00972953 Ry

     iteration # 66     ecut=    30.00 Ry     beta= 0.50
     Davidson diagonalization with overlap
     c_bands:  1 eigenvalues not converged
     ethr =  3.86E-07,  avg # of iterations = 20.0

     total cpu time spent up to now is       14.3 secs

     total energy              =    -501.48557340 Ry
     estimated scf accuracy    <       0.00575951 Ry

     iteration # 67     ecut=    30.00 Ry     beta= 0.50
     Davidson diagonalization with overlap
     ethr =  3.86E-07,  avg # of iterations = 17.0

     total cpu time spent up to now is       14.4 secs

     total energy              =    -501.48578365 Ry
     estimated scf accuracy    <       0.00581199 Ry

     iteration # 68     ecut=    30.00 Ry     beta= 0.50
     Davidson diagonalization with overlap
     ethr =  3.86E-07,  avg # of iterations =  1.0

     total cpu time spent up to now is       14.5 secs

     total energy              =    -501.48456028 Ry
     estimated scf accuracy    <       0.00638754 Ry

     iteration # 69     ecut=    30.00 Ry     beta= 0.50
     Davidson diagonalization with overlap
     c_bands:  1 eigenvalues not converged
     ethr =  3.86E-07,  avg # of iterations = 20.0

     total cpu time spent up to now is       14.7 secs

     total energy              =    -501.48500764 Ry
     estimated scf accuracy    <       0.03571995 Ry

     iteration # 70     ecut=    30.00 Ry     beta= 0.50
     Davidson diagonalization with overlap
     c_bands:  1 eigenvalues not converged
     ethr =  3.86E-07,  avg # of iterations = 20.0

     total cpu time spent up to now is       14.9 secs

     total energy              =    -501.48534298 Ry
     estimated scf accuracy    <       0.00798702 Ry

     iteration # 71     ecut=    30.00 Ry     beta= 0.50
     Davidson diagonalization with overlap
     c_bands:  1 eigenvalues not converged
     ethr =  3.86E-07,  avg # of iterations = 20.0

     total cpu time spent up to now is       15.1 secs

     total energy              =    -501.48551100 Ry
     estimated scf accuracy    <       0.00521250 Ry

     iteration # 72     ecut=    30.00 Ry     beta= 0.50
     Davidson diagonalization with overlap
     ethr =  3.86E-07,  avg # of iterations = 13.0

     total cpu time spent up to now is       15.2 secs

     total energy              =    -501.48553366 Ry
     estimated scf accuracy    <       0.00453108 Ry

     iteration # 73     ecut=    30.00 Ry     beta= 0.50
     Davidson diagonalization with overlap
     ethr =  3.86E-07,  avg # of iterations =  2.0

     total cpu time spent up to now is       15.3 secs

     total energy              =    -501.48537371 Ry
     estimated scf accuracy    <       0.00428024 Ry

     iteration # 74     ecut=    30.00 Ry     beta= 0.50
     Davidson diagonalization with overlap
     ethr =  3.86E-07,  avg # of iterations =  2.0

     total cpu time spent up to now is       15.4 secs

     total energy              =    -501.48547787 Ry
     estimated scf accuracy    <       0.00352497 Ry

     iteration # 75     ecut=    30.00 Ry     beta= 0.50
     Davidson diagonalization with overlap
     c_bands:  1 eigenvalues not converged
     ethr =  3.86E-07,  avg # of iterations = 20.0

     total cpu time spent up to now is       15.6 secs

     total energy              =    -501.48553415 Ry
     estimated scf accuracy    <       0.00227379 Ry

     iteration # 76     ecut=    30.00 Ry     beta= 0.50
     Davidson diagonalization with overlap
     c_bands:  1 eigenvalues not converged
     ethr =  3.86E-07,  avg # of iterations = 20.0

     total cpu time spent up to now is       15.7 secs

     total energy              =    -501.48562062 Ry
     estimated scf accuracy    <       0.00134057 Ry

     iteration # 77     ecut=    30.00 Ry     beta= 0.50
     Davidson diagonalization with overlap
     ethr =  3.86E-07,  avg # of iterations = 19.0

     total cpu time spent up to now is       15.9 secs

     total energy              =    -501.48527347 Ry
     estimated scf accuracy    <       0.00106538 Ry

     iteration # 78     ecut=    30.00 Ry     beta= 0.50
     Davidson diagonalization with overlap
     c_bands:  1 eigenvalues not converged
     ethr =  3.86E-07,  avg # of iterations = 20.0

     total cpu time spent up to now is       16.1 secs

     total energy              =    -501.48556194 Ry
     estimated scf accuracy    <       0.03163025 Ry

     iteration # 79     ecut=    30.00 Ry     beta= 0.50
     Davidson diagonalization with overlap
     c_bands:  1 eigenvalues not converged
     ethr =  3.86E-07,  avg # of iterations = 20.0

     total cpu time spent up to now is       16.3 secs

     total energy              =    -501.48512718 Ry
     estimated scf accuracy    <       0.02262041 Ry

     iteration # 80     ecut=    30.00 Ry     beta= 0.50
     Davidson diagonalization with overlap
     c_bands:  1 eigenvalues not converged
     ethr =  3.86E-07,  avg # of iterations = 20.0

     total cpu time spent up to now is       16.4 secs

     total energy              =    -501.48538905 Ry
     estimated scf accuracy    <       0.00744193 Ry

     iteration # 81     ecut=    30.00 Ry     beta= 0.50
     Davidson diagonalization with overlap
     c_bands:  1 eigenvalues not converged
     ethr =  3.86E-07,  avg # of iterations = 20.0

     total cpu time spent up to now is       16.6 secs

     total energy              =    -501.48551070 Ry
     estimated scf accuracy    <       0.00644436 Ry

     iteration # 82     ecut=    30.00 Ry     beta= 0.50
     Davidson diagonalization with overlap
     ethr =  3.86E-07,  avg # of iterations =  2.0

     total cpu time spent up to now is       16.7 secs

     total energy              =    -501.48561166 Ry
     estimated scf accuracy    <       0.00625354 Ry

     iteration # 83     ecut=    30.00 Ry     beta= 0.50
     Davidson diagonalization with overlap
     ethr =  3.86E-07,  avg # of iterations =  1.0

     total cpu time spent up to now is       16.8 secs

     total energy              =    -501.48569800 Ry
     estimated scf accuracy    <       0.00647062 Ry

     iteration # 84     ecut=    30.00 Ry     beta= 0.50
     Davidson diagonalization with overlap
     ethr =  3.86E-07,  avg # of iterations =  1.0

     total cpu time spent up to now is       16.8 secs

     total energy              =    -501.48569661 Ry
     estimated scf accuracy    <       0.00672269 Ry

     iteration # 85     ecut=    30.00 Ry     beta= 0.50
     Davidson diagonalization with overlap
     ethr =  3.86E-07,  avg # of iterations =  1.0

     total cpu time spent up to now is       16.9 secs

     total energy              =    -501.48576386 Ry
     estimated scf accuracy    <       0.00671471 Ry

     iteration # 86     ecut=    30.00 Ry     beta= 0.50
     Davidson diagonalization with overlap
     ethr =  3.86E-07,  avg # of iterations =  1.0

     total cpu time spent up to now is       17.0 secs

     total energy              =    -501.48213540 Ry
     estimated scf accuracy    <       0.00699095 Ry

     iteration # 87     ecut=    30.00 Ry     beta= 0.50
     Davidson diagonalization with overlap
     c_bands:  1 eigenvalues not converged
     ethr =  3.86E-07,  avg # of iterations = 20.0

     total cpu time spent up to now is       17.2 secs

     total energy              =    -501.48489123 Ry
     estimated scf accuracy    <       0.10414726 Ry

     iteration # 88     ecut=    30.00 Ry     beta= 0.50
     Davidson diagonalization with overlap
     ethr =  3.86E-07,  avg # of iterations = 20.0

     total cpu time spent up to now is       17.4 secs

     total energy              =    -501.48684142 Ry
     estimated scf accuracy    <       0.02538637 Ry

     iteration # 89     ecut=    30.00 Ry     beta= 0.50
     Davidson diagonalization with overlap
     ethr =  3.86E-07,  avg # of iterations =  5.0

     total cpu time spent up to now is       17.5 secs

     total energy              =    -501.48667295 Ry
     estimated scf accuracy    <       0.01695253 Ry

     iteration # 90     ecut=    30.00 Ry     beta= 0.50
     Davidson diagonalization with overlap
     ethr =  3.86E-07,  avg # of iterations =  2.0

     total cpu time spent up to now is       17.6 secs

     total energy              =    -501.48592459 Ry
     estimated scf accuracy    <       0.01428144 Ry

     iteration # 91     ecut=    30.00 Ry     beta= 0.50
     Davidson diagonalization with overlap
     c_bands:  1 eigenvalues not converged
     ethr =  3.86E-07,  avg # of iterations = 20.0

     total cpu time spent up to now is       17.8 secs

     total energy              =    -501.48560254 Ry
     estimated scf accuracy    <       0.00669364 Ry

     iteration # 92     ecut=    30.00 Ry     beta= 0.50
     Davidson diagonalization with overlap
     c_bands:  1 eigenvalues not converged
     ethr =  3.86E-07,  avg # of iterations = 20.0

     total cpu time spent up to now is       18.0 secs

     total energy              =    -501.48563034 Ry
     estimated scf accuracy    <       0.00262347 Ry

     iteration # 93     ecut=    30.00 Ry     beta= 0.50
     Davidson diagonalization with overlap
     ethr =  3.86E-07,  avg # of iterations = 18.0

     total cpu time spent up to now is       18.1 secs

     total energy              =    -501.48564544 Ry
     estimated scf accuracy    <       0.00193409 Ry

     iteration # 94     ecut=    30.00 Ry     beta= 0.50
     Davidson diagonalization with overlap
     ethr =  3.86E-07,  avg # of iterations =  1.0

     total cpu time spent up to now is       18.2 secs

     total energy              =    -501.48562388 Ry
     estimated scf accuracy    <       0.00176107 Ry

     iteration # 95     ecut=    30.00 Ry     beta= 0.50
     Davidson diagonalization with overlap
     ethr =  3.86E-07,  avg # of iterations =  1.0

     total cpu time spent up to now is       18.3 secs

     total energy              =    -501.48535822 Ry
     estimated scf accuracy    <       0.00156714 Ry

     iteration # 96     ecut=    30.00 Ry     beta= 0.50
     Davidson diagonalization with overlap
     c_bands:  1 eigenvalues not converged
     ethr =  3.86E-07,  avg # of iterations = 20.0

     total cpu time spent up to now is       18.5 secs

     total energy              =    -501.48547217 Ry
     estimated scf accuracy    <       0.00291351 Ry

     iteration # 97     ecut=    30.00 Ry     beta= 0.50
     Davidson diagonalization with overlap
     ethr =  3.86E-07,  avg # of iterations =  3.0

     total cpu time spent up to now is       18.5 secs

     total energy              =    -501.48506333 Ry
     estimated scf accuracy    <       0.00172938 Ry

     iteration # 98     ecut=    30.00 Ry     beta= 0.50
     Davidson diagonalization with overlap
     c_bands:  1 eigenvalues not converged
     ethr =  3.86E-07,  avg # of iterations = 20.0

     total cpu time spent up to now is       18.7 secs

     total energy              =    -501.48520942 Ry
     estimated scf accuracy    <       0.00957557 Ry

     iteration # 99     ecut=    30.00 Ry     beta= 0.50
     Davidson diagonalization with overlap
     c_bands:  1 eigenvalues not converged
     ethr =  3.86E-07,  avg # of iterations = 20.0

     total cpu time spent up to now is       18.9 secs

     total energy              =    -501.48599497 Ry
     estimated scf accuracy    <       0.00691480 Ry

     iteration #100     ecut=    30.00 Ry     beta= 0.50
     Davidson diagonalization with overlap
     c_bands:  1 eigenvalues not converged
     ethr =  3.86E-07,  avg # of iterations = 20.0

     total cpu time spent up to now is       19.1 secs

     total energy              =    -501.48560465 Ry
     estimated scf accuracy    <       0.01477253 Ry

     End of self-consistent calculation

     convergence NOT achieved after 100 iterations: stopping

     Writing config to output data dir ./pwscf.save/
     Message from routine punch:
     wavefunctions written to file
 
     init_run     :      1.12s CPU      4.71s WALL (       1 calls)
     electrons    :     13.70s CPU     14.28s WALL (       1 calls)

     Called by init_run:
     wfcinit      :      0.57s CPU      4.00s WALL (       1 calls)
                                        4.00s GPU  (       1 calls)
     potinit      :      0.05s CPU      0.14s WALL (       1 calls)
     hinit0       :      0.47s CPU      0.50s WALL (       1 calls)

     Called by electrons:
     c_bands      :      9.34s CPU      9.59s WALL (     101 calls)
     sum_band     :      1.99s CPU      2.17s WALL (     101 calls)
     v_of_rho     :      0.88s CPU      1.02s WALL (     101 calls)
     mix_rho      :      1.18s CPU      1.22s WALL (     101 calls)

     Called by c_bands:
     init_us_2    :      0.36s CPU      0.37s WALL (     203 calls)
     init_us_2:gp :      0.35s CPU      0.36s WALL (     203 calls)
     regterg      :      8.51s CPU      8.73s WALL (     101 calls)

     Called by *egterg:
     rdiaghg      :      4.19s CPU      4.95s WALL (    1343 calls)
                                        4.76s GPU  (    1343 calls)
     h_psi        :      3.64s CPU      6.50s WALL (    1345 calls)
                                        6.48s GPU  (    1345 calls)
     g_psi        :      0.01s CPU      0.03s WALL (    1243 calls)
                                        0.02s GPU  (    1243 calls)

     Called by h_psi:
     h_psi:calbec :      0.90s CPU      3.61s WALL (    1345 calls)
                                        3.60s GPU  (    1345 calls)
     vloc_psi     :      1.87s CPU      2.03s WALL (    1345 calls)
                                        2.01s GPU  (    1345 calls)
     add_vuspsi   :      0.67s CPU      0.79s WALL (    1345 calls)
                                        0.78s GPU  (    1345 calls)

     General routines
     calbec       :      0.89s CPU      3.58s WALL (    1345 calls)
     fft          :      1.31s CPU      1.50s WALL (     809 calls)
                                        0.19s GPU  (     505 calls)
     ffts         :      0.27s CPU      0.30s WALL (     101 calls)
     fftw         :      2.18s CPU      2.68s WALL (   10682 calls)
                                        2.30s GPU  (   10682 calls)
     davcio       :      0.00s CPU      0.00s WALL (      19 calls)
 
     Parallel routines
 
     PWSCF        :     14.88s CPU     19.10s WALL

 
   This run was terminated on:  15:48:22   9May2023            

=------------------------------------------------------------------------------=
   JOB DONE.
=------------------------------------------------------------------------------=
