An instance of this daemon is already running

     Program PWSCF v.7.1 starts on  9May2023 at 15:40:33 

     This program is part of the open-source Quantum ESPRESSO suite
     for quantum simulation of materials; please cite
         "P. Giannozzi et al., J. Phys.:Condens. Matter 21 395502 (2009);
         "P. Giannozzi et al., J. Phys.:Condens. Matter 29 465901 (2017);
         "P. Giannozzi et al., J. Chem. Phys. 152 154105 (2020);
          URL http://www.quantum-espresso.org", 
     in publications or presentations arising from this work. More details at
     http://www.quantum-espresso.org/quote

     Parallel version (MPI & OpenMP), running on       4 processor cores
     Number of MPI processes:                 4
     Threads/MPI process:                     1

     MPI processes distributed on     1 nodes
     751743 MiB available memory on the printing compute node when the environment starts
 
     Reading input from pw-si-64.in
Warning: card &CELL ignored
Warning: card / ignored

     Current dimensions of program PWSCF are:
     Max number of different atomic species (ntypx) = 10
     Max number of k-points (npk) =  40000
     Max angular momentum in pseudopotentials (lmaxx) =  4

     IMPORTANT: XC functional enforced from input :
     Exchange-correlation= PBE
                           (   1   4   3   4   0   0   0)
     Any further DFT definition will be discarded
     Please, verify this is what you really want


     gamma-point specific algorithms are used
 
     K-points division:     npool     =       2
     R & G space division:  proc/nbgrp/npool/nimage =       2
     Subspace diagonalization in iterative solution of the eigenvalue problem:
     a serial algorithm will be used

     Message from routine divide_et_impera:
     suboptimal parallelization: some nodes have no k-points
 
     Parallelization info
     --------------------
     sticks:   dense  smooth     PW     G-vecs:    dense   smooth      PW
     Min        1908    1908    502                89172    89172   12102
     Max        1909    1909    503                89177    89177   12105
     Sum        3817    3817   1005               178349   178349   24207
 
     Using Slab Decomposition
 


     bravais-lattice index     =            0
     lattice parameter (alat)  =      20.0329  a.u.
     unit-cell volume          =    8039.6033 (a.u.)^3
     number of atoms/cell      =           64
     number of atomic types    =            1
     number of electrons       =       256.00
     number of Kohn-Sham states=          128
     kinetic-energy cutoff     =      30.0000  Ry
     charge density cutoff     =     120.0000  Ry
     scf convergence threshold =      1.0E-06
     mixing beta               =       0.5000
     number of iterations used =            8  plain     mixing
     Exchange-correlation= PBE
                           (   1   4   3   4   0   0   0)

     GPU acceleration is ACTIVE.
     GPU-aware MPI enabled

     Message from routine print_cuda_info:
     High GPU oversubscription detected. Are you sure this is what you want?

     celldm(1)=  20.032948  celldm(2)=   0.000000  celldm(3)=   0.000000
     celldm(4)=   0.000000  celldm(5)=   0.000000  celldm(6)=   0.000000

     crystal axes: (cart. coord. in units of alat)
               a(1) = (   1.000000   0.000000   0.000000 )  
               a(2) = (   0.000000   1.000000   0.000000 )  
               a(3) = (   0.000000   0.000000   1.000000 )  

     reciprocal axes: (cart. coord. in units 2 pi/alat)
               b(1) = (  1.000000  0.000000  0.000000 )  
               b(2) = (  0.000000  1.000000  0.000000 )  
               b(3) = (  0.000000  0.000000  1.000000 )  


     PseudoPot. # 1 for Si read from file:
     /home/ppiaggi/pseudos/Si_ONCV_PBE_sr.upf
     MD5 check sum: 8553c464762ac42b85b1eed164b4d029
     Pseudo is Norm-conserving, Zval =  4.0
     Generated using ONCVPSP code by D. R. Hamann
     Using radial grid of 1510 points,  4 beta functions with: 
                l(1) =   0
                l(2) =   0
                l(3) =   1
                l(4) =   1

     atomic species   valence    mass     pseudopotential
        Si             4.00    28.08500     Si( 1.00)

     No symmetry found



   Cartesian axes

     site n.     atom                  positions (alat units)
         1           Si  tau(   1) = (   0.7339900   0.0397088   0.7954770  )
         2           Si  tau(   2) = (   0.8625590   0.7717760   0.8225520  )
         3           Si  tau(   3) = (   0.6167400   0.2446660   0.4618530  )
         4           Si  tau(   4) = (   0.9355840   0.0191271   0.2388970  )
         5           Si  tau(   5) = (   0.7126160   0.5837080   0.7349660  )
         6           Si  tau(   6) = (   0.9637900   0.8216390   0.3571170  )
         7           Si  tau(   7) = (   0.9322720   0.6431500   0.1787440  )
         8           Si  tau(   8) = (   0.7079850   0.7851770   0.2412180  )
         9           Si  tau(   9) = (   0.4124850   0.5935260   0.1249760  )
        10           Si  tau(  10) = (   0.8844280   0.2781120   0.8415410  )
        11           Si  tau(  11) = (   0.5411150   0.1535790   0.7836770  )
        12           Si  tau(  12) = (   0.1720610   0.3561460   0.0512697  )
        13           Si  tau(  13) = (   0.4302930   0.3264850   0.1213430  )
        14           Si  tau(  14) = (   0.1518870   0.5771610   0.8616310  )
        15           Si  tau(  15) = (   0.4833250   0.1364310   0.0070865  )
        16           Si  tau(  16) = (   0.0558048   0.9594760   0.5433840  )
        17           Si  tau(  17) = (   0.3261480   0.2004820   0.2950560  )
        18           Si  tau(  18) = (   0.7244030   0.5787590   0.9934720  )
        19           Si  tau(  19) = (   0.3321630   0.9758350   0.5201470  )
        20           Si  tau(  20) = (   0.1195310   0.1410660   0.9742410  )
        21           Si  tau(  21) = (   0.6704150   0.0697199   0.1373600  )
        22           Si  tau(  22) = (   0.8654220   0.7414130   0.5143950  )
        23           Si  tau(  23) = (   0.1059630   0.8310720   0.0814975  )
        24           Si  tau(  24) = (   0.2725010   0.8939670   0.2643170  )
        25           Si  tau(  25) = (   0.3922550   0.1921930   0.5556040  )
        26           Si  tau(  26) = (   0.4861610   0.8247360   0.5641540  )
        27           Si  tau(  27) = (   0.0321918   0.4234260   0.5841040  )
        28           Si  tau(  28) = (   0.1120000   0.6399320   0.5583880  )
        29           Si  tau(  29) = (   0.7447200   0.5385180   0.4808240  )
        30           Si  tau(  30) = (   0.2767400   0.4559770   0.3211930  )
        31           Si  tau(  31) = (   0.4868610   0.5312200   0.9163160  )
        32           Si  tau(  32) = (   0.1808480   0.5789730   0.1500910  )
        33           Si  tau(  33) = (   0.7157960   0.8561610   0.6359920  )
        34           Si  tau(  34) = (   0.1103500   0.1232630   0.7481130  )
        35           Si  tau(  35) = (   0.2932470   0.3859240   0.8490210  )
        36           Si  tau(  36) = (   0.5829010   0.5998500   0.3050300  )
        37           Si  tau(  37) = (   0.8031360   0.3581300   0.5962890  )
        38           Si  tau(  38) = (   0.4986410   0.0037999   0.3166580  )
        39           Si  tau(  39) = (   0.3022450   0.6072540   0.6536660  )
        40           Si  tau(  40) = (   0.4731120   0.4699020   0.5442090  )
        41           Si  tau(  41) = (   0.3241170   0.0136734   0.7703130  )
        42           Si  tau(  42) = (   0.6228840   0.8318700   0.9196340  )
        43           Si  tau(  43) = (   0.8164930   0.1652190   0.3890070  )
        44           Si  tau(  44) = (   0.9448560   0.5079300   0.8225290  )
        45           Si  tau(  45) = (   0.2235390   0.8288190   0.8858120  )
        46           Si  tau(  46) = (   0.9536580   0.4112910   0.0392162  )
        47           Si  tau(  47) = (   0.6683140   0.3616320   0.9911240  )
        48           Si  tau(  48) = (   0.3112010   0.0252003   0.0577298  )
        49           Si  tau(  49) = (   0.6978990   0.9549160   0.4196210  )
        50           Si  tau(  50) = (   0.1216570   0.1035470   0.3738490  )
        51           Si  tau(  51) = (   0.8667720   0.0661371   0.9758370  )
        52           Si  tau(  52) = (   0.7655610   0.2978960   0.1866890  )
        53           Si  tau(  53) = (   0.8488610   0.8514170   0.0528129  )
        54           Si  tau(  54) = (   0.8858730   0.0983956   0.6212200  )
        55           Si  tau(  55) = (   0.5842990   0.3845850   0.7257010  )
        56           Si  tau(  56) = (   0.5676390   0.3721190   0.2840530  )
        57           Si  tau(  57) = (   0.0640477   0.3472960   0.3594750  )
        58           Si  tau(  58) = (   0.4272450   0.6811270   0.4391270  )
        59           Si  tau(  59) = (   0.1967740   0.7102670   0.3438260  )
        60           Si  tau(  60) = (   0.2099380   0.2994840   0.6721020  )
        61           Si  tau(  61) = (   0.8556770   0.4816830   0.2998680  )
        62           Si  tau(  62) = (   0.4317080   0.7212620   0.8127820  )
        63           Si  tau(  63) = (   0.0561491   0.7947340   0.7098270  )
        64           Si  tau(  64) = (   0.4823800   0.8369760   0.1398710  )

     number of k points=     1
                       cart. coord. in units 2pi/alat
        k(    1) = (   0.0000000   0.0000000   0.0000000), wk =   2.0000000

     Dense  grid:    89175 G-vectors     FFT dimensions: (  72,  72,  72)

     Estimated max dynamical RAM per process >     131.64 MB

     Estimated total dynamical RAM >     504.79 MB

     Initial potential from superposition of free atoms

     starting charge     255.9608, renormalised to     256.0000
     Starting wfcs are  256 randomized atomic wfcs

     total cpu time spent up to now is        4.8 secs

     Self-consistent Calculation

     iteration #  1     ecut=    30.00 Ry     beta= 0.50
     Davidson diagonalization with overlap
     ethr =  1.00E-02,  avg # of iterations =  2.0

     Threshold (ethr) on eigenvalues was too large:
     Diagonalizing with lowered threshold

     Davidson diagonalization with overlap
     ethr =  3.58E-04,  avg # of iterations =  6.0

     total cpu time spent up to now is        5.1 secs

     total energy              =    -501.08462680 Ry
     estimated scf accuracy    <       1.19444277 Ry

     iteration #  2     ecut=    30.00 Ry     beta= 0.50
     Davidson diagonalization with overlap
     ethr =  4.67E-04,  avg # of iterations = 11.0

     total cpu time spent up to now is        5.2 secs

     total energy              =    -500.75449469 Ry
     estimated scf accuracy    <       4.15867190 Ry

     iteration #  3     ecut=    30.00 Ry     beta= 0.50
     Davidson diagonalization with overlap
     ethr =  4.67E-04,  avg # of iterations = 10.0

     total cpu time spent up to now is        5.3 secs

     total energy              =    -501.20048215 Ry
     estimated scf accuracy    <       1.13638275 Ry

     iteration #  4     ecut=    30.00 Ry     beta= 0.50
     Davidson diagonalization with overlap
     ethr =  4.44E-04,  avg # of iterations =  6.0

     total cpu time spent up to now is        5.4 secs

     total energy              =    -501.30617784 Ry
     estimated scf accuracy    <       0.32819004 Ry

     iteration #  5     ecut=    30.00 Ry     beta= 0.50
     Davidson diagonalization with overlap
     ethr =  1.28E-04,  avg # of iterations =  5.0

     total cpu time spent up to now is        5.6 secs

     total energy              =    -501.33454074 Ry
     estimated scf accuracy    <       0.10598436 Ry

     iteration #  6     ecut=    30.00 Ry     beta= 0.50
     Davidson diagonalization with overlap
     ethr =  4.14E-05,  avg # of iterations = 11.0

     total cpu time spent up to now is        5.7 secs

     total energy              =    -501.34638188 Ry
     estimated scf accuracy    <       0.10800696 Ry

     iteration #  7     ecut=    30.00 Ry     beta= 0.50
     Davidson diagonalization with overlap
     ethr =  4.14E-05,  avg # of iterations = 10.0

     total cpu time spent up to now is        5.8 secs

     total energy              =    -501.35446507 Ry
     estimated scf accuracy    <       0.01082501 Ry

     iteration #  8     ecut=    30.00 Ry     beta= 0.50
     Davidson diagonalization with overlap
     ethr =  4.23E-06,  avg # of iterations = 13.0

     total cpu time spent up to now is        6.0 secs

     total energy              =    -501.35688681 Ry
     estimated scf accuracy    <       0.02502613 Ry

     iteration #  9     ecut=    30.00 Ry     beta= 0.50
     Davidson diagonalization with overlap
     ethr =  4.23E-06,  avg # of iterations = 10.0

     total cpu time spent up to now is        6.1 secs

     total energy              =    -501.35752744 Ry
     estimated scf accuracy    <       0.00841272 Ry

     iteration # 10     ecut=    30.00 Ry     beta= 0.50
     Davidson diagonalization with overlap
     ethr =  3.29E-06,  avg # of iterations =  3.0

     total cpu time spent up to now is        6.2 secs

     total energy              =    -501.35777832 Ry
     estimated scf accuracy    <       0.00234873 Ry

     iteration # 11     ecut=    30.00 Ry     beta= 0.50
     Davidson diagonalization with overlap
     ethr =  9.17E-07,  avg # of iterations = 10.0

     total cpu time spent up to now is        6.3 secs

     total energy              =    -501.35823907 Ry
     estimated scf accuracy    <       0.00189935 Ry

     iteration # 12     ecut=    30.00 Ry     beta= 0.50
     Davidson diagonalization with overlap
     ethr =  7.42E-07,  avg # of iterations =  2.0

     total cpu time spent up to now is        6.4 secs

     total energy              =    -501.35815379 Ry
     estimated scf accuracy    <       0.00138461 Ry

     iteration # 13     ecut=    30.00 Ry     beta= 0.50
     Davidson diagonalization with overlap
     ethr =  5.41E-07,  avg # of iterations =  7.0

     total cpu time spent up to now is        6.5 secs

     total energy              =    -501.35819609 Ry
     estimated scf accuracy    <       0.00034185 Ry

     iteration # 14     ecut=    30.00 Ry     beta= 0.50
     Davidson diagonalization with overlap
     ethr =  1.34E-07,  avg # of iterations =  9.0

     total cpu time spent up to now is        6.7 secs

     total energy              =    -501.35824856 Ry
     estimated scf accuracy    <       0.00010705 Ry

     iteration # 15     ecut=    30.00 Ry     beta= 0.50
     Davidson diagonalization with overlap
     ethr =  4.18E-08,  avg # of iterations = 13.0

     total cpu time spent up to now is        6.8 secs

     total energy              =    -501.35825326 Ry
     estimated scf accuracy    <       0.00009901 Ry

     iteration # 16     ecut=    30.00 Ry     beta= 0.50
     Davidson diagonalization with overlap
     ethr =  3.87E-08,  avg # of iterations =  2.0

     total cpu time spent up to now is        6.9 secs

     total energy              =    -501.35825343 Ry
     estimated scf accuracy    <       0.00004147 Ry

     iteration # 17     ecut=    30.00 Ry     beta= 0.50
     Davidson diagonalization with overlap
     ethr =  1.62E-08,  avg # of iterations = 13.0

     total cpu time spent up to now is        7.0 secs

     total energy              =    -501.35825757 Ry
     estimated scf accuracy    <       0.00000392 Ry

     iteration # 18     ecut=    30.00 Ry     beta= 0.50
     Davidson diagonalization with overlap
     ethr =  1.53E-09,  avg # of iterations = 13.0

     total cpu time spent up to now is        7.2 secs

     total energy              =    -501.35825873 Ry
     estimated scf accuracy    <       0.00000651 Ry

     iteration # 19     ecut=    30.00 Ry     beta= 0.50
     Davidson diagonalization with overlap
     ethr =  1.53E-09,  avg # of iterations =  3.0

     total cpu time spent up to now is        7.3 secs

     total energy              =    -501.35825897 Ry
     estimated scf accuracy    <       0.00000194 Ry

     iteration # 20     ecut=    30.00 Ry     beta= 0.50
     Davidson diagonalization with overlap
     ethr =  7.59E-10,  avg # of iterations =  7.0

     total cpu time spent up to now is        7.4 secs

     End of self-consistent calculation

          k = 0.0000 0.0000 0.0000 ( 11072 PWs)   bands (ev):

    -5.2457  -4.2431  -4.2085  -4.1487  -4.0237  -3.8650  -3.7193  -3.2312
    -3.1265  -3.0803  -3.0184  -2.9415  -2.9226  -2.8403  -2.6647  -2.6371
    -2.5738  -2.3754  -2.2707  -1.9500  -1.8912  -1.7392  -1.6742  -1.5830
    -1.4620  -1.3402  -1.1607  -0.7625  -0.6700  -0.4425  -0.3878  -0.2891
    -0.1260  -0.0055   0.0364   0.1934   0.2820   0.3209   0.4075   0.4734
     0.5331   0.5717   0.7131   0.7349   0.8006   0.9417   1.0537   1.1471
     1.2604   1.3091   1.3349   1.3946   1.4890   1.5907   1.7184   1.7632
     1.8715   2.0438   2.1907   2.2260   2.3148   2.3587   2.4520   2.5134
     2.5734   2.7409   2.7969   2.8838   2.9297   3.0430   3.1154   3.1488
     3.1966   3.2832   3.3408   3.3849   3.4920   3.5416   3.6213   3.6382
     4.0154   4.2454   4.3337   4.5106   4.6008   4.6304   4.7948   4.8811
     4.8916   4.9908   5.0588   5.1441   5.2692   5.2803   5.3513   5.4634
     5.4865   5.5276   5.5978   5.6312   5.7193   5.7614   5.8214   5.8801
     5.9128   5.9934   6.0247   6.0842   6.1512   6.1638   6.2072   6.2703
     6.3479   6.4457   6.4954   6.5558   6.5901   6.6849   6.6989   6.7382
     6.8062   6.8546   6.8613   6.9645   7.0181   7.1109   7.1425   7.2204

     highest occupied level (ev):     7.2204

!    total energy              =    -501.35825866 Ry
     estimated scf accuracy    <       0.00000060 Ry

     The total energy is the sum of the following terms:
     one-electron contribution =     197.35768331 Ry
     hartree contribution      =      20.89212435 Ry
     xc contribution           =    -150.88212234 Ry
     ewald contribution        =    -568.72594398 Ry

     convergence has been achieved in  20 iterations

     Forces acting on atoms (cartesian axes, Ry/au):

     atom    1 type  1   force =    -0.00082542   -0.04152231   -0.03293720
     atom    2 type  1   force =    -0.02103471   -0.02212644    0.00706134
     atom    3 type  1   force =    -0.03298278    0.01941255    0.03772285
     atom    4 type  1   force =     0.01821690   -0.01743084    0.01636096
     atom    5 type  1   force =     0.00660930    0.00305508    0.00317615
     atom    6 type  1   force =     0.06540177    0.03166349   -0.08173620
     atom    7 type  1   force =     0.02032508    0.02473855   -0.03010912
     atom    8 type  1   force =    -0.00459227    0.01584088   -0.01591340
     atom    9 type  1   force =    -0.00015632    0.00971976    0.00805527
     atom   10 type  1   force =    -0.00399900   -0.00744877    0.02288750
     atom   11 type  1   force =    -0.03624412    0.03536004    0.00800308
     atom   12 type  1   force =     0.02311443    0.00091898   -0.01025187
     atom   13 type  1   force =    -0.03324659   -0.00749522   -0.00389398
     atom   14 type  1   force =     0.02181604    0.00688846   -0.00388506
     atom   15 type  1   force =     0.07742455    0.04865541   -0.03295367
     atom   16 type  1   force =     0.00199510    0.00648596    0.00227106
     atom   17 type  1   force =     0.00971931   -0.00836547    0.02813189
     atom   18 type  1   force =    -0.00401244    0.03396465   -0.01965732
     atom   19 type  1   force =    -0.02426353    0.00868276    0.00769893
     atom   20 type  1   force =    -0.04331676    0.00352113   -0.00030476
     atom   21 type  1   force =    -0.00100880    0.01089147   -0.00572796
     atom   22 type  1   force =    -0.04112366   -0.06040169    0.06281078
     atom   23 type  1   force =    -0.00684232   -0.00123257    0.01640658
     atom   24 type  1   force =     0.00826175    0.04087142   -0.02835448
     atom   25 type  1   force =     0.00749577    0.01784627   -0.00856291
     atom   26 type  1   force =     0.06530026    0.06778695    0.09855854
     atom   27 type  1   force =     0.02978978    0.00507149   -0.02480690
     atom   28 type  1   force =    -0.03537817   -0.01290738   -0.03155985
     atom   29 type  1   force =    -0.02257208    0.05269776    0.01375290
     atom   30 type  1   force =    -0.00023750   -0.01162805   -0.01900080
     atom   31 type  1   force =     0.00883706   -0.03432924    0.00208357
     atom   32 type  1   force =    -0.00353398    0.00218527    0.00029669
     atom   33 type  1   force =    -0.02284640    0.02223909   -0.00264483
     atom   34 type  1   force =    -0.00116998   -0.01242995    0.00868014
     atom   35 type  1   force =     0.03308359    0.05460960    0.05363398
     atom   36 type  1   force =     0.00816325   -0.00244466   -0.00758534
     atom   37 type  1   force =    -0.02472457   -0.02908441    0.03195122
     atom   38 type  1   force =     0.00418248   -0.00205976   -0.01433958
     atom   39 type  1   force =     0.05111109   -0.03084702    0.00278868
     atom   40 type  1   force =    -0.01062925   -0.00400844   -0.00232042
     atom   41 type  1   force =    -0.02362822   -0.01160919   -0.01901743
     atom   42 type  1   force =    -0.00223288   -0.01114863    0.01436294
     atom   43 type  1   force =     0.02481251   -0.01800917    0.00764845
     atom   44 type  1   force =    -0.02488238    0.00164617   -0.00245221
     atom   45 type  1   force =     0.01994066   -0.01076361   -0.02271176
     atom   46 type  1   force =    -0.02753654    0.01623778   -0.00673849
     atom   47 type  1   force =    -0.00193703   -0.01590626   -0.03634186
     atom   48 type  1   force =    -0.06578509   -0.05531025    0.01549838
     atom   49 type  1   force =    -0.00430988   -0.00931144   -0.00519635
     atom   50 type  1   force =    -0.01682503    0.02067642   -0.02735950
     atom   51 type  1   force =     0.02604721    0.01404625    0.01716729
     atom   52 type  1   force =    -0.00295697    0.00527049    0.00881897
     atom   53 type  1   force =     0.01708318   -0.00743544    0.01428999
     atom   54 type  1   force =     0.01311656    0.01456539    0.00278726
     atom   55 type  1   force =     0.01544836   -0.02168444    0.00453251
     atom   56 type  1   force =     0.02201290    0.01148954    0.01431567
     atom   57 type  1   force =    -0.02094093   -0.00415648    0.03647608
     atom   58 type  1   force =    -0.06395506   -0.09664408   -0.04932069
     atom   59 type  1   force =    -0.02869789   -0.03027073    0.04969496
     atom   60 type  1   force =    -0.00081444   -0.00822730   -0.04931071
     atom   61 type  1   force =     0.03183981   -0.05593920   -0.00867659
     atom   62 type  1   force =    -0.00058270    0.04286973   -0.00866218
     atom   63 type  1   force =     0.00907508    0.01233718    0.00515279
     atom   64 type  1   force =     0.01960193   -0.00006759   -0.01074397

     Total force =     0.385519     Total SCF correction =     0.001537


     Computing stress (Cartesian axis) and pressure

          total   stress  (Ry/bohr**3)                   (kbar)     P=      -33.74
  -0.00034890   0.00002301   0.00001176          -51.33        3.39        1.73
   0.00002301  -0.00013695  -0.00002666            3.39      -20.15       -3.92
   0.00001176  -0.00002666  -0.00020219            1.73       -3.92      -29.74

 
     init_run     :      1.12s CPU      4.73s WALL (       1 calls)
     electrons    :      2.46s CPU      2.60s WALL (       1 calls)
     forces       :      0.04s CPU      0.04s WALL (       1 calls)
     stress       :      0.13s CPU      0.14s WALL (       1 calls)

     Called by init_run:
     wfcinit      :      0.58s CPU      4.01s WALL (       1 calls)
                                        4.01s GPU  (       1 calls)
     potinit      :      0.05s CPU      0.14s WALL (       1 calls)
     hinit0       :      0.47s CPU      0.50s WALL (       1 calls)

     Called by electrons:
     c_bands      :      1.60s CPU      1.67s WALL (      21 calls)
     sum_band     :      0.41s CPU      0.45s WALL (      21 calls)
     v_of_rho     :      0.20s CPU      0.30s WALL (      21 calls)
     mix_rho      :      0.20s CPU      0.21s WALL (      21 calls)

     Called by c_bands:
     init_us_2    :      0.07s CPU      0.08s WALL (      43 calls)
     init_us_2:gp :      0.07s CPU      0.08s WALL (      43 calls)
     regterg      :      1.43s CPU      1.49s WALL (      21 calls)

     Called by *egterg:
     rdiaghg      :      0.72s CPU      1.45s WALL (     186 calls)
                                        1.41s GPU  (     186 calls)
     h_psi        :      1.05s CPU      3.81s WALL (     188 calls)
                                        3.80s GPU  (     188 calls)
     g_psi        :      0.00s CPU      0.00s WALL (     166 calls)
                                        0.00s GPU  (     166 calls)

     Called by h_psi:
     h_psi:calbec :      0.55s CPU      3.23s WALL (     188 calls)
                                        3.23s GPU  (     188 calls)
     vloc_psi     :      0.39s CPU      0.47s WALL (     188 calls)
                                        0.46s GPU  (     188 calls)
     add_vuspsi   :      0.08s CPU      0.10s WALL (     188 calls)
                                        0.10s GPU  (     188 calls)

     General routines
     calbec       :      0.56s CPU      3.23s WALL (     193 calls)
     fft          :      0.65s CPU      0.78s WALL (     175 calls)
                                        0.13s GPU  (     111 calls)
     ffts         :      0.05s CPU      0.06s WALL (      21 calls)
     fftw         :      0.46s CPU      0.61s WALL (    2046 calls)
                                        0.53s GPU  (    2046 calls)
 
     Parallel routines
 
     PWSCF        :      3.80s CPU      7.59s WALL

 
   This run was terminated on:  15:40:41   9May2023            

=------------------------------------------------------------------------------=
   JOB DONE.
=------------------------------------------------------------------------------=
