An instance of this daemon is already running

     Program PWSCF v.7.1 starts on  9May2023 at 15:48:24 

     This program is part of the open-source Quantum ESPRESSO suite
     for quantum simulation of materials; please cite
         "P. Giannozzi et al., J. Phys.:Condens. Matter 21 395502 (2009);
         "P. Giannozzi et al., J. Phys.:Condens. Matter 29 465901 (2017);
         "P. Giannozzi et al., J. Chem. Phys. 152 154105 (2020);
          URL http://www.quantum-espresso.org", 
     in publications or presentations arising from this work. More details at
     http://www.quantum-espresso.org/quote

     Parallel version (MPI & OpenMP), running on       4 processor cores
     Number of MPI processes:                 4
     Threads/MPI process:                     1

     MPI processes distributed on     1 nodes
     751723 MiB available memory on the printing compute node when the environment starts
 
     Reading input from pw-si-100.in
Warning: card &CELL ignored
Warning: card / ignored

     Current dimensions of program PWSCF are:
     Max number of different atomic species (ntypx) = 10
     Max number of k-points (npk) =  40000
     Max angular momentum in pseudopotentials (lmaxx) =  4

     IMPORTANT: XC functional enforced from input :
     Exchange-correlation= PBE
                           (   1   4   3   4   0   0   0)
     Any further DFT definition will be discarded
     Please, verify this is what you really want


     gamma-point specific algorithms are used
 
     K-points division:     npool     =       2
     R & G space division:  proc/nbgrp/npool/nimage =       2
     Subspace diagonalization in iterative solution of the eigenvalue problem:
     a serial algorithm will be used

     Message from routine divide_et_impera:
     suboptimal parallelization: some nodes have no k-points
 
     Parallelization info
     --------------------
     sticks:   dense  smooth     PW     G-vecs:    dense   smooth      PW
     Min        1933    1933    515                90543    90543   12286
     Max        1936    1936    518                90548    90548   12287
     Sum        3869    3869   1033               181091   181091   24573
 
     Using Slab Decomposition
 


     bravais-lattice index     =            0
     lattice parameter (alat)  =      20.1348  a.u.
     unit-cell volume          =    8162.8996 (a.u.)^3
     number of atoms/cell      =           64
     number of atomic types    =            1
     number of electrons       =       256.00
     number of Kohn-Sham states=          128
     kinetic-energy cutoff     =      30.0000  Ry
     charge density cutoff     =     120.0000  Ry
     scf convergence threshold =      1.0E-06
     mixing beta               =       0.5000
     number of iterations used =            8  plain     mixing
     Exchange-correlation= PBE
                           (   1   4   3   4   0   0   0)

     GPU acceleration is ACTIVE.
     GPU-aware MPI enabled

     Message from routine print_cuda_info:
     High GPU oversubscription detected. Are you sure this is what you want?

     celldm(1)=  20.134839  celldm(2)=   0.000000  celldm(3)=   0.000000
     celldm(4)=   0.000000  celldm(5)=   0.000000  celldm(6)=   0.000000

     crystal axes: (cart. coord. in units of alat)
               a(1) = (   1.000000   0.000000   0.000000 )  
               a(2) = (   0.000000   1.000000   0.000000 )  
               a(3) = (   0.000000   0.000000   1.000000 )  

     reciprocal axes: (cart. coord. in units 2 pi/alat)
               b(1) = (  1.000000  0.000000  0.000000 )  
               b(2) = (  0.000000  1.000000  0.000000 )  
               b(3) = (  0.000000  0.000000  1.000000 )  


     PseudoPot. # 1 for Si read from file:
     /home/ppiaggi/pseudos/Si_ONCV_PBE_sr.upf
     MD5 check sum: 8553c464762ac42b85b1eed164b4d029
     Pseudo is Norm-conserving, Zval =  4.0
     Generated using ONCVPSP code by D. R. Hamann
     Using radial grid of 1510 points,  4 beta functions with: 
                l(1) =   0
                l(2) =   0
                l(3) =   1
                l(4) =   1

     atomic species   valence    mass     pseudopotential
        Si             4.00    28.08500     Si( 1.00)

     No symmetry found



   Cartesian axes

     site n.     atom                  positions (alat units)
         1           Si  tau(   1) = (   0.0716565   0.2130970   0.6267110  )
         2           Si  tau(   2) = (   0.1351870   0.1072930   0.2734910  )
         3           Si  tau(   3) = (   0.8886430   0.0910982   0.6302770  )
         4           Si  tau(   4) = (   0.3742930   0.7954130   0.0156807  )
         5           Si  tau(   5) = (   0.7230660   0.0395737   0.8465850  )
         6           Si  tau(   6) = (   0.3612620   0.3691460   0.3372570  )
         7           Si  tau(   7) = (   0.2131710   0.9584160   0.8790590  )
         8           Si  tau(   8) = (   0.4347460   0.1110520   0.0684177  )
         9           Si  tau(   9) = (   0.5339990   0.7328160   0.8151330  )
        10           Si  tau(  10) = (   0.1380730   0.3452410   0.4410880  )
        11           Si  tau(  11) = (   0.4205570   0.6665800   0.6045570  )
        12           Si  tau(  12) = (   0.8273230   0.5099380   0.2746880  )
        13           Si  tau(  13) = (   0.6273690   0.4946530   0.8301190  )
        14           Si  tau(  14) = (   0.5311160   0.1033240   0.3151570  )
        15           Si  tau(  15) = (   0.2227360   0.0122523   0.6421540  )
        16           Si  tau(  16) = (   0.4543040   0.8949350   0.6574340  )
        17           Si  tau(  17) = (   0.5399240   0.5753950   0.1479510  )
        18           Si  tau(  18) = (   0.2375080   0.3617260   0.8315550  )
        19           Si  tau(  19) = (   0.6856490   0.5069220   0.6089580  )
        20           Si  tau(  20) = (   0.0844090   0.2559120   0.1008790  )
        21           Si  tau(  21) = (   0.5702140   0.9017660   0.4666800  )
        22           Si  tau(  22) = (   0.0029311   0.0247058   0.8571740  )
        23           Si  tau(  23) = (   0.5969940   0.9119190   0.0149140  )
        24           Si  tau(  24) = (   0.7413640   0.6735980   0.0099505  )
        25           Si  tau(  25) = (   0.9166260   0.4846990   0.5785410  )
        26           Si  tau(  26) = (   0.0436746   0.4499870   0.2540090  )
        27           Si  tau(  27) = (   0.7245930   0.7258230   0.2173080  )
        28           Si  tau(  28) = (   0.3022110   0.2954550   0.1313990  )
        29           Si  tau(  29) = (   0.2945110   0.1106510   0.4379640  )
        30           Si  tau(  30) = (   0.1662500   0.4884750   0.6265070  )
        31           Si  tau(  31) = (   0.5595410   0.3071160   0.9271900  )
        32           Si  tau(  32) = (   0.0272167   0.5406800   0.8758380  )
        33           Si  tau(  33) = (   0.2180190   0.7382850   0.7547950  )
        34           Si  tau(  34) = (   0.8753010   0.6861090   0.4553440  )
        35           Si  tau(  35) = (   0.8642960   0.2929290   0.4158010  )
        36           Si  tau(  36) = (   0.2136970   0.7449630   0.5141150  )
        37           Si  tau(  37) = (   0.0797129   0.6708500   0.1407310  )
        38           Si  tau(  38) = (   0.7284200   0.2979080   0.0646549  )
        39           Si  tau(  39) = (   0.5025070   0.2660650   0.5259250  )
        40           Si  tau(  40) = (   0.0197017   0.8230110   0.3462960  )
        41           Si  tau(  41) = (   0.7937460   0.8857450   0.5514020  )
        42           Si  tau(  42) = (   0.6132380   0.6350410   0.4498710  )
        43           Si  tau(  43) = (   0.5741610   0.4402870   0.3431070  )
        44           Si  tau(  44) = (   0.8579280   0.1004050   0.0538523  )
        45           Si  tau(  45) = (   0.9183750   0.0547780   0.3605040  )
        46           Si  tau(  46) = (   0.7264010   0.9672900   0.2417280  )
        47           Si  tau(  47) = (   0.2565890   0.6017030   0.3490320  )
        48           Si  tau(  48) = (   0.4078650   0.7207900   0.2195850  )
        49           Si  tau(  49) = (   0.4075320   0.4233030   0.6687120  )
        50           Si  tau(  50) = (   0.8691920   0.3700750   0.8196960  )
        51           Si  tau(  51) = (   0.5214770   0.1181300   0.7135700  )
        52           Si  tau(  52) = (   0.7338500   0.2581410   0.6322400  )
        53           Si  tau(  53) = (   0.0257063   0.9021050   0.1098450  )
        54           Si  tau(  54) = (   0.3253800   0.1548330   0.8545070  )
        55           Si  tau(  55) = (   0.2156270   0.6060990   0.9779310  )
        56           Si  tau(  56) = (   0.3747080   0.4435480   0.0100936  )
        57           Si  tau(  57) = (   0.9174870   0.7757200   0.9245990  )
        58           Si  tau(  58) = (   0.9873680   0.7209670   0.7016480  )
        59           Si  tau(  59) = (   0.3652690   0.8887360   0.3685920  )
        60           Si  tau(  60) = (   0.0417356   0.2514010   0.8745550  )
        61           Si  tau(  61) = (   0.2587700   0.9613490   0.1368830  )
        62           Si  tau(  62) = (   0.6899250   0.2789840   0.2681190  )
        63           Si  tau(  63) = (   0.7529780   0.8357530   0.7657250  )
        64           Si  tau(  64) = (   0.8441460   0.4839590   0.0598094  )

     number of k points=     1
                       cart. coord. in units 2pi/alat
        k(    1) = (   0.0000000   0.0000000   0.0000000), wk =   2.0000000

     Dense  grid:    90546 G-vectors     FFT dimensions: (  72,  72,  72)

     Estimated max dynamical RAM per process >     133.42 MB

     Estimated total dynamical RAM >     511.56 MB

     Initial potential from superposition of free atoms

     starting charge     255.9608, renormalised to     256.0000
     Starting wfcs are  256 randomized atomic wfcs

     total cpu time spent up to now is        5.0 secs

     Self-consistent Calculation

     iteration #  1     ecut=    30.00 Ry     beta= 0.50
     Davidson diagonalization with overlap
     ethr =  1.00E-02,  avg # of iterations =  2.0

     Threshold (ethr) on eigenvalues was too large:
     Diagonalizing with lowered threshold

     Davidson diagonalization with overlap
     ethr =  3.89E-04,  avg # of iterations =  6.0

     total cpu time spent up to now is        5.2 secs

     total energy              =    -501.01836745 Ry
     estimated scf accuracy    <       1.30473045 Ry

     iteration #  2     ecut=    30.00 Ry     beta= 0.50
     Davidson diagonalization with overlap
     ethr =  5.10E-04,  avg # of iterations = 12.0

     total cpu time spent up to now is        5.4 secs

     total energy              =    -500.50715004 Ry
     estimated scf accuracy    <       6.84565651 Ry

     iteration #  3     ecut=    30.00 Ry     beta= 0.50
     Davidson diagonalization with overlap
     ethr =  5.10E-04,  avg # of iterations = 11.0

     total cpu time spent up to now is        5.6 secs

     total energy              =    -501.15000490 Ry
     estimated scf accuracy    <       1.59101525 Ry

     iteration #  4     ecut=    30.00 Ry     beta= 0.50
     Davidson diagonalization with overlap
     ethr =  5.10E-04,  avg # of iterations =  8.0

     total cpu time spent up to now is        5.7 secs

     total energy              =    -501.30838474 Ry
     estimated scf accuracy    <       0.28146807 Ry

     iteration #  5     ecut=    30.00 Ry     beta= 0.50
     Davidson diagonalization with overlap
     ethr =  1.10E-04,  avg # of iterations = 12.0

     total cpu time spent up to now is        5.8 secs

     total energy              =    -501.32401191 Ry
     estimated scf accuracy    <       0.35406042 Ry

     iteration #  6     ecut=    30.00 Ry     beta= 0.50
     Davidson diagonalization with overlap
     ethr =  1.10E-04,  avg # of iterations =  7.0

     total cpu time spent up to now is        5.9 secs

     total energy              =    -501.35321212 Ry
     estimated scf accuracy    <       0.07164806 Ry

     iteration #  7     ecut=    30.00 Ry     beta= 0.50
     Davidson diagonalization with overlap
     ethr =  2.80E-05,  avg # of iterations =  7.0

     total cpu time spent up to now is        6.1 secs

     total energy              =    -501.35829960 Ry
     estimated scf accuracy    <       0.02183027 Ry

     iteration #  8     ecut=    30.00 Ry     beta= 0.50
     Davidson diagonalization with overlap
     ethr =  8.53E-06,  avg # of iterations =  8.0

     total cpu time spent up to now is        6.2 secs

     total energy              =    -501.36101813 Ry
     estimated scf accuracy    <       0.01066136 Ry

     iteration #  9     ecut=    30.00 Ry     beta= 0.50
     Davidson diagonalization with overlap
     ethr =  4.16E-06,  avg # of iterations =  7.0

     total cpu time spent up to now is        6.3 secs

     total energy              =    -501.36210758 Ry
     estimated scf accuracy    <       0.00639901 Ry

     iteration # 10     ecut=    30.00 Ry     beta= 0.50
     Davidson diagonalization with overlap
     ethr =  2.50E-06,  avg # of iterations =  5.0

     total cpu time spent up to now is        6.4 secs

     total energy              =    -501.36226105 Ry
     estimated scf accuracy    <       0.00187589 Ry

     iteration # 11     ecut=    30.00 Ry     beta= 0.50
     Davidson diagonalization with overlap
     c_bands:  1 eigenvalues not converged
     ethr =  7.33E-07,  avg # of iterations = 20.0

     total cpu time spent up to now is        6.6 secs

     total energy              =    -501.36306369 Ry
     estimated scf accuracy    <       0.00684720 Ry

     iteration # 12     ecut=    30.00 Ry     beta= 0.50
     Davidson diagonalization with overlap
     c_bands:  1 eigenvalues not converged
     ethr =  7.33E-07,  avg # of iterations = 20.0

     total cpu time spent up to now is        6.8 secs

     total energy              =    -501.36306136 Ry
     estimated scf accuracy    <       0.00742446 Ry

     iteration # 13     ecut=    30.00 Ry     beta= 0.50
     Davidson diagonalization with overlap
     ethr =  7.33E-07,  avg # of iterations =  2.0

     total cpu time spent up to now is        6.9 secs

     total energy              =    -501.36300975 Ry
     estimated scf accuracy    <       0.00656662 Ry

     iteration # 14     ecut=    30.00 Ry     beta= 0.50
     Davidson diagonalization with overlap
     ethr =  7.33E-07,  avg # of iterations =  2.0

     total cpu time spent up to now is        7.0 secs

     total energy              =    -501.36307858 Ry
     estimated scf accuracy    <       0.00644778 Ry

     iteration # 15     ecut=    30.00 Ry     beta= 0.50
     Davidson diagonalization with overlap
     ethr =  7.33E-07,  avg # of iterations =  3.0

     total cpu time spent up to now is        7.1 secs

     total energy              =    -501.36320826 Ry
     estimated scf accuracy    <       0.00707666 Ry

     iteration # 16     ecut=    30.00 Ry     beta= 0.50
     Davidson diagonalization with overlap
     ethr =  7.33E-07,  avg # of iterations =  2.0

     total cpu time spent up to now is        7.1 secs

     total energy              =    -501.36327780 Ry
     estimated scf accuracy    <       0.00716372 Ry

     iteration # 17     ecut=    30.00 Ry     beta= 0.50
     Davidson diagonalization with overlap
     ethr =  7.33E-07,  avg # of iterations =  1.0

     total cpu time spent up to now is        7.2 secs

     total energy              =    -501.36301863 Ry
     estimated scf accuracy    <       0.00731737 Ry

     iteration # 18     ecut=    30.00 Ry     beta= 0.50
     Davidson diagonalization with overlap
     c_bands:  1 eigenvalues not converged
     ethr =  7.33E-07,  avg # of iterations = 20.0

     total cpu time spent up to now is        7.4 secs

     total energy              =    -501.36254037 Ry
     estimated scf accuracy    <       0.01729933 Ry

     iteration # 19     ecut=    30.00 Ry     beta= 0.50
     Davidson diagonalization with overlap
     c_bands:  1 eigenvalues not converged
     ethr =  7.33E-07,  avg # of iterations = 20.0

     total cpu time spent up to now is        7.6 secs

     total energy              =    -501.36039402 Ry
     estimated scf accuracy    <       0.00919558 Ry

     iteration # 20     ecut=    30.00 Ry     beta= 0.50
     Davidson diagonalization with overlap
     c_bands:  2 eigenvalues not converged
     ethr =  7.33E-07,  avg # of iterations = 20.0

     total cpu time spent up to now is        7.8 secs

     total energy              =    -501.35875599 Ry
     estimated scf accuracy    <       0.02950473 Ry

     iteration # 21     ecut=    30.00 Ry     beta= 0.50
     Davidson diagonalization with overlap
     c_bands:  2 eigenvalues not converged
     ethr =  7.33E-07,  avg # of iterations = 20.0

     total cpu time spent up to now is        8.0 secs

     total energy              =    -501.36188292 Ry
     estimated scf accuracy    <       0.01631532 Ry

     iteration # 22     ecut=    30.00 Ry     beta= 0.50
     Davidson diagonalization with overlap
     ethr =  7.33E-07,  avg # of iterations = 18.0

     total cpu time spent up to now is        8.2 secs

     total energy              =    -501.36256716 Ry
     estimated scf accuracy    <       0.00516977 Ry

     iteration # 23     ecut=    30.00 Ry     beta= 0.50
     Davidson diagonalization with overlap
     ethr =  7.33E-07,  avg # of iterations =  3.0

     total cpu time spent up to now is        8.3 secs

     total energy              =    -501.36246958 Ry
     estimated scf accuracy    <       0.00351075 Ry

     iteration # 24     ecut=    30.00 Ry     beta= 0.50
     Davidson diagonalization with overlap
     ethr =  7.33E-07,  avg # of iterations =  2.0

     total cpu time spent up to now is        8.4 secs

     total energy              =    -501.36224933 Ry
     estimated scf accuracy    <       0.00274363 Ry

     iteration # 25     ecut=    30.00 Ry     beta= 0.50
     Davidson diagonalization with overlap
     c_bands:  1 eigenvalues not converged
     ethr =  7.33E-07,  avg # of iterations = 20.0

     total cpu time spent up to now is        8.5 secs

     total energy              =    -501.36268348 Ry
     estimated scf accuracy    <       0.00731899 Ry

     iteration # 26     ecut=    30.00 Ry     beta= 0.50
     Davidson diagonalization with overlap
     ethr =  7.33E-07,  avg # of iterations = 19.0

     total cpu time spent up to now is        8.7 secs

     total energy              =    -501.36296858 Ry
     estimated scf accuracy    <       0.00518002 Ry

     iteration # 27     ecut=    30.00 Ry     beta= 0.50
     Davidson diagonalization with overlap
     ethr =  7.33E-07,  avg # of iterations =  1.0

     total cpu time spent up to now is        8.8 secs

     total energy              =    -501.36280740 Ry
     estimated scf accuracy    <       0.00480223 Ry

     iteration # 28     ecut=    30.00 Ry     beta= 0.50
     Davidson diagonalization with overlap
     c_bands:  2 eigenvalues not converged
     ethr =  7.33E-07,  avg # of iterations = 20.0

     total cpu time spent up to now is        8.9 secs

     total energy              =    -501.36275886 Ry
     estimated scf accuracy    <       0.00471447 Ry

     iteration # 29     ecut=    30.00 Ry     beta= 0.50
     Davidson diagonalization with overlap
     ethr =  7.33E-07,  avg # of iterations =  3.0

     total cpu time spent up to now is        9.0 secs

     total energy              =    -501.36277644 Ry
     estimated scf accuracy    <       0.00376630 Ry

     iteration # 30     ecut=    30.00 Ry     beta= 0.50
     Davidson diagonalization with overlap
     ethr =  7.33E-07,  avg # of iterations =  2.0

     total cpu time spent up to now is        9.1 secs

     total energy              =    -501.36282478 Ry
     estimated scf accuracy    <       0.00338262 Ry

     iteration # 31     ecut=    30.00 Ry     beta= 0.50
     Davidson diagonalization with overlap
     ethr =  7.33E-07,  avg # of iterations =  1.0

     total cpu time spent up to now is        9.2 secs

     total energy              =    -501.36290246 Ry
     estimated scf accuracy    <       0.00333354 Ry

     iteration # 32     ecut=    30.00 Ry     beta= 0.50
     Davidson diagonalization with overlap
     ethr =  7.33E-07,  avg # of iterations =  1.0

     total cpu time spent up to now is        9.3 secs

     total energy              =    -501.36285653 Ry
     estimated scf accuracy    <       0.00372781 Ry

     iteration # 33     ecut=    30.00 Ry     beta= 0.50
     Davidson diagonalization with overlap
     ethr =  7.33E-07,  avg # of iterations =  1.0

     total cpu time spent up to now is        9.4 secs

     total energy              =    -501.36217741 Ry
     estimated scf accuracy    <       0.00352270 Ry

     iteration # 34     ecut=    30.00 Ry     beta= 0.50
     Davidson diagonalization with overlap
     c_bands:  3 eigenvalues not converged
     ethr =  7.33E-07,  avg # of iterations = 20.0

     total cpu time spent up to now is        9.6 secs

     total energy              =    -501.36115570 Ry
     estimated scf accuracy    <       0.08982784 Ry

     iteration # 35     ecut=    30.00 Ry     beta= 0.50
     Davidson diagonalization with overlap
     c_bands:  1 eigenvalues not converged
     ethr =  7.33E-07,  avg # of iterations = 20.0

     total cpu time spent up to now is        9.8 secs

     total energy              =    -501.36309753 Ry
     estimated scf accuracy    <       0.02906992 Ry

     iteration # 36     ecut=    30.00 Ry     beta= 0.50
     Davidson diagonalization with overlap
     ethr =  7.33E-07,  avg # of iterations = 19.0

     total cpu time spent up to now is       10.0 secs

     total energy              =    -501.36204952 Ry
     estimated scf accuracy    <       0.02398849 Ry

     iteration # 37     ecut=    30.00 Ry     beta= 0.50
     Davidson diagonalization with overlap
     c_bands:  1 eigenvalues not converged
     ethr =  7.33E-07,  avg # of iterations = 20.0

     total cpu time spent up to now is       10.1 secs

     total energy              =    -501.36250842 Ry
     estimated scf accuracy    <       0.00468657 Ry

     iteration # 38     ecut=    30.00 Ry     beta= 0.50
     Davidson diagonalization with overlap
     c_bands:  1 eigenvalues not converged
     ethr =  7.33E-07,  avg # of iterations = 20.0

     total cpu time spent up to now is       10.3 secs

     total energy              =    -501.36266397 Ry
     estimated scf accuracy    <       0.00282870 Ry

     iteration # 39     ecut=    30.00 Ry     beta= 0.50
     Davidson diagonalization with overlap
     ethr =  7.33E-07,  avg # of iterations = 10.0

     total cpu time spent up to now is       10.4 secs

     total energy              =    -501.36266945 Ry
     estimated scf accuracy    <       0.00229901 Ry

     iteration # 40     ecut=    30.00 Ry     beta= 0.50
     Davidson diagonalization with overlap
     ethr =  7.33E-07,  avg # of iterations =  1.0

     total cpu time spent up to now is       10.5 secs

     total energy              =    -501.36267694 Ry
     estimated scf accuracy    <       0.00204428 Ry

     iteration # 41     ecut=    30.00 Ry     beta= 0.50
     Davidson diagonalization with overlap
     ethr =  7.33E-07,  avg # of iterations =  1.0

     total cpu time spent up to now is       10.6 secs

     total energy              =    -501.36268206 Ry
     estimated scf accuracy    <       0.00195931 Ry

     iteration # 42     ecut=    30.00 Ry     beta= 0.50
     Davidson diagonalization with overlap
     ethr =  7.33E-07,  avg # of iterations =  1.0

     total cpu time spent up to now is       10.7 secs

     total energy              =    -501.36253657 Ry
     estimated scf accuracy    <       0.00190384 Ry

     iteration # 43     ecut=    30.00 Ry     beta= 0.50
     Davidson diagonalization with overlap
     ethr =  7.33E-07,  avg # of iterations =  2.0

     total cpu time spent up to now is       10.8 secs

     total energy              =    -501.36225847 Ry
     estimated scf accuracy    <       0.00212098 Ry

     iteration # 44     ecut=    30.00 Ry     beta= 0.50
     Davidson diagonalization with overlap
     c_bands:  1 eigenvalues not converged
     ethr =  7.33E-07,  avg # of iterations = 20.0

     total cpu time spent up to now is       10.9 secs

     total energy              =    -501.36159293 Ry
     estimated scf accuracy    <       0.03980496 Ry

     iteration # 45     ecut=    30.00 Ry     beta= 0.50
     Davidson diagonalization with overlap
     c_bands:  1 eigenvalues not converged
     ethr =  7.33E-07,  avg # of iterations = 20.0

     total cpu time spent up to now is       11.1 secs

     total energy              =    -501.36222072 Ry
     estimated scf accuracy    <       0.02153505 Ry

     iteration # 46     ecut=    30.00 Ry     beta= 0.50
     Davidson diagonalization with overlap
     c_bands:  1 eigenvalues not converged
     ethr =  7.33E-07,  avg # of iterations = 20.0

     total cpu time spent up to now is       11.3 secs

     total energy              =    -501.36236679 Ry
     estimated scf accuracy    <       0.01242702 Ry

     iteration # 47     ecut=    30.00 Ry     beta= 0.50
     Davidson diagonalization with overlap
     c_bands:  1 eigenvalues not converged
     ethr =  7.33E-07,  avg # of iterations = 20.0

     total cpu time spent up to now is       11.5 secs

     total energy              =    -501.36271397 Ry
     estimated scf accuracy    <       0.00539044 Ry

     iteration # 48     ecut=    30.00 Ry     beta= 0.50
     Davidson diagonalization with overlap
     ethr =  7.33E-07,  avg # of iterations = 14.0

     total cpu time spent up to now is       11.7 secs

     total energy              =    -501.36279097 Ry
     estimated scf accuracy    <       0.00424299 Ry

     iteration # 49     ecut=    30.00 Ry     beta= 0.50
     Davidson diagonalization with overlap
     ethr =  7.33E-07,  avg # of iterations =  1.0

     total cpu time spent up to now is       11.7 secs

     total energy              =    -501.36279513 Ry
     estimated scf accuracy    <       0.00374549 Ry

     iteration # 50     ecut=    30.00 Ry     beta= 0.50
     Davidson diagonalization with overlap
     ethr =  7.33E-07,  avg # of iterations =  1.0

     total cpu time spent up to now is       11.8 secs

     total energy              =    -501.36281330 Ry
     estimated scf accuracy    <       0.00350866 Ry

     iteration # 51     ecut=    30.00 Ry     beta= 0.50
     Davidson diagonalization with overlap
     ethr =  7.33E-07,  avg # of iterations =  1.0

     total cpu time spent up to now is       11.9 secs

     total energy              =    -501.36288625 Ry
     estimated scf accuracy    <       0.00343926 Ry

     iteration # 52     ecut=    30.00 Ry     beta= 0.50
     Davidson diagonalization with overlap
     c_bands:  1 eigenvalues not converged
     ethr =  7.33E-07,  avg # of iterations = 20.0

     total cpu time spent up to now is       12.1 secs

     total energy              =    -501.36229544 Ry
     estimated scf accuracy    <       0.00756286 Ry

     iteration # 53     ecut=    30.00 Ry     beta= 0.50
     Davidson diagonalization with overlap
     c_bands:  1 eigenvalues not converged
     ethr =  7.33E-07,  avg # of iterations = 20.0

     total cpu time spent up to now is       12.3 secs

     total energy              =    -501.36262890 Ry
     estimated scf accuracy    <       0.01031680 Ry

     iteration # 54     ecut=    30.00 Ry     beta= 0.50
     Davidson diagonalization with overlap
     c_bands:  1 eigenvalues not converged
     ethr =  7.33E-07,  avg # of iterations = 20.0

     total cpu time spent up to now is       12.5 secs

     total energy              =    -501.36404149 Ry
     estimated scf accuracy    <       0.03871849 Ry

     iteration # 55     ecut=    30.00 Ry     beta= 0.50
     Davidson diagonalization with overlap
     c_bands:  1 eigenvalues not converged
     ethr =  7.33E-07,  avg # of iterations = 20.0

     total cpu time spent up to now is       12.7 secs

     total energy              =    -501.35949571 Ry
     estimated scf accuracy    <       0.03721105 Ry

     iteration # 56     ecut=    30.00 Ry     beta= 0.50
     Davidson diagonalization with overlap
     c_bands:  1 eigenvalues not converged
     ethr =  7.33E-07,  avg # of iterations = 20.0

     total cpu time spent up to now is       12.9 secs

     total energy              =    -501.36171427 Ry
     estimated scf accuracy    <       0.02492817 Ry

     iteration # 57     ecut=    30.00 Ry     beta= 0.50
     Davidson diagonalization with overlap
     c_bands:  1 eigenvalues not converged
     ethr =  7.33E-07,  avg # of iterations = 20.0

     total cpu time spent up to now is       13.1 secs

     total energy              =    -501.36275432 Ry
     estimated scf accuracy    <       0.00981084 Ry

     iteration # 58     ecut=    30.00 Ry     beta= 0.50
     Davidson diagonalization with overlap
     c_bands:  1 eigenvalues not converged
     ethr =  7.33E-07,  avg # of iterations = 20.0

     total cpu time spent up to now is       13.2 secs

     total energy              =    -501.36280948 Ry
     estimated scf accuracy    <       0.00563943 Ry

     iteration # 59     ecut=    30.00 Ry     beta= 0.50
     Davidson diagonalization with overlap
     c_bands:  1 eigenvalues not converged
     ethr =  7.33E-07,  avg # of iterations = 20.0

     total cpu time spent up to now is       13.4 secs

     total energy              =    -501.36234782 Ry
     estimated scf accuracy    <       0.00452732 Ry

     iteration # 60     ecut=    30.00 Ry     beta= 0.50
     Davidson diagonalization with overlap
     ethr =  7.33E-07,  avg # of iterations =  9.0

     total cpu time spent up to now is       13.5 secs

     total energy              =    -501.36262916 Ry
     estimated scf accuracy    <       0.00144221 Ry

     iteration # 61     ecut=    30.00 Ry     beta= 0.50
     Davidson diagonalization with overlap
     ethr =  5.63E-07,  avg # of iterations =  1.0

     total cpu time spent up to now is       13.6 secs

     total energy              =    -501.36252872 Ry
     estimated scf accuracy    <       0.00124791 Ry

     iteration # 62     ecut=    30.00 Ry     beta= 0.50
     Davidson diagonalization with overlap
     ethr =  4.87E-07,  avg # of iterations = 15.0

     total cpu time spent up to now is       13.8 secs

     total energy              =    -501.36245108 Ry
     estimated scf accuracy    <       0.00115553 Ry

     iteration # 63     ecut=    30.00 Ry     beta= 0.50
     Davidson diagonalization with overlap
     c_bands:  1 eigenvalues not converged
     ethr =  4.51E-07,  avg # of iterations = 20.0

     total cpu time spent up to now is       14.0 secs

     total energy              =    -501.36242825 Ry
     estimated scf accuracy    <       0.00400838 Ry

     iteration # 64     ecut=    30.00 Ry     beta= 0.50
     Davidson diagonalization with overlap
     c_bands:  1 eigenvalues not converged
     ethr =  4.51E-07,  avg # of iterations = 20.0

     total cpu time spent up to now is       14.2 secs

     total energy              =    -501.36268359 Ry
     estimated scf accuracy    <       0.00355699 Ry

     iteration # 65     ecut=    30.00 Ry     beta= 0.50
     Davidson diagonalization with overlap
     c_bands:  1 eigenvalues not converged
     ethr =  4.51E-07,  avg # of iterations = 20.0

     total cpu time spent up to now is       14.3 secs

     total energy              =    -501.36282076 Ry
     estimated scf accuracy    <       0.00672977 Ry

     iteration # 66     ecut=    30.00 Ry     beta= 0.50
     Davidson diagonalization with overlap
     c_bands:  1 eigenvalues not converged
     ethr =  4.51E-07,  avg # of iterations = 20.0

     total cpu time spent up to now is       14.5 secs

     total energy              =    -501.36295703 Ry
     estimated scf accuracy    <       0.00642529 Ry

     iteration # 67     ecut=    30.00 Ry     beta= 0.50
     Davidson diagonalization with overlap
     ethr =  4.51E-07,  avg # of iterations =  2.0

     total cpu time spent up to now is       14.6 secs

     total energy              =    -501.36294492 Ry
     estimated scf accuracy    <       0.00609149 Ry

     iteration # 68     ecut=    30.00 Ry     beta= 0.50
     Davidson diagonalization with overlap
     ethr =  4.51E-07,  avg # of iterations =  1.0

     total cpu time spent up to now is       14.7 secs

     total energy              =    -501.36293506 Ry
     estimated scf accuracy    <       0.00594774 Ry

     iteration # 69     ecut=    30.00 Ry     beta= 0.50
     Davidson diagonalization with overlap
     ethr =  4.51E-07,  avg # of iterations =  1.0

     total cpu time spent up to now is       14.8 secs

     total energy              =    -501.36293095 Ry
     estimated scf accuracy    <       0.00575364 Ry

     iteration # 70     ecut=    30.00 Ry     beta= 0.50
     Davidson diagonalization with overlap
     ethr =  4.51E-07,  avg # of iterations =  1.0

     total cpu time spent up to now is       14.8 secs

     total energy              =    -501.36314776 Ry
     estimated scf accuracy    <       0.00569881 Ry

     iteration # 71     ecut=    30.00 Ry     beta= 0.50
     Davidson diagonalization with overlap
     c_bands:  1 eigenvalues not converged
     ethr =  4.51E-07,  avg # of iterations = 20.0

     total cpu time spent up to now is       15.0 secs

     total energy              =    -501.36222589 Ry
     estimated scf accuracy    <       0.01127589 Ry

     iteration # 72     ecut=    30.00 Ry     beta= 0.50
     Davidson diagonalization with overlap
     c_bands:  2 eigenvalues not converged
     ethr =  4.51E-07,  avg # of iterations = 20.0

     total cpu time spent up to now is       15.2 secs

     total energy              =    -501.35902828 Ry
     estimated scf accuracy    <       0.03949764 Ry

     iteration # 73     ecut=    30.00 Ry     beta= 0.50
     Davidson diagonalization with overlap
     c_bands:  2 eigenvalues not converged
     ethr =  4.51E-07,  avg # of iterations = 20.0

     total cpu time spent up to now is       15.4 secs

     total energy              =    -501.35873551 Ry
     estimated scf accuracy    <       0.03716059 Ry

     iteration # 74     ecut=    30.00 Ry     beta= 0.50
     Davidson diagonalization with overlap
     c_bands:  2 eigenvalues not converged
     ethr =  4.51E-07,  avg # of iterations = 20.0

     total cpu time spent up to now is       15.6 secs

     total energy              =    -501.36008262 Ry
     estimated scf accuracy    <       0.10166360 Ry

     iteration # 75     ecut=    30.00 Ry     beta= 0.50
     Davidson diagonalization with overlap
     c_bands:  1 eigenvalues not converged
     ethr =  4.51E-07,  avg # of iterations = 20.0

     total cpu time spent up to now is       15.9 secs

     total energy              =    -501.36346130 Ry
     estimated scf accuracy    <       0.01834866 Ry

     iteration # 76     ecut=    30.00 Ry     beta= 0.50
     Davidson diagonalization with overlap
     c_bands:  1 eigenvalues not converged
     ethr =  4.51E-07,  avg # of iterations = 20.0

     total cpu time spent up to now is       16.1 secs

     total energy              =    -501.36260996 Ry
     estimated scf accuracy    <       0.01553017 Ry

     iteration # 77     ecut=    30.00 Ry     beta= 0.50
     Davidson diagonalization with overlap
     c_bands:  2 eigenvalues not converged
     ethr =  4.51E-07,  avg # of iterations = 20.0

     total cpu time spent up to now is       16.2 secs

     total energy              =    -501.36261566 Ry
     estimated scf accuracy    <       0.00811866 Ry

     iteration # 78     ecut=    30.00 Ry     beta= 0.50
     Davidson diagonalization with overlap
     c_bands:  1 eigenvalues not converged
     ethr =  4.51E-07,  avg # of iterations = 20.0

     total cpu time spent up to now is       16.4 secs

     total energy              =    -501.36258565 Ry
     estimated scf accuracy    <       0.00584237 Ry

     iteration # 79     ecut=    30.00 Ry     beta= 0.50
     Davidson diagonalization with overlap
     ethr =  4.51E-07,  avg # of iterations =  2.0

     total cpu time spent up to now is       16.5 secs

     total energy              =    -501.36166997 Ry
     estimated scf accuracy    <       0.00507024 Ry

     iteration # 80     ecut=    30.00 Ry     beta= 0.50
     Davidson diagonalization with overlap
     c_bands:  1 eigenvalues not converged
     ethr =  4.51E-07,  avg # of iterations = 20.0

     total cpu time spent up to now is       16.7 secs

     total energy              =    -501.36233982 Ry
     estimated scf accuracy    <       0.01389742 Ry

     iteration # 81     ecut=    30.00 Ry     beta= 0.50
     Davidson diagonalization with overlap
     c_bands:  1 eigenvalues not converged
     ethr =  4.51E-07,  avg # of iterations = 20.0

     total cpu time spent up to now is       16.9 secs

     total energy              =    -501.36305168 Ry
     estimated scf accuracy    <       0.00930544 Ry

     iteration # 82     ecut=    30.00 Ry     beta= 0.50
     Davidson diagonalization with overlap
     ethr =  4.51E-07,  avg # of iterations =  8.0

     total cpu time spent up to now is       17.0 secs

     total energy              =    -501.36302087 Ry
     estimated scf accuracy    <       0.00767229 Ry

     iteration # 83     ecut=    30.00 Ry     beta= 0.50
     Davidson diagonalization with overlap
     ethr =  4.51E-07,  avg # of iterations =  1.0

     total cpu time spent up to now is       17.1 secs

     total energy              =    -501.36299498 Ry
     estimated scf accuracy    <       0.00714954 Ry

     iteration # 84     ecut=    30.00 Ry     beta= 0.50
     Davidson diagonalization with overlap
     ethr =  4.51E-07,  avg # of iterations =  1.0

     total cpu time spent up to now is       17.1 secs

     total energy              =    -501.36260496 Ry
     estimated scf accuracy    <       0.00690137 Ry

     iteration # 85     ecut=    30.00 Ry     beta= 0.50
     Davidson diagonalization with overlap
     c_bands:  1 eigenvalues not converged
     ethr =  4.51E-07,  avg # of iterations = 20.0

     total cpu time spent up to now is       17.3 secs

     total energy              =    -501.36279566 Ry
     estimated scf accuracy    <       0.00170774 Ry

     iteration # 86     ecut=    30.00 Ry     beta= 0.50
     Davidson diagonalization with overlap
     ethr =  4.51E-07,  avg # of iterations = 13.0

     total cpu time spent up to now is       17.4 secs

     total energy              =    -501.36285232 Ry
     estimated scf accuracy    <       0.00125541 Ry

     iteration # 87     ecut=    30.00 Ry     beta= 0.50
     Davidson diagonalization with overlap
     ethr =  4.51E-07,  avg # of iterations =  1.0

     total cpu time spent up to now is       17.5 secs

     total energy              =    -501.36288289 Ry
     estimated scf accuracy    <       0.00120803 Ry

     iteration # 88     ecut=    30.00 Ry     beta= 0.50
     Davidson diagonalization with overlap
     ethr =  4.51E-07,  avg # of iterations =  2.0

     total cpu time spent up to now is       17.6 secs

     total energy              =    -501.36290127 Ry
     estimated scf accuracy    <       0.00133226 Ry

     iteration # 89     ecut=    30.00 Ry     beta= 0.50
     Davidson diagonalization with overlap
     c_bands:  2 eigenvalues not converged
     ethr =  4.51E-07,  avg # of iterations = 20.0

     total cpu time spent up to now is       17.8 secs

     total energy              =    -501.36178575 Ry
     estimated scf accuracy    <       0.07793900 Ry

     iteration # 90     ecut=    30.00 Ry     beta= 0.50
     Davidson diagonalization with overlap
     ethr =  4.51E-07,  avg # of iterations = 18.0

     total cpu time spent up to now is       18.0 secs

     total energy              =    -501.36319377 Ry
     estimated scf accuracy    <       0.02715858 Ry

     iteration # 91     ecut=    30.00 Ry     beta= 0.50
     Davidson diagonalization with overlap
     ethr =  4.51E-07,  avg # of iterations =  1.0

     total cpu time spent up to now is       18.1 secs

     total energy              =    -501.36258164 Ry
     estimated scf accuracy    <       0.02513613 Ry

     iteration # 92     ecut=    30.00 Ry     beta= 0.50
     Davidson diagonalization with overlap
     ethr =  4.51E-07,  avg # of iterations =  2.0

     total cpu time spent up to now is       18.2 secs

     total energy              =    -501.36214559 Ry
     estimated scf accuracy    <       0.02241521 Ry

     iteration # 93     ecut=    30.00 Ry     beta= 0.50
     Davidson diagonalization with overlap
     ethr =  4.51E-07,  avg # of iterations =  1.0

     total cpu time spent up to now is       18.3 secs

     total energy              =    -501.35880148 Ry
     estimated scf accuracy    <       0.02032854 Ry

     iteration # 94     ecut=    30.00 Ry     beta= 0.50
     Davidson diagonalization with overlap
     c_bands:  1 eigenvalues not converged
     ethr =  4.51E-07,  avg # of iterations = 20.0

     total cpu time spent up to now is       18.4 secs

     total energy              =    -501.36135341 Ry
     estimated scf accuracy    <       0.00264144 Ry

     iteration # 95     ecut=    30.00 Ry     beta= 0.50
     Davidson diagonalization with overlap
     c_bands:  2 eigenvalues not converged
     ethr =  4.51E-07,  avg # of iterations = 20.0

     total cpu time spent up to now is       18.6 secs

     total energy              =    -501.36233470 Ry
     estimated scf accuracy    <       0.00927861 Ry

     iteration # 96     ecut=    30.00 Ry     beta= 0.50
     Davidson diagonalization with overlap
     c_bands:  1 eigenvalues not converged
     ethr =  4.51E-07,  avg # of iterations = 20.0

     total cpu time spent up to now is       18.8 secs

     total energy              =    -501.36258553 Ry
     estimated scf accuracy    <       0.00425889 Ry

     iteration # 97     ecut=    30.00 Ry     beta= 0.50
     Davidson diagonalization with overlap
     c_bands:  1 eigenvalues not converged
     ethr =  4.51E-07,  avg # of iterations = 20.0

     total cpu time spent up to now is       19.0 secs

     total energy              =    -501.36271755 Ry
     estimated scf accuracy    <       0.00193189 Ry

     iteration # 98     ecut=    30.00 Ry     beta= 0.50
     Davidson diagonalization with overlap
     c_bands:  1 eigenvalues not converged
     ethr =  4.51E-07,  avg # of iterations = 20.0

     total cpu time spent up to now is       19.2 secs

     total energy              =    -501.36273418 Ry
     estimated scf accuracy    <       0.00395142 Ry

     iteration # 99     ecut=    30.00 Ry     beta= 0.50
     Davidson diagonalization with overlap
     ethr =  4.51E-07,  avg # of iterations =  8.0

     total cpu time spent up to now is       19.3 secs

     total energy              =    -501.36276907 Ry
     estimated scf accuracy    <       0.00264241 Ry

     iteration #100     ecut=    30.00 Ry     beta= 0.50
     Davidson diagonalization with overlap
     ethr =  4.51E-07,  avg # of iterations =  1.0

     total cpu time spent up to now is       19.4 secs

     total energy              =    -501.36276696 Ry
     estimated scf accuracy    <       0.00246786 Ry

     End of self-consistent calculation

     convergence NOT achieved after 100 iterations: stopping

     Writing config to output data dir ./pwscf.save/
     Message from routine punch:
     wavefunctions written to file
 
     init_run     :      1.34s CPU      4.92s WALL (       1 calls)
     electrons    :     13.72s CPU     14.42s WALL (       1 calls)

     Called by init_run:
     wfcinit      :      0.78s CPU      4.20s WALL (       1 calls)
                                        4.20s GPU  (       1 calls)
     potinit      :      0.06s CPU      0.15s WALL (       1 calls)
     hinit0       :      0.47s CPU      0.50s WALL (       1 calls)

     Called by electrons:
     c_bands      :      9.34s CPU      9.70s WALL (     101 calls)
     sum_band     :      1.94s CPU      2.14s WALL (     101 calls)
     v_of_rho     :      0.89s CPU      1.02s WALL (     101 calls)
     mix_rho      :      1.20s CPU      1.24s WALL (     101 calls)

     Called by c_bands:
     init_us_2    :      0.36s CPU      0.37s WALL (     203 calls)
     init_us_2:gp :      0.35s CPU      0.37s WALL (     203 calls)
     regterg      :      8.50s CPU      8.83s WALL (     101 calls)

     Called by *egterg:
     rdiaghg      :      4.32s CPU      5.15s WALL (    1286 calls)
                                        4.95s GPU  (    1286 calls)
     h_psi        :      3.70s CPU      6.55s WALL (    1288 calls)
                                        6.53s GPU  (    1288 calls)
     g_psi        :      0.01s CPU      0.03s WALL (    1186 calls)
                                        0.02s GPU  (    1186 calls)

     Called by h_psi:
     h_psi:calbec :      1.10s CPU      3.79s WALL (    1288 calls)
                                        3.78s GPU  (    1288 calls)
     vloc_psi     :      1.83s CPU      1.99s WALL (    1288 calls)
                                        1.97s GPU  (    1288 calls)
     add_vuspsi   :      0.58s CPU      0.71s WALL (    1288 calls)
                                        0.70s GPU  (    1288 calls)

     General routines
     calbec       :      1.09s CPU      3.76s WALL (    1288 calls)
     fft          :      1.29s CPU      1.46s WALL (     809 calls)
                                        0.20s GPU  (     505 calls)
     ffts         :      0.27s CPU      0.29s WALL (     101 calls)
     fftw         :      2.13s CPU      2.65s WALL (   10508 calls)
                                        2.27s GPU  (   10508 calls)
     davcio       :      0.00s CPU      0.01s WALL (      19 calls)
 
     Parallel routines
 
     PWSCF        :     15.11s CPU     19.44s WALL

 
   This run was terminated on:  15:48:44   9May2023            

=------------------------------------------------------------------------------=
   JOB DONE.
=------------------------------------------------------------------------------=
