An instance of this daemon is already running

     Program PWSCF v.7.1 starts on  9May2023 at 15:40: 1 

     This program is part of the open-source Quantum ESPRESSO suite
     for quantum simulation of materials; please cite
         "P. Giannozzi et al., J. Phys.:Condens. Matter 21 395502 (2009);
         "P. Giannozzi et al., J. Phys.:Condens. Matter 29 465901 (2017);
         "P. Giannozzi et al., J. Chem. Phys. 152 154105 (2020);
          URL http://www.quantum-espresso.org", 
     in publications or presentations arising from this work. More details at
     http://www.quantum-espresso.org/quote

     Parallel version (MPI & OpenMP), running on       4 processor cores
     Number of MPI processes:                 4
     Threads/MPI process:                     1

     MPI processes distributed on     1 nodes
     751760 MiB available memory on the printing compute node when the environment starts
 
     Reading input from pw-si-61.in
Warning: card &CELL ignored
Warning: card / ignored

     Current dimensions of program PWSCF are:
     Max number of different atomic species (ntypx) = 10
     Max number of k-points (npk) =  40000
     Max angular momentum in pseudopotentials (lmaxx) =  4

     IMPORTANT: XC functional enforced from input :
     Exchange-correlation= PBE
                           (   1   4   3   4   0   0   0)
     Any further DFT definition will be discarded
     Please, verify this is what you really want


     gamma-point specific algorithms are used
 
     K-points division:     npool     =       2
     R & G space division:  proc/nbgrp/npool/nimage =       2
     Subspace diagonalization in iterative solution of the eigenvalue problem:
     a serial algorithm will be used

     Message from routine divide_et_impera:
     suboptimal parallelization: some nodes have no k-points
 
     Parallelization info
     --------------------
     sticks:   dense  smooth     PW     G-vecs:    dense   smooth      PW
     Min        1930    1930    504                90041    90041   12201
     Max        1931    1931    505                90042    90042   12204
     Sum        3861    3861   1009               180083   180083   24405
 
     Using Slab Decomposition
 


     bravais-lattice index     =            0
     lattice parameter (alat)  =      20.0883  a.u.
     unit-cell volume          =    8106.4042 (a.u.)^3
     number of atoms/cell      =           64
     number of atomic types    =            1
     number of electrons       =       256.00
     number of Kohn-Sham states=          128
     kinetic-energy cutoff     =      30.0000  Ry
     charge density cutoff     =     120.0000  Ry
     scf convergence threshold =      1.0E-06
     mixing beta               =       0.5000
     number of iterations used =            8  plain     mixing
     Exchange-correlation= PBE
                           (   1   4   3   4   0   0   0)

     GPU acceleration is ACTIVE.
     GPU-aware MPI enabled

     Message from routine print_cuda_info:
     High GPU oversubscription detected. Are you sure this is what you want?

     celldm(1)=  20.088280  celldm(2)=   0.000000  celldm(3)=   0.000000
     celldm(4)=   0.000000  celldm(5)=   0.000000  celldm(6)=   0.000000

     crystal axes: (cart. coord. in units of alat)
               a(1) = (   1.000000   0.000000   0.000000 )  
               a(2) = (   0.000000   1.000000   0.000000 )  
               a(3) = (   0.000000   0.000000   1.000000 )  

     reciprocal axes: (cart. coord. in units 2 pi/alat)
               b(1) = (  1.000000  0.000000  0.000000 )  
               b(2) = (  0.000000  1.000000  0.000000 )  
               b(3) = (  0.000000  0.000000  1.000000 )  


     PseudoPot. # 1 for Si read from file:
     /home/ppiaggi/pseudos/Si_ONCV_PBE_sr.upf
     MD5 check sum: 8553c464762ac42b85b1eed164b4d029
     Pseudo is Norm-conserving, Zval =  4.0
     Generated using ONCVPSP code by D. R. Hamann
     Using radial grid of 1510 points,  4 beta functions with: 
                l(1) =   0
                l(2) =   0
                l(3) =   1
                l(4) =   1

     atomic species   valence    mass     pseudopotential
        Si             4.00    28.08500     Si( 1.00)

     No symmetry found



   Cartesian axes

     site n.     atom                  positions (alat units)
         1           Si  tau(   1) = (   0.7957210   0.0471434   0.2838630  )
         2           Si  tau(   2) = (   0.9726490   0.5489980   0.2328140  )
         3           Si  tau(   3) = (   0.1243140   0.3482460   0.4214500  )
         4           Si  tau(   4) = (   0.8067700   0.0064968   0.8945480  )
         5           Si  tau(   5) = (   0.2622700   0.5612860   0.7805870  )
         6           Si  tau(   6) = (   0.9619770   0.6642800   0.9910650  )
         7           Si  tau(   7) = (   0.5608150   0.6975280   0.5862040  )
         8           Si  tau(   8) = (   0.7286080   0.2962090   0.3644360  )
         9           Si  tau(   9) = (   0.7735150   0.6356410   0.2546920  )
        10           Si  tau(  10) = (   0.7773290   0.1120370   0.6139630  )
        11           Si  tau(  11) = (   0.5001900   0.9504690   0.3267770  )
        12           Si  tau(  12) = (   0.9555510   0.2754610   0.6274600  )
        13           Si  tau(  13) = (   0.9665760   0.9146290   0.2556120  )
        14           Si  tau(  14) = (   0.4761590   0.0088256   0.9870960  )
        15           Si  tau(  15) = (   0.6686080   0.3590190   0.9874450  )
        16           Si  tau(  16) = (   0.7917290   0.6950320   0.4802770  )
        17           Si  tau(  17) = (   0.4336420   0.6975130   0.3553730  )
        18           Si  tau(  18) = (   0.6744680   0.8497650   0.1645300  )
        19           Si  tau(  19) = (   0.0885740   0.5772910   0.4458560  )
        20           Si  tau(  20) = (   0.8140890   0.5197100   0.7572090  )
        21           Si  tau(  21) = (   0.7497210   0.5773200   0.0002384  )
        22           Si  tau(  22) = (   0.3537130   0.2584170   0.8404970  )
        23           Si  tau(  23) = (   0.6579580   0.2979340   0.6611310  )
        24           Si  tau(  24) = (   0.1565790   0.7947590   0.7766350  )
        25           Si  tau(  25) = (   0.9013150   0.8603400   0.0552606  )
        26           Si  tau(  26) = (   0.2747860   0.6293190   0.5469990  )
        27           Si  tau(  27) = (   0.2714450   0.0257264   0.8366220  )
        28           Si  tau(  28) = (   0.9483800   0.9686140   0.6760980  )
        29           Si  tau(  29) = (   0.8534330   0.2553780   0.9024610  )
        30           Si  tau(  30) = (   0.9884940   0.2579720   0.0721044  )
        31           Si  tau(  31) = (   0.1117580   0.9819820   0.9927270  )
        32           Si  tau(  32) = (   0.6607480   0.1027220   0.0686797  )
        33           Si  tau(  33) = (   0.5817750   0.7379140   0.9179550  )
        34           Si  tau(  34) = (   0.1123630   0.4510010   0.0022976  )
        35           Si  tau(  35) = (   0.4382100   0.4510140   0.5031640  )
        36           Si  tau(  36) = (   0.2047290   0.0745013   0.4060950  )
        37           Si  tau(  37) = (   0.3176510   0.3790240   0.2888990  )
        38           Si  tau(  38) = (   0.2483090   0.3360600   0.6521550  )
        39           Si  tau(  39) = (   0.4211940   0.5572910   0.0772339  )
        40           Si  tau(  40) = (   0.4583410   0.6225710   0.7763030  )
        41           Si  tau(  41) = (   0.1611930   0.1223530   0.6507080  )
        42           Si  tau(  42) = (   0.9090160   0.7574990   0.7668020  )
        43           Si  tau(  43) = (   0.0126478   0.4066170   0.7891320  )
        44           Si  tau(  44) = (   0.7033740   0.9443680   0.4620360  )
        45           Si  tau(  45) = (   0.4084000   0.1639820   0.3419290  )
        46           Si  tau(  46) = (   0.5275570   0.3867630   0.8201200  )
        47           Si  tau(  47) = (   0.5804190   0.2920120   0.1817900  )
        48           Si  tau(  48) = (   0.6879110   0.8555840   0.7409810  )
        49           Si  tau(  49) = (   0.2369070   0.5956460   0.2423970  )
        50           Si  tau(  50) = (   0.2415640   0.8505480   0.2412580  )
        51           Si  tau(  51) = (   0.2223120   0.8561670   0.5470940  )
        52           Si  tau(  52) = (   0.9199660   0.3346250   0.2743120  )
        53           Si  tau(  53) = (   0.9828920   0.8001140   0.4557030  )
        54           Si  tau(  54) = (   0.8842670   0.4503660   0.5297420  )
        55           Si  tau(  55) = (   0.4450440   0.8082490   0.1050920  )
        56           Si  tau(  56) = (   0.5737080   0.5131830   0.2377150  )
        57           Si  tau(  57) = (   0.4483630   0.2207690   0.5741620  )
        58           Si  tau(  58) = (   0.4575660   0.9108230   0.5584390  )
        59           Si  tau(  59) = (   0.6452410   0.4777230   0.5007170  )
        60           Si  tau(  60) = (   0.5570650   0.0460983   0.7438930  )
        61           Si  tau(  61) = (   0.3603520   0.1308950   0.1089520  )
        62           Si  tau(  62) = (   0.1152050   0.0769600   0.2166300  )
        63           Si  tau(  63) = (   0.2025600   0.7216690   0.0280020  )
        64           Si  tau(  64) = (   0.3042420   0.3504640   0.0354763  )

     number of k points=     1
                       cart. coord. in units 2pi/alat
        k(    1) = (   0.0000000   0.0000000   0.0000000), wk =   2.0000000

     Dense  grid:    90042 G-vectors     FFT dimensions: (  72,  72,  72)

     Estimated max dynamical RAM per process >     132.63 MB

     Estimated total dynamical RAM >     508.53 MB

     Initial potential from superposition of free atoms

     starting charge     255.9608, renormalised to     256.0000
     Starting wfcs are  256 randomized atomic wfcs

     total cpu time spent up to now is        5.1 secs

     Self-consistent Calculation

     iteration #  1     ecut=    30.00 Ry     beta= 0.50
     Davidson diagonalization with overlap
     ethr =  1.00E-02,  avg # of iterations =  2.0

     Threshold (ethr) on eigenvalues was too large:
     Diagonalizing with lowered threshold

     Davidson diagonalization with overlap
     ethr =  4.16E-04,  avg # of iterations =  4.0

     total cpu time spent up to now is        5.3 secs

     total energy              =    -500.98488448 Ry
     estimated scf accuracy    <       1.33014034 Ry

     iteration #  2     ecut=    30.00 Ry     beta= 0.50
     Davidson diagonalization with overlap
     ethr =  5.20E-04,  avg # of iterations = 11.0

     total cpu time spent up to now is        5.5 secs

     total energy              =    -500.26124348 Ry
     estimated scf accuracy    <      10.34503741 Ry

     iteration #  3     ecut=    30.00 Ry     beta= 0.50
     Davidson diagonalization with overlap
     ethr =  5.20E-04,  avg # of iterations = 11.0

     total cpu time spent up to now is        5.7 secs

     total energy              =    -501.18556565 Ry
     estimated scf accuracy    <       1.28459449 Ry

     iteration #  4     ecut=    30.00 Ry     beta= 0.50
     Davidson diagonalization with overlap
     ethr =  5.02E-04,  avg # of iterations =  5.0

     total cpu time spent up to now is        5.8 secs

     total energy              =    -501.26461372 Ry
     estimated scf accuracy    <       0.46626542 Ry

     iteration #  5     ecut=    30.00 Ry     beta= 0.50
     Davidson diagonalization with overlap
     ethr =  1.82E-04,  avg # of iterations =  7.0

     total cpu time spent up to now is        5.9 secs

     total energy              =    -501.29999342 Ry
     estimated scf accuracy    <       0.20682303 Ry

     iteration #  6     ecut=    30.00 Ry     beta= 0.50
     Davidson diagonalization with overlap
     ethr =  8.08E-05,  avg # of iterations =  9.0

     total cpu time spent up to now is        6.0 secs

     total energy              =    -501.32951761 Ry
     estimated scf accuracy    <       0.04120522 Ry

     iteration #  7     ecut=    30.00 Ry     beta= 0.50
     Davidson diagonalization with overlap
     ethr =  1.61E-05,  avg # of iterations = 20.0

     total cpu time spent up to now is        6.2 secs

     total energy              =    -501.33331145 Ry
     estimated scf accuracy    <       0.02827280 Ry

     iteration #  8     ecut=    30.00 Ry     beta= 0.50
     Davidson diagonalization with overlap
     ethr =  1.10E-05,  avg # of iterations = 19.0

     total cpu time spent up to now is        6.4 secs

     total energy              =    -501.33470436 Ry
     estimated scf accuracy    <       0.01827446 Ry

     iteration #  9     ecut=    30.00 Ry     beta= 0.50
     Davidson diagonalization with overlap
     ethr =  7.14E-06,  avg # of iterations =  3.0

     total cpu time spent up to now is        6.5 secs

     total energy              =    -501.33532833 Ry
     estimated scf accuracy    <       0.00428687 Ry

     iteration # 10     ecut=    30.00 Ry     beta= 0.50
     Davidson diagonalization with overlap
     ethr =  1.67E-06,  avg # of iterations = 15.0

     total cpu time spent up to now is        6.6 secs

     total energy              =    -501.33622725 Ry
     estimated scf accuracy    <       0.00492486 Ry

     iteration # 11     ecut=    30.00 Ry     beta= 0.50
     Davidson diagonalization with overlap
     ethr =  1.67E-06,  avg # of iterations =  3.0

     total cpu time spent up to now is        6.7 secs

     total energy              =    -501.33611089 Ry
     estimated scf accuracy    <       0.00233288 Ry

     iteration # 12     ecut=    30.00 Ry     beta= 0.50
     Davidson diagonalization with overlap
     ethr =  9.11E-07,  avg # of iterations = 10.0

     total cpu time spent up to now is        6.9 secs

     total energy              =    -501.33639429 Ry
     estimated scf accuracy    <       0.00065408 Ry

     iteration # 13     ecut=    30.00 Ry     beta= 0.50
     Davidson diagonalization with overlap
     ethr =  2.56E-07,  avg # of iterations =  7.0

     total cpu time spent up to now is        7.0 secs

     total energy              =    -501.33641067 Ry
     estimated scf accuracy    <       0.00032903 Ry

     iteration # 14     ecut=    30.00 Ry     beta= 0.50
     Davidson diagonalization with overlap
     ethr =  1.29E-07,  avg # of iterations = 10.0

     total cpu time spent up to now is        7.1 secs

     total energy              =    -501.33643949 Ry
     estimated scf accuracy    <       0.00002965 Ry

     iteration # 15     ecut=    30.00 Ry     beta= 0.50
     Davidson diagonalization with overlap
     c_bands:  1 eigenvalues not converged
     ethr =  1.16E-08,  avg # of iterations = 20.0

     total cpu time spent up to now is        7.3 secs

     total energy              =    -501.33644521 Ry
     estimated scf accuracy    <       0.00013428 Ry

     iteration # 16     ecut=    30.00 Ry     beta= 0.50
     Davidson diagonalization with overlap
     ethr =  1.16E-08,  avg # of iterations = 10.0

     total cpu time spent up to now is        7.4 secs

     total energy              =    -501.33645230 Ry
     estimated scf accuracy    <       0.00004707 Ry

     iteration # 17     ecut=    30.00 Ry     beta= 0.50
     Davidson diagonalization with overlap
     ethr =  1.16E-08,  avg # of iterations =  8.0

     total cpu time spent up to now is        7.6 secs

     total energy              =    -501.33645143 Ry
     estimated scf accuracy    <       0.00002891 Ry

     iteration # 18     ecut=    30.00 Ry     beta= 0.50
     Davidson diagonalization with overlap
     ethr =  1.13E-08,  avg # of iterations =  3.0

     total cpu time spent up to now is        7.6 secs

     total energy              =    -501.33645228 Ry
     estimated scf accuracy    <       0.00000981 Ry

     iteration # 19     ecut=    30.00 Ry     beta= 0.50
     Davidson diagonalization with overlap
     ethr =  3.83E-09,  avg # of iterations = 18.0

     total cpu time spent up to now is        7.8 secs

     total energy              =    -501.33645342 Ry
     estimated scf accuracy    <       0.00000775 Ry

     iteration # 20     ecut=    30.00 Ry     beta= 0.50
     Davidson diagonalization with overlap
     ethr =  3.03E-09,  avg # of iterations =  6.0

     total cpu time spent up to now is        7.9 secs

     total energy              =    -501.33645378 Ry
     estimated scf accuracy    <       0.00000417 Ry

     iteration # 21     ecut=    30.00 Ry     beta= 0.50
     Davidson diagonalization with overlap
     ethr =  1.63E-09,  avg # of iterations = 13.0

     total cpu time spent up to now is        8.1 secs

     total energy              =    -501.33645382 Ry
     estimated scf accuracy    <       0.00000214 Ry

     iteration # 22     ecut=    30.00 Ry     beta= 0.50
     Davidson diagonalization with overlap
     ethr =  8.36E-10,  avg # of iterations = 14.0

     total cpu time spent up to now is        8.2 secs

     End of self-consistent calculation

          k = 0.0000 0.0000 0.0000 ( 11288 PWs)   bands (ev):

    -5.3353  -4.4383  -4.2634  -4.1912  -4.0596  -3.9742  -3.8883  -3.4825
    -3.2594  -3.1863  -3.0997  -3.0134  -2.9170  -2.8942  -2.8220  -2.7345
    -2.6822  -2.6269  -2.4523  -2.1113  -1.9093  -1.7773  -1.7065  -1.6700
    -1.5397  -1.4207  -1.0566  -0.9217  -0.8387  -0.6410  -0.4608  -0.4062
    -0.3159  -0.1199   0.0084   0.0354   0.1558   0.2160   0.3188   0.3751
     0.3870   0.4805   0.5799   0.7076   0.7497   0.8955   0.9269   0.9704
     1.0956   1.2787   1.3011   1.3670   1.4159   1.5250   1.6606   1.7775
     1.8238   1.8982   1.9717   2.0504   2.1937   2.2888   2.3700   2.4151
     2.5069   2.5871   2.6609   2.7396   2.7789   2.8163   2.9951   3.0487
     3.1069   3.1314   3.1816   3.4243   3.4353   3.5271   3.6622   3.8399
     3.9597   4.2831   4.3197   4.4310   4.5400   4.5734   4.6365   4.8006
     4.8460   4.9066   4.9655   5.0353   5.1478   5.2315   5.2586   5.2899
     5.3607   5.3866   5.5244   5.5663   5.6110   5.6884   5.6908   5.7093
     5.8142   5.8699   5.8870   5.9980   6.0462   6.0537   6.1095   6.1335
     6.2009   6.3111   6.3392   6.3831   6.4764   6.5140   6.5375   6.5915
     6.6355   6.7136   6.7988   6.9068   7.0061   7.0191   7.0559   7.1142

     highest occupied level (ev):     7.1142

!    total energy              =    -501.33645340 Ry
     estimated scf accuracy    <       0.00000067 Ry

     The total energy is the sum of the following terms:
     one-electron contribution =     190.41783246 Ry
     hartree contribution      =      23.42642887 Ry
     xc contribution           =    -150.87723013 Ry
     ewald contribution        =    -564.30348461 Ry

     convergence has been achieved in  22 iterations

     Forces acting on atoms (cartesian axes, Ry/au):

     atom    1 type  1   force =    -0.04633270    0.02475040   -0.01622238
     atom    2 type  1   force =     0.05195606   -0.01659026   -0.00866859
     atom    3 type  1   force =    -0.03302927   -0.01441428    0.00011758
     atom    4 type  1   force =     0.01148515    0.01658959    0.00242126
     atom    5 type  1   force =    -0.09658568   -0.01081645   -0.02481922
     atom    6 type  1   force =     0.02496668   -0.02923100   -0.02258974
     atom    7 type  1   force =     0.01281925    0.01337661   -0.00757151
     atom    8 type  1   force =    -0.01086178   -0.03708275    0.01506981
     atom    9 type  1   force =    -0.08072425    0.04273827    0.00204428
     atom   10 type  1   force =    -0.00840338    0.00812474   -0.01400595
     atom   11 type  1   force =     0.00397212   -0.04365304    0.01629076
     atom   12 type  1   force =     0.04745991   -0.06846437   -0.01965075
     atom   13 type  1   force =     0.01670552    0.00797383    0.02635181
     atom   14 type  1   force =     0.01785590   -0.06239979   -0.07070788
     atom   15 type  1   force =     0.03208469    0.02173671   -0.00278440
     atom   16 type  1   force =    -0.05523867   -0.00165875   -0.00389527
     atom   17 type  1   force =    -0.01125461    0.04264338    0.01476184
     atom   18 type  1   force =     0.01330478   -0.00601052    0.01246939
     atom   19 type  1   force =    -0.04495807   -0.00515856   -0.04008845
     atom   20 type  1   force =     0.03623550    0.01502985   -0.00580833
     atom   21 type  1   force =    -0.03413094    0.00752137   -0.02089656
     atom   22 type  1   force =    -0.01500670   -0.02088517    0.00832147
     atom   23 type  1   force =    -0.03181515   -0.00032355   -0.02386823
     atom   24 type  1   force =    -0.00000030   -0.00912492    0.00071188
     atom   25 type  1   force =    -0.01793368    0.04362335   -0.02505785
     atom   26 type  1   force =     0.04062177   -0.00836676    0.01811703
     atom   27 type  1   force =     0.00768301    0.01274211    0.00720803
     atom   28 type  1   force =     0.01778044    0.01303902   -0.00033132
     atom   29 type  1   force =    -0.01266967   -0.02697699   -0.01737631
     atom   30 type  1   force =     0.03180652   -0.00900069    0.03885780
     atom   31 type  1   force =    -0.02239455   -0.01568508    0.02137514
     atom   32 type  1   force =     0.03660207   -0.01169385    0.02636392
     atom   33 type  1   force =     0.02789700   -0.00882594    0.01658392
     atom   34 type  1   force =    -0.02961400    0.00517966   -0.01556084
     atom   35 type  1   force =    -0.08594020   -0.00368708   -0.02560999
     atom   36 type  1   force =     0.04381359    0.00274016    0.06913050
     atom   37 type  1   force =    -0.00559854   -0.00208106    0.02616937
     atom   38 type  1   force =    -0.00309624    0.01184520    0.00075709
     atom   39 type  1   force =    -0.01670287    0.00104564   -0.00474243
     atom   40 type  1   force =     0.07812535   -0.02778971   -0.01179202
     atom   41 type  1   force =    -0.05139944   -0.00591771   -0.01347091
     atom   42 type  1   force =     0.00168736   -0.02055077    0.02763536
     atom   43 type  1   force =    -0.00398527    0.02264541    0.04103290
     atom   44 type  1   force =    -0.00474327   -0.00070556    0.01119743
     atom   45 type  1   force =    -0.00461890   -0.00248438    0.00782340
     atom   46 type  1   force =     0.00718453    0.03008417    0.00454567
     atom   47 type  1   force =    -0.01115539   -0.02558830    0.00853291
     atom   48 type  1   force =     0.00700162   -0.01446699    0.02768340
     atom   49 type  1   force =    -0.00682670    0.01774170   -0.00139843
     atom   50 type  1   force =     0.02649050   -0.01657542   -0.01270904
     atom   51 type  1   force =     0.01252582    0.00630524    0.01103895
     atom   52 type  1   force =     0.05842364   -0.00196912   -0.00763764
     atom   53 type  1   force =     0.04050800    0.00522226    0.00051796
     atom   54 type  1   force =    -0.01877927    0.05449979   -0.01625919
     atom   55 type  1   force =     0.01191766    0.00667105   -0.01195863
     atom   56 type  1   force =    -0.00218070    0.01216616    0.02462316
     atom   57 type  1   force =     0.01398814    0.00971755   -0.01331580
     atom   58 type  1   force =    -0.00203483   -0.01615999   -0.01850231
     atom   59 type  1   force =     0.06653516   -0.00233865   -0.00878904
     atom   60 type  1   force =    -0.00256702    0.00844649    0.00221893
     atom   61 type  1   force =    -0.04327470    0.08072664    0.05521286
     atom   62 type  1   force =    -0.00985614    0.00568396   -0.09568796
     atom   63 type  1   force =    -0.00465358   -0.00661093    0.00580155
     atom   64 type  1   force =     0.02892872    0.00267809    0.03078965

     Total force =     0.392579     Total SCF correction =     0.001618


     Computing stress (Cartesian axis) and pressure

          total   stress  (Ry/bohr**3)                   (kbar)     P=      -32.57
  -0.00010221  -0.00001187  -0.00002792          -15.04       -1.75       -4.11
  -0.00001187  -0.00029574   0.00005700           -1.75      -43.50        8.39
  -0.00002792   0.00005700  -0.00026622           -4.11        8.39      -39.16

 
     init_run     :      1.12s CPU      5.05s WALL (       1 calls)
     electrons    :      2.92s CPU      3.09s WALL (       1 calls)
     forces       :      0.04s CPU      0.04s WALL (       1 calls)
     stress       :      0.13s CPU      0.13s WALL (       1 calls)

     Called by init_run:
     wfcinit      :      0.58s CPU      4.33s WALL (       1 calls)
                                        4.33s GPU  (       1 calls)
     potinit      :      0.05s CPU      0.14s WALL (       1 calls)
     hinit0       :      0.47s CPU      0.50s WALL (       1 calls)

     Called by electrons:
     c_bands      :      1.97s CPU      2.05s WALL (      23 calls)
     sum_band     :      0.45s CPU      0.51s WALL (      23 calls)
     v_of_rho     :      0.21s CPU      0.32s WALL (      23 calls)
     mix_rho      :      0.23s CPU      0.24s WALL (      23 calls)

     Called by c_bands:
     init_us_2    :      0.08s CPU      0.09s WALL (      47 calls)
     init_us_2:gp :      0.08s CPU      0.08s WALL (      47 calls)
     regterg      :      1.77s CPU      1.84s WALL (      23 calls)

     Called by *egterg:
     rdiaghg      :      0.90s CPU      1.71s WALL (     250 calls)
                                        1.66s GPU  (     250 calls)
     h_psi        :      1.16s CPU      4.15s WALL (     252 calls)
                                        4.14s GPU  (     252 calls)
     g_psi        :      0.00s CPU      0.01s WALL (     228 calls)
                                        0.00s GPU  (     228 calls)

     Called by h_psi:
     h_psi:calbec :      0.56s CPU      3.47s WALL (     252 calls)
                                        3.47s GPU  (     252 calls)
     vloc_psi     :      0.44s CPU      0.52s WALL (     252 calls)
                                        0.51s GPU  (     252 calls)
     add_vuspsi   :      0.11s CPU      0.14s WALL (     252 calls)
                                        0.14s GPU  (     252 calls)

     General routines
     calbec       :      0.56s CPU      3.47s WALL (     257 calls)
     fft          :      0.66s CPU      0.80s WALL (     191 calls)
                                        0.13s GPU  (     121 calls)
     ffts         :      0.06s CPU      0.07s WALL (      23 calls)
     fftw         :      0.51s CPU      0.67s WALL (    2320 calls)
                                        0.58s GPU  (    2320 calls)
 
     Parallel routines
 
     PWSCF        :      4.25s CPU      8.39s WALL

 
   This run was terminated on:  15:40: 9   9May2023            

=------------------------------------------------------------------------------=
   JOB DONE.
=------------------------------------------------------------------------------=
