An instance of this daemon is already running
An instance of this daemon is already running

     Program PWSCF v.7.1 starts on  9May2023 at 15:40:23 

     This program is part of the open-source Quantum ESPRESSO suite
     for quantum simulation of materials; please cite
         "P. Giannozzi et al., J. Phys.:Condens. Matter 21 395502 (2009);
         "P. Giannozzi et al., J. Phys.:Condens. Matter 29 465901 (2017);
         "P. Giannozzi et al., J. Chem. Phys. 152 154105 (2020);
          URL http://www.quantum-espresso.org", 
     in publications or presentations arising from this work. More details at
     http://www.quantum-espresso.org/quote

     Parallel version (MPI & OpenMP), running on       4 processor cores
     Number of MPI processes:                 4
     Threads/MPI process:                     1

     MPI processes distributed on     1 nodes
     751750 MiB available memory on the printing compute node when the environment starts
 
     Reading input from pw-si-63.in
Warning: card &CELL ignored
Warning: card / ignored

     Current dimensions of program PWSCF are:
     Max number of different atomic species (ntypx) = 10
     Max number of k-points (npk) =  40000
     Max angular momentum in pseudopotentials (lmaxx) =  4

     IMPORTANT: XC functional enforced from input :
     Exchange-correlation= PBE
                           (   1   4   3   4   0   0   0)
     Any further DFT definition will be discarded
     Please, verify this is what you really want


     gamma-point specific algorithms are used
 
     K-points division:     npool     =       2
     R & G space division:  proc/nbgrp/npool/nimage =       2
     Subspace diagonalization in iterative solution of the eigenvalue problem:
     a serial algorithm will be used

     Message from routine divide_et_impera:
     suboptimal parallelization: some nodes have no k-points
 
     Parallelization info
     --------------------
     sticks:   dense  smooth     PW     G-vecs:    dense   smooth      PW
     Min        1904    1904    502                88764    88764   12054
     Max        1905    1905    503                88769    88769   12057
     Sum        3809    3809   1005               177533   177533   24111
 
     Using Slab Decomposition
 


     bravais-lattice index     =            0
     lattice parameter (alat)  =      20.0071  a.u.
     unit-cell volume          =    8008.5376 (a.u.)^3
     number of atoms/cell      =           64
     number of atomic types    =            1
     number of electrons       =       256.00
     number of Kohn-Sham states=          128
     kinetic-energy cutoff     =      30.0000  Ry
     charge density cutoff     =     120.0000  Ry
     scf convergence threshold =      1.0E-06
     mixing beta               =       0.5000
     number of iterations used =            8  plain     mixing
     Exchange-correlation= PBE
                           (   1   4   3   4   0   0   0)

     GPU acceleration is ACTIVE.
     GPU-aware MPI enabled

     Message from routine print_cuda_info:
     High GPU oversubscription detected. Are you sure this is what you want?

     celldm(1)=  20.007112  celldm(2)=   0.000000  celldm(3)=   0.000000
     celldm(4)=   0.000000  celldm(5)=   0.000000  celldm(6)=   0.000000

     crystal axes: (cart. coord. in units of alat)
               a(1) = (   1.000000   0.000000   0.000000 )  
               a(2) = (   0.000000   1.000000   0.000000 )  
               a(3) = (   0.000000   0.000000   1.000000 )  

     reciprocal axes: (cart. coord. in units 2 pi/alat)
               b(1) = (  1.000000  0.000000  0.000000 )  
               b(2) = (  0.000000  1.000000  0.000000 )  
               b(3) = (  0.000000  0.000000  1.000000 )  


     PseudoPot. # 1 for Si read from file:
     /home/ppiaggi/pseudos/Si_ONCV_PBE_sr.upf
     MD5 check sum: 8553c464762ac42b85b1eed164b4d029
     Pseudo is Norm-conserving, Zval =  4.0
     Generated using ONCVPSP code by D. R. Hamann
     Using radial grid of 1510 points,  4 beta functions with: 
                l(1) =   0
                l(2) =   0
                l(3) =   1
                l(4) =   1

     atomic species   valence    mass     pseudopotential
        Si             4.00    28.08500     Si( 1.00)

     No symmetry found



   Cartesian axes

     site n.     atom                  positions (alat units)
         1           Si  tau(   1) = (   0.5536610   0.6516830   0.0864601  )
         2           Si  tau(   2) = (   0.8843650   0.6664550   0.5839710  )
         3           Si  tau(   3) = (   0.6592560   0.2300550   0.0328568  )
         4           Si  tau(   4) = (   0.2456690   0.2801940   0.6038720  )
         5           Si  tau(   5) = (   0.3424610   0.0163910   0.7875330  )
         6           Si  tau(   6) = (   0.9473250   0.3070550   0.0584663  )
         7           Si  tau(   7) = (   0.2015020   0.5437310   0.6609090  )
         8           Si  tau(   8) = (   0.1652270   0.2776050   0.1881240  )
         9           Si  tau(   9) = (   0.5594000   0.3094480   0.3445050  )
        10           Si  tau(  10) = (   0.7843610   0.7253090   0.8172340  )
        11           Si  tau(  11) = (   0.0386495   0.8287640   0.8066360  )
        12           Si  tau(  12) = (   0.9878610   0.4353320   0.7085000  )
        13           Si  tau(  13) = (   0.7613360   0.1474520   0.7857970  )
        14           Si  tau(  14) = (   0.1451950   0.1152850   0.7216560  )
        15           Si  tau(  15) = (   0.5890050   0.8074350   0.7608300  )
        16           Si  tau(  16) = (   0.1767470   0.5211350   0.4062980  )
        17           Si  tau(  17) = (   0.5433290   0.4145610   0.1288620  )
        18           Si  tau(  18) = (   0.0918080   0.6290740   0.9084310  )
        19           Si  tau(  19) = (   0.3378870   0.8878310   0.5904780  )
        20           Si  tau(  20) = (   0.0400138   0.7990900   0.1792160  )
        21           Si  tau(  21) = (   0.5639880   0.8430800   0.5154270  )
        22           Si  tau(  22) = (   0.7652180   0.5368120   0.2627590  )
        23           Si  tau(  23) = (   0.2750590   0.6241420   0.2328730  )
        24           Si  tau(  24) = (   0.1754900   0.9575240   0.9494740  )
        25           Si  tau(  25) = (   0.5917140   0.9950110   0.8885390  )
        26           Si  tau(  26) = (   0.7176010   0.8555720   0.2091750  )
        27           Si  tau(  27) = (   0.9684680   0.0977736   0.9160020  )
        28           Si  tau(  28) = (   0.2533760   0.7616330   0.0230661  )
        29           Si  tau(  29) = (   0.5273630   0.5899140   0.3615100  )
        30           Si  tau(  30) = (   0.8848140   0.3877980   0.4814610  )
        31           Si  tau(  31) = (   0.5794480   0.3616130   0.7819190  )
        32           Si  tau(  32) = (   0.2282780   0.0161528   0.4604900  )
        33           Si  tau(  33) = (   0.5967540   0.0498254   0.4257960  )
        34           Si  tau(  34) = (   0.0051155   0.0536442   0.1680750  )
        35           Si  tau(  35) = (   0.4169550   0.4505060   0.5161610  )
        36           Si  tau(  36) = (   0.4965600   0.8636410   0.1305690  )
        37           Si  tau(  37) = (   0.6700540   0.4900660   0.5570190  )
        38           Si  tau(  38) = (   0.2851040   0.3763650   0.9144510  )
        39           Si  tau(  39) = (   0.4389310   0.7121230   0.9071810  )
        40           Si  tau(  40) = (   0.7281510   0.7466920   0.3903000  )
        41           Si  tau(  41) = (   0.7821980   0.4937260   0.7803120  )
        42           Si  tau(  42) = (   0.9874200   0.5980340   0.3404850  )
        43           Si  tau(  43) = (   0.7171250   0.2266420   0.5581220  )
        44           Si  tau(  44) = (   0.0612854   0.5259470   0.1005870  )
        45           Si  tau(  45) = (   0.2190060   0.9215410   0.2642950  )
        46           Si  tau(  46) = (   0.7733590   0.4732490   0.0391631  )
        47           Si  tau(  47) = (   0.3854640   0.7855160   0.3387680  )
        48           Si  tau(  48) = (   0.4559960   0.2068640   0.6556070  )
        49           Si  tau(  49) = (   0.8126830   0.0387949   0.3610340  )
        50           Si  tau(  50) = (   0.5372760   0.0891467   0.1948990  )
        51           Si  tau(  51) = (   0.0824956   0.3053580   0.4261370  )
        52           Si  tau(  52) = (   0.8430460   0.2633820   0.2740380  )
        53           Si  tau(  53) = (   0.8570940   0.7241480   0.0421958  )
        54           Si  tau(  54) = (   0.9039260   0.9653880   0.6671980  )
        55           Si  tau(  55) = (   0.9801460   0.8476230   0.4083300  )
        56           Si  tau(  56) = (   0.3888550   0.5134410   0.8025240  )
        57           Si  tau(  57) = (   0.3231470   0.1908380   0.3556020  )
        58           Si  tau(  58) = (   0.3060700   0.0808856   0.1104850  )
        59           Si  tau(  59) = (   0.4560690   0.2020500   0.9143630  )
        60           Si  tau(  60) = (   0.0689951   0.3127660   0.8438310  )
        61           Si  tau(  61) = (   0.1464520   0.7626030   0.5635830  )
        62           Si  tau(  62) = (   0.3185950   0.4484690   0.1289620  )
        63           Si  tau(  63) = (   0.0204659   0.0881116   0.5023650  )
        64           Si  tau(  64) = (   0.7815590   0.0306167   0.0921279  )

     number of k points=     1
                       cart. coord. in units 2pi/alat
        k(    1) = (   0.0000000   0.0000000   0.0000000), wk =   2.0000000

     Dense  grid:    88767 G-vectors     FFT dimensions: (  72,  72,  72)

     Estimated max dynamical RAM per process >     131.17 MB

     Estimated total dynamical RAM >     503.00 MB

     Initial potential from superposition of free atoms

     starting charge     255.9608, renormalised to     256.0000
     Starting wfcs are  256 randomized atomic wfcs

     total cpu time spent up to now is        5.0 secs

     Self-consistent Calculation

     iteration #  1     ecut=    30.00 Ry     beta= 0.50
     Davidson diagonalization with overlap
     ethr =  1.00E-02,  avg # of iterations =  2.0

     Threshold (ethr) on eigenvalues was too large:
     Diagonalizing with lowered threshold

     Davidson diagonalization with overlap
     ethr =  3.90E-04,  avg # of iterations =  6.0

     total cpu time spent up to now is        5.3 secs

     total energy              =    -500.97379314 Ry
     estimated scf accuracy    <       1.32806647 Ry

     iteration #  2     ecut=    30.00 Ry     beta= 0.50
     Davidson diagonalization with overlap
     ethr =  5.19E-04,  avg # of iterations =  9.0

     total cpu time spent up to now is        5.4 secs

     total energy              =    -500.27397910 Ry
     estimated scf accuracy    <       9.68622540 Ry

     iteration #  3     ecut=    30.00 Ry     beta= 0.50
     Davidson diagonalization with overlap
     ethr =  5.19E-04,  avg # of iterations =  8.0

     total cpu time spent up to now is        5.5 secs

     total energy              =    -501.16660193 Ry
     estimated scf accuracy    <       1.42284659 Ry

     iteration #  4     ecut=    30.00 Ry     beta= 0.50
     Davidson diagonalization with overlap
     ethr =  5.19E-04,  avg # of iterations =  7.0

     total cpu time spent up to now is        5.6 secs

     total energy              =    -501.28495093 Ry
     estimated scf accuracy    <       0.40135357 Ry

     iteration #  5     ecut=    30.00 Ry     beta= 0.50
     Davidson diagonalization with overlap
     ethr =  1.57E-04,  avg # of iterations = 10.0

     total cpu time spent up to now is        5.8 secs

     total energy              =    -501.29749892 Ry
     estimated scf accuracy    <       0.46115021 Ry

     iteration #  6     ecut=    30.00 Ry     beta= 0.50
     Davidson diagonalization with overlap
     ethr =  1.57E-04,  avg # of iterations =  3.0

     total cpu time spent up to now is        5.9 secs

     total energy              =    -501.33867713 Ry
     estimated scf accuracy    <       0.03303727 Ry

     iteration #  7     ecut=    30.00 Ry     beta= 0.50
     Davidson diagonalization with overlap
     c_bands:  1 eigenvalues not converged
     ethr =  1.29E-05,  avg # of iterations = 20.0

     total cpu time spent up to now is        6.1 secs

     total energy              =    -501.34773622 Ry
     estimated scf accuracy    <       0.11293059 Ry

     iteration #  8     ecut=    30.00 Ry     beta= 0.50
     Davidson diagonalization with overlap
     c_bands:  1 eigenvalues not converged
     ethr =  1.29E-05,  avg # of iterations = 20.0

     total cpu time spent up to now is        6.2 secs

     total energy              =    -501.34682682 Ry
     estimated scf accuracy    <       0.03896749 Ry

     iteration #  9     ecut=    30.00 Ry     beta= 0.50
     Davidson diagonalization with overlap
     ethr =  1.29E-05,  avg # of iterations =  8.0

     total cpu time spent up to now is        6.3 secs

     total energy              =    -501.34930355 Ry
     estimated scf accuracy    <       0.00396029 Ry

     iteration # 10     ecut=    30.00 Ry     beta= 0.50
     Davidson diagonalization with overlap
     c_bands:  1 eigenvalues not converged
     ethr =  1.55E-06,  avg # of iterations = 20.0

     total cpu time spent up to now is        6.5 secs

     total energy              =    -501.35062001 Ry
     estimated scf accuracy    <       0.01533537 Ry

     iteration # 11     ecut=    30.00 Ry     beta= 0.50
     Davidson diagonalization with overlap
     ethr =  1.55E-06,  avg # of iterations = 10.0

     total cpu time spent up to now is        6.7 secs

     total energy              =    -501.35014944 Ry
     estimated scf accuracy    <       0.00824367 Ry

     iteration # 12     ecut=    30.00 Ry     beta= 0.50
     Davidson diagonalization with overlap
     c_bands:  1 eigenvalues not converged
     ethr =  1.55E-06,  avg # of iterations = 20.0

     total cpu time spent up to now is        6.8 secs

     total energy              =    -501.35055202 Ry
     estimated scf accuracy    <       0.00065851 Ry

     iteration # 13     ecut=    30.00 Ry     beta= 0.50
     Davidson diagonalization with overlap
     ethr =  2.57E-07,  avg # of iterations = 10.0

     total cpu time spent up to now is        7.0 secs

     total energy              =    -501.35069822 Ry
     estimated scf accuracy    <       0.00028470 Ry

     iteration # 14     ecut=    30.00 Ry     beta= 0.50
     Davidson diagonalization with overlap
     ethr =  1.11E-07,  avg # of iterations =  7.0

     total cpu time spent up to now is        7.1 secs

     total energy              =    -501.35067141 Ry
     estimated scf accuracy    <       0.00063421 Ry

     iteration # 15     ecut=    30.00 Ry     beta= 0.50
     Davidson diagonalization with overlap
     ethr =  1.11E-07,  avg # of iterations =  6.0

     total cpu time spent up to now is        7.2 secs

     total energy              =    -501.35069947 Ry
     estimated scf accuracy    <       0.00017957 Ry

     iteration # 16     ecut=    30.00 Ry     beta= 0.50
     Davidson diagonalization with overlap
     ethr =  7.01E-08,  avg # of iterations =  3.0

     total cpu time spent up to now is        7.3 secs

     total energy              =    -501.35070388 Ry
     estimated scf accuracy    <       0.00007789 Ry

     iteration # 17     ecut=    30.00 Ry     beta= 0.50
     Davidson diagonalization with overlap
     ethr =  3.04E-08,  avg # of iterations = 16.0

     total cpu time spent up to now is        7.4 secs

     total energy              =    -501.35070890 Ry
     estimated scf accuracy    <       0.00001161 Ry

     iteration # 18     ecut=    30.00 Ry     beta= 0.50
     Davidson diagonalization with overlap
     ethr =  4.54E-09,  avg # of iterations = 12.0

     total cpu time spent up to now is        7.6 secs

     total energy              =    -501.35071052 Ry
     estimated scf accuracy    <       0.00002309 Ry

     iteration # 19     ecut=    30.00 Ry     beta= 0.50
     Davidson diagonalization with overlap
     ethr =  4.54E-09,  avg # of iterations = 12.0

     total cpu time spent up to now is        7.7 secs

     total energy              =    -501.35071236 Ry
     estimated scf accuracy    <       0.00000658 Ry

     iteration # 20     ecut=    30.00 Ry     beta= 0.50
     Davidson diagonalization with overlap
     ethr =  2.57E-09,  avg # of iterations =  3.0

     total cpu time spent up to now is        7.8 secs

     total energy              =    -501.35071275 Ry
     estimated scf accuracy    <       0.00000298 Ry

     iteration # 21     ecut=    30.00 Ry     beta= 0.50
     Davidson diagonalization with overlap
     ethr =  1.16E-09,  avg # of iterations =  8.0

     total cpu time spent up to now is        7.9 secs

     total energy              =    -501.35071267 Ry
     estimated scf accuracy    <       0.00000264 Ry

     iteration # 22     ecut=    30.00 Ry     beta= 0.50
     Davidson diagonalization with overlap
     ethr =  1.03E-09,  avg # of iterations =  7.0

     total cpu time spent up to now is        8.0 secs

     total energy              =    -501.35071273 Ry
     estimated scf accuracy    <       0.00000122 Ry

     iteration # 23     ecut=    30.00 Ry     beta= 0.50
     Davidson diagonalization with overlap
     ethr =  4.78E-10,  avg # of iterations =  7.0

     total cpu time spent up to now is        8.1 secs

     End of self-consistent calculation

          k = 0.0000 0.0000 0.0000 ( 11072 PWs)   bands (ev):

    -5.2849  -4.3122  -4.1996  -4.1586  -4.0595  -3.9010  -3.7172  -3.2277
    -3.1690  -3.0776  -2.9645  -2.9380  -2.8415  -2.7871  -2.6701  -2.5992
    -2.4722  -2.4618  -2.4055  -1.9315  -1.9006  -1.7745  -1.6851  -1.5035
    -1.4480  -1.3175  -1.0492  -0.8456  -0.6285  -0.4298  -0.2263  -0.1682
    -0.0893   0.0102   0.1474   0.1859   0.2619   0.2864   0.3871   0.4717
     0.5854   0.6391   0.7792   0.8204   0.8529   0.9039   1.1034   1.1782
     1.2145   1.4017   1.4096   1.4483   1.5787   1.6444   1.6890   1.7787
     1.8740   1.9345   2.1583   2.1675   2.2320   2.3458   2.4895   2.4962
     2.6692   2.7179   2.7907   2.8583   2.9396   2.9718   3.0464   3.1489
     3.1780   3.3959   3.4067   3.4457   3.5796   3.6237   3.7148   3.8050
     3.9826   4.2903   4.4540   4.6499   4.6601   4.7206   4.7902   4.9144
     4.9717   5.0228   5.0973   5.2097   5.2688   5.3089   5.3993   5.4699
     5.5114   5.6273   5.6741   5.7330   5.7922   5.8057   5.8421   5.9031
     5.9308   5.9864   6.0102   6.0985   6.1614   6.2590   6.2655   6.3270
     6.3954   6.4473   6.5161   6.5774   6.6427   6.7010   6.7207   6.8550
     6.8807   6.9044   6.9363   7.0479   7.1158   7.1542   7.2136   7.2667

     highest occupied level (ev):     7.2667

!    total energy              =    -501.35071237 Ry
     estimated scf accuracy    <       0.00000053 Ry

     The total energy is the sum of the following terms:
     one-electron contribution =     192.07734661 Ry
     hartree contribution      =      23.89671337 Ry
     xc contribution           =    -151.02470632 Ry
     ewald contribution        =    -566.30006603 Ry

     convergence has been achieved in  23 iterations

     Forces acting on atoms (cartesian axes, Ry/au):

     atom    1 type  1   force =     0.02599295   -0.03298315   -0.00022845
     atom    2 type  1   force =    -0.02010257    0.00931588   -0.01376395
     atom    3 type  1   force =     0.01422957    0.00393214   -0.00543040
     atom    4 type  1   force =     0.00069660    0.02655727   -0.03588482
     atom    5 type  1   force =     0.00599083   -0.00441335   -0.00764193
     atom    6 type  1   force =     0.00705466   -0.00288106    0.00733831
     atom    7 type  1   force =    -0.00916682   -0.00103716   -0.00374101
     atom    8 type  1   force =     0.02201150   -0.01446889    0.02690751
     atom    9 type  1   force =    -0.01869483    0.01873861   -0.00998361
     atom   10 type  1   force =     0.03523817   -0.01723940   -0.00334902
     atom   11 type  1   force =    -0.02551482   -0.00411023   -0.03437169
     atom   12 type  1   force =    -0.04428300    0.08953137   -0.10739976
     atom   13 type  1   force =    -0.01314083   -0.01147692   -0.00089263
     atom   14 type  1   force =    -0.02960906    0.01724979   -0.01073036
     atom   15 type  1   force =    -0.00562776    0.02693797   -0.02417119
     atom   16 type  1   force =     0.02071273   -0.01172543    0.02801734
     atom   17 type  1   force =     0.02088640    0.01479203    0.03628803
     atom   18 type  1   force =     0.00991597    0.00110265   -0.00761245
     atom   19 type  1   force =     0.02345182   -0.01370407    0.02740479
     atom   20 type  1   force =    -0.00060732    0.01390796    0.02203890
     atom   21 type  1   force =    -0.03504349    0.01433676    0.04306444
     atom   22 type  1   force =    -0.00143153   -0.00886246    0.02299984
     atom   23 type  1   force =    -0.01031299    0.05062037   -0.00699700
     atom   24 type  1   force =     0.00842409    0.00547262   -0.00125593
     atom   25 type  1   force =     0.02750326    0.02364780    0.00973319
     atom   26 type  1   force =    -0.00108522    0.02197526   -0.04029936
     atom   27 type  1   force =     0.00036059    0.01734910   -0.00122083
     atom   28 type  1   force =    -0.01744912   -0.01705539    0.00492327
     atom   29 type  1   force =     0.01329689   -0.02199270   -0.00469512
     atom   30 type  1   force =    -0.03577021   -0.00276878    0.00631208
     atom   31 type  1   force =    -0.01487765   -0.00057669   -0.01984617
     atom   32 type  1   force =    -0.00296930    0.04140516   -0.01139886
     atom   33 type  1   force =    -0.00514347    0.01823581    0.00113932
     atom   34 type  1   force =    -0.00317178   -0.01450039   -0.00969133
     atom   35 type  1   force =     0.00753636   -0.01554631    0.00743542
     atom   36 type  1   force =    -0.00988595    0.01371474    0.02654085
     atom   37 type  1   force =     0.00606622   -0.00564949   -0.00400212
     atom   38 type  1   force =    -0.04366126   -0.06013717    0.05365077
     atom   39 type  1   force =     0.00234133   -0.03645182   -0.02500277
     atom   40 type  1   force =     0.03688620   -0.06034277    0.06295398
     atom   41 type  1   force =    -0.01328027    0.03176940    0.02405931
     atom   42 type  1   force =    -0.04396572    0.03256400   -0.04433781
     atom   43 type  1   force =    -0.01312475    0.00322911    0.00264818
     atom   44 type  1   force =    -0.00870591    0.00086610    0.02188707
     atom   45 type  1   force =    -0.01527234    0.00339060   -0.01670962
     atom   46 type  1   force =    -0.01226586    0.00877431   -0.02161625
     atom   47 type  1   force =     0.02486659    0.00360035   -0.02257508
     atom   48 type  1   force =     0.00159685   -0.00431481    0.00189312
     atom   49 type  1   force =     0.01852089   -0.01597555   -0.01252312
     atom   50 type  1   force =    -0.02196757   -0.00158270    0.03235699
     atom   51 type  1   force =     0.04477287   -0.02109592   -0.01698114
     atom   52 type  1   force =    -0.01651269    0.01553363   -0.00186627
     atom   53 type  1   force =     0.00598981   -0.02151327   -0.00061359
     atom   54 type  1   force =     0.01844756   -0.00610529    0.00494927
     atom   55 type  1   force =    -0.01236842    0.00419528    0.01306681
     atom   56 type  1   force =     0.04285363    0.05847471   -0.05230678
     atom   57 type  1   force =     0.01386617    0.01634312   -0.00130481
     atom   58 type  1   force =     0.01474509    0.02355860    0.01087791
     atom   59 type  1   force =    -0.01360308   -0.01129346    0.00629253
     atom   60 type  1   force =     0.07410848   -0.10008342    0.09220586
     atom   61 type  1   force =    -0.01578646   -0.03551306    0.02483051
     atom   62 type  1   force =    -0.00896202   -0.06498654   -0.03717005
     atom   63 type  1   force =     0.00258742   -0.00703455    0.03061039
     atom   64 type  1   force =    -0.00758742    0.01629967   -0.03481071

     Total force =     0.372122     Total SCF correction =     0.001444


     Computing stress (Cartesian axis) and pressure

          total   stress  (Ry/bohr**3)                   (kbar)     P=      -31.56
  -0.00025338  -0.00002346  -0.00005406          -37.27       -3.45       -7.95
  -0.00002346  -0.00009936  -0.00007182           -3.45      -14.62      -10.56
  -0.00005406  -0.00007182  -0.00029084           -7.95      -10.56      -42.78

 
     init_run     :      1.35s CPU      4.92s WALL (       1 calls)
     electrons    :      2.97s CPU      3.15s WALL (       1 calls)
     forces       :      0.03s CPU      0.04s WALL (       1 calls)
     stress       :      0.13s CPU      0.14s WALL (       1 calls)

     Called by init_run:
     wfcinit      :      0.81s CPU      4.20s WALL (       1 calls)
                                        4.20s GPU  (       1 calls)
     potinit      :      0.06s CPU      0.15s WALL (       1 calls)
     hinit0       :      0.47s CPU      0.50s WALL (       1 calls)

     Called by electrons:
     c_bands      :      1.99s CPU      2.09s WALL (      24 calls)
     sum_band     :      0.46s CPU      0.51s WALL (      24 calls)
     v_of_rho     :      0.24s CPU      0.34s WALL (      24 calls)
     mix_rho      :      0.24s CPU      0.25s WALL (      24 calls)

     Called by c_bands:
     init_us_2    :      0.08s CPU      0.09s WALL (      49 calls)
     init_us_2:gp :      0.08s CPU      0.09s WALL (      49 calls)
     regterg      :      1.80s CPU      1.88s WALL (      24 calls)

     Called by *egterg:
     rdiaghg      :      0.91s CPU      1.63s WALL (     257 calls)
                                        1.59s GPU  (     257 calls)
     h_psi        :      1.42s CPU      4.15s WALL (     259 calls)
                                        4.14s GPU  (     259 calls)
     g_psi        :      0.00s CPU      0.01s WALL (     234 calls)
                                        0.00s GPU  (     234 calls)

     Called by h_psi:
     h_psi:calbec :      0.80s CPU      3.45s WALL (     259 calls)
                                        3.45s GPU  (     259 calls)
     vloc_psi     :      0.46s CPU      0.54s WALL (     259 calls)
                                        0.54s GPU  (     259 calls)
     add_vuspsi   :      0.11s CPU      0.14s WALL (     259 calls)
                                        0.14s GPU  (     259 calls)

     General routines
     calbec       :      0.81s CPU      3.45s WALL (     264 calls)
     fft          :      0.68s CPU      0.81s WALL (     199 calls)
                                        0.14s GPU  (     126 calls)
     ffts         :      0.06s CPU      0.07s WALL (      24 calls)
     fftw         :      0.53s CPU      0.70s WALL (    2424 calls)
                                        0.61s GPU  (    2424 calls)
 
     Parallel routines
 
     PWSCF        :      4.53s CPU      8.34s WALL

 
   This run was terminated on:  15:40:31   9May2023            

=------------------------------------------------------------------------------=
   JOB DONE.
=------------------------------------------------------------------------------=
