An instance of this daemon is already running
An instance of this daemon is already running

     Program PWSCF v.7.1 starts on  9May2023 at 15:43:25 

     This program is part of the open-source Quantum ESPRESSO suite
     for quantum simulation of materials; please cite
         "P. Giannozzi et al., J. Phys.:Condens. Matter 21 395502 (2009);
         "P. Giannozzi et al., J. Phys.:Condens. Matter 29 465901 (2017);
         "P. Giannozzi et al., J. Chem. Phys. 152 154105 (2020);
          URL http://www.quantum-espresso.org", 
     in publications or presentations arising from this work. More details at
     http://www.quantum-espresso.org/quote

     Parallel version (MPI & OpenMP), running on       4 processor cores
     Number of MPI processes:                 4
     Threads/MPI process:                     1

     MPI processes distributed on     1 nodes
     751754 MiB available memory on the printing compute node when the environment starts
 
     Reading input from pw-si-78.in
Warning: card &CELL ignored
Warning: card / ignored

     Current dimensions of program PWSCF are:
     Max number of different atomic species (ntypx) = 10
     Max number of k-points (npk) =  40000
     Max angular momentum in pseudopotentials (lmaxx) =  4

     IMPORTANT: XC functional enforced from input :
     Exchange-correlation= PBE
                           (   1   4   3   4   0   0   0)
     Any further DFT definition will be discarded
     Please, verify this is what you really want


     gamma-point specific algorithms are used
 
     K-points division:     npool     =       2
     R & G space division:  proc/nbgrp/npool/nimage =       2
     Subspace diagonalization in iterative solution of the eigenvalue problem:
     a serial algorithm will be used

     Message from routine divide_et_impera:
     suboptimal parallelization: some nodes have no k-points
 
     Parallelization info
     --------------------
     sticks:   dense  smooth     PW     G-vecs:    dense   smooth      PW
     Min        1953    1953    519                91815    91815   12442
     Max        1956    1956    522                91820    91820   12443
     Sum        3909    3909   1041               183635   183635   24885
 
     Using Slab Decomposition
 


     bravais-lattice index     =            0
     lattice parameter (alat)  =      20.2185  a.u.
     unit-cell volume          =    8265.0141 (a.u.)^3
     number of atoms/cell      =           64
     number of atomic types    =            1
     number of electrons       =       256.00
     number of Kohn-Sham states=          128
     kinetic-energy cutoff     =      30.0000  Ry
     charge density cutoff     =     120.0000  Ry
     scf convergence threshold =      1.0E-06
     mixing beta               =       0.5000
     number of iterations used =            8  plain     mixing
     Exchange-correlation= PBE
                           (   1   4   3   4   0   0   0)

     GPU acceleration is ACTIVE.
     GPU-aware MPI enabled

     Message from routine print_cuda_info:
     High GPU oversubscription detected. Are you sure this is what you want?

     celldm(1)=  20.218450  celldm(2)=   0.000000  celldm(3)=   0.000000
     celldm(4)=   0.000000  celldm(5)=   0.000000  celldm(6)=   0.000000

     crystal axes: (cart. coord. in units of alat)
               a(1) = (   1.000000   0.000000   0.000000 )  
               a(2) = (   0.000000   1.000000   0.000000 )  
               a(3) = (   0.000000   0.000000   1.000000 )  

     reciprocal axes: (cart. coord. in units 2 pi/alat)
               b(1) = (  1.000000  0.000000  0.000000 )  
               b(2) = (  0.000000  1.000000  0.000000 )  
               b(3) = (  0.000000  0.000000  1.000000 )  


     PseudoPot. # 1 for Si read from file:
     /home/ppiaggi/pseudos/Si_ONCV_PBE_sr.upf
     MD5 check sum: 8553c464762ac42b85b1eed164b4d029
     Pseudo is Norm-conserving, Zval =  4.0
     Generated using ONCVPSP code by D. R. Hamann
     Using radial grid of 1510 points,  4 beta functions with: 
                l(1) =   0
                l(2) =   0
                l(3) =   1
                l(4) =   1

     atomic species   valence    mass     pseudopotential
        Si             4.00    28.08500     Si( 1.00)

     No symmetry found



   Cartesian axes

     site n.     atom                  positions (alat units)
         1           Si  tau(   1) = (   0.7172610   0.9888270   0.2221100  )
         2           Si  tau(   2) = (   0.1878860   0.4990210   0.6011160  )
         3           Si  tau(   3) = (   0.3459360   0.0867383   0.4987240  )
         4           Si  tau(   4) = (   0.2037530   0.2379130   0.5022550  )
         5           Si  tau(   5) = (   0.4068280   0.6731670   0.7255190  )
         6           Si  tau(   6) = (   0.5846380   0.9277060   0.7962910  )
         7           Si  tau(   7) = (   0.5279960   0.8782500   0.3369990  )
         8           Si  tau(   8) = (   0.2345630   0.8861840   0.0070281  )
         9           Si  tau(   9) = (   0.5451440   0.3006050   0.6118680  )
        10           Si  tau(  10) = (   0.1003930   0.4049750   0.2525250  )
        11           Si  tau(  11) = (   0.4778650   0.4843490   0.4645190  )
        12           Si  tau(  12) = (   0.6768170   0.5585120   0.3705970  )
        13           Si  tau(  13) = (   0.1722440   0.8363750   0.6462940  )
        14           Si  tau(  14) = (   0.3011590   0.3841590   0.3391280  )
        15           Si  tau(  15) = (   0.2930450   0.7132510   0.2781300  )
        16           Si  tau(  16) = (   0.3395700   0.6351720   0.4961670  )
        17           Si  tau(  17) = (   0.7919180   0.2415980   0.2389520  )
        18           Si  tau(  18) = (   0.9814880   0.2220530   0.7855000  )
        19           Si  tau(  19) = (   0.7869340   0.1017380   0.7512260  )
        20           Si  tau(  20) = (   0.0121016   0.2069190   0.2592950  )
        21           Si  tau(  21) = (   0.0604387   0.7495250   0.4510740  )
        22           Si  tau(  22) = (   0.9384790   0.2746650   0.5542520  )
        23           Si  tau(  23) = (   0.5438440   0.0603038   0.0617310  )
        24           Si  tau(  24) = (   0.5915050   0.8139270   0.0849622  )
        25           Si  tau(  25) = (   0.7808040   0.5412810   0.8676080  )
        26           Si  tau(  26) = (   0.1087320   0.6252240   0.7825140  )
        27           Si  tau(  27) = (   0.8618800   0.4300380   0.0788990  )
        28           Si  tau(  28) = (   0.0471468   0.3268440   0.9935860  )
        29           Si  tau(  29) = (   0.5687030   0.3970620   0.9268460  )
        30           Si  tau(  30) = (   0.4721390   0.2287240   0.2360970  )
        31           Si  tau(  31) = (   0.3103720   0.0710683   0.1134740  )
        32           Si  tau(  32) = (   0.4195630   0.5537370   0.9799300  )
        33           Si  tau(  33) = (   0.0955483   0.9817200   0.8109020  )
        34           Si  tau(  34) = (   0.5085180   0.6153380   0.1967790  )
        35           Si  tau(  35) = (   0.3380020   0.4029280   0.7729600  )
        36           Si  tau(  36) = (   0.6192290   0.3983580   0.1582230  )
        37           Si  tau(  37) = (   0.2036170   0.2173130   0.7293670  )
        38           Si  tau(  38) = (   0.7654010   0.4143710   0.5504010  )
        39           Si  tau(  39) = (   0.7633560   0.1206340   0.4965190  )
        40           Si  tau(  40) = (   0.1246970   0.6236620   0.1545680  )
        41           Si  tau(  41) = (   0.2094060   0.5081860   0.9712820  )
        42           Si  tau(  42) = (   0.2972490   0.9472860   0.3147120  )
        43           Si  tau(  43) = (   0.6902880   0.7691460   0.4480850  )
        44           Si  tau(  44) = (   0.4286170   0.7869640   0.9275570  )
        45           Si  tau(  45) = (   0.9236410   0.5953350   0.2378760  )
        46           Si  tau(  46) = (   0.8853140   0.7486120   0.6106580  )
        47           Si  tau(  47) = (   0.0369800   0.7613290   0.9577500  )
        48           Si  tau(  48) = (   0.9110820   0.5353400   0.7030350  )
        49           Si  tau(  49) = (   0.8360560   0.9362800   0.4131770  )
        50           Si  tau(  50) = (   0.5566410   0.1266520   0.4151250  )
        51           Si  tau(  51) = (   0.0779231   0.9005430   0.2372350  )
        52           Si  tau(  52) = (   0.6060100   0.5112910   0.7050980  )
        53           Si  tau(  53) = (   0.0788684   0.1261720   0.0719452  )
        54           Si  tau(  54) = (   0.3744840   0.9377530   0.6673860  )
        55           Si  tau(  55) = (   0.3344580   0.0717703   0.8523810  )
        56           Si  tau(  56) = (   0.8636670   0.7827100   0.1486200  )
        57           Si  tau(  57) = (   0.7408010   0.1854750   0.0068764  )
        58           Si  tau(  58) = (   0.5369040   0.1780270   0.8298560  )
        59           Si  tau(  59) = (   0.8863500   0.8835970   0.7960180  )
        60           Si  tau(  60) = (   0.0469227   0.0539743   0.4163550  )
        61           Si  tau(  61) = (   0.8894340   0.0040078   0.0261197  )
        62           Si  tau(  62) = (   0.7531000   0.7325270   0.9331830  )
        63           Si  tau(  63) = (   0.0120167   0.5129580   0.4592480  )
        64           Si  tau(  64) = (   0.6465010   0.7487470   0.6833820  )

     number of k points=     1
                       cart. coord. in units 2pi/alat
        k(    1) = (   0.0000000   0.0000000   0.0000000), wk =   2.0000000

     Dense  grid:    91818 G-vectors     FFT dimensions: (  72,  72,  72)

     Estimated max dynamical RAM per process >     134.93 MB

     Estimated total dynamical RAM >     517.30 MB

     Initial potential from superposition of free atoms

     starting charge     255.9608, renormalised to     256.0000
     Starting wfcs are  256 randomized atomic wfcs

     total cpu time spent up to now is        4.8 secs

     Self-consistent Calculation

     iteration #  1     ecut=    30.00 Ry     beta= 0.50
     Davidson diagonalization with overlap
     ethr =  1.00E-02,  avg # of iterations =  2.0

     Threshold (ethr) on eigenvalues was too large:
     Diagonalizing with lowered threshold

     Davidson diagonalization with overlap
     ethr =  3.81E-04,  avg # of iterations =  4.0

     total cpu time spent up to now is        5.0 secs

     total energy              =    -501.31270051 Ry
     estimated scf accuracy    <       1.19881971 Ry

     iteration #  2     ecut=    30.00 Ry     beta= 0.50
     Davidson diagonalization with overlap
     ethr =  4.68E-04,  avg # of iterations = 14.0

     total cpu time spent up to now is        5.2 secs

     total energy              =    -501.02279012 Ry
     estimated scf accuracy    <       3.18921697 Ry

     iteration #  3     ecut=    30.00 Ry     beta= 0.50
     Davidson diagonalization with overlap
     ethr =  4.68E-04,  avg # of iterations = 11.0

     total cpu time spent up to now is        5.3 secs

     total energy              =    -501.34846395 Ry
     estimated scf accuracy    <       1.96853966 Ry

     iteration #  4     ecut=    30.00 Ry     beta= 0.50
     Davidson diagonalization with overlap
     ethr =  4.68E-04,  avg # of iterations =  6.0

     total cpu time spent up to now is        5.4 secs

     total energy              =    -501.49996207 Ry
     estimated scf accuracy    <       0.34854303 Ry

     iteration #  5     ecut=    30.00 Ry     beta= 0.50
     Davidson diagonalization with overlap
     ethr =  1.36E-04,  avg # of iterations =  7.0

     total cpu time spent up to now is        5.5 secs

     total energy              =    -501.52152353 Ry
     estimated scf accuracy    <       0.29116088 Ry

     iteration #  6     ecut=    30.00 Ry     beta= 0.50
     Davidson diagonalization with overlap
     ethr =  1.14E-04,  avg # of iterations =  9.0

     total cpu time spent up to now is        5.7 secs

     total energy              =    -501.55375223 Ry
     estimated scf accuracy    <       0.04839474 Ry

     iteration #  7     ecut=    30.00 Ry     beta= 0.50
     Davidson diagonalization with overlap
     ethr =  1.89E-05,  avg # of iterations =  8.0

     total cpu time spent up to now is        5.8 secs

     total energy              =    -501.55814882 Ry
     estimated scf accuracy    <       0.02639924 Ry

     iteration #  8     ecut=    30.00 Ry     beta= 0.50
     Davidson diagonalization with overlap
     ethr =  1.03E-05,  avg # of iterations =  6.0

     total cpu time spent up to now is        5.9 secs

     total energy              =    -501.55995910 Ry
     estimated scf accuracy    <       0.01002912 Ry

     iteration #  9     ecut=    30.00 Ry     beta= 0.50
     Davidson diagonalization with overlap
     ethr =  3.92E-06,  avg # of iterations = 10.0

     total cpu time spent up to now is        6.0 secs

     total energy              =    -501.56090891 Ry
     estimated scf accuracy    <       0.00122576 Ry

     iteration # 10     ecut=    30.00 Ry     beta= 0.50
     Davidson diagonalization with overlap
     ethr =  4.79E-07,  avg # of iterations = 11.0

     total cpu time spent up to now is        6.2 secs

     total energy              =    -501.56115756 Ry
     estimated scf accuracy    <       0.00302283 Ry

     iteration # 11     ecut=    30.00 Ry     beta= 0.50
     Davidson diagonalization with overlap
     ethr =  4.79E-07,  avg # of iterations =  6.0

     total cpu time spent up to now is        6.3 secs

     total energy              =    -501.56115258 Ry
     estimated scf accuracy    <       0.00126775 Ry

     iteration # 12     ecut=    30.00 Ry     beta= 0.50
     Davidson diagonalization with overlap
     ethr =  4.79E-07,  avg # of iterations =  7.0

     total cpu time spent up to now is        6.4 secs

     total energy              =    -501.56121716 Ry
     estimated scf accuracy    <       0.00013406 Ry

     iteration # 13     ecut=    30.00 Ry     beta= 0.50
     Davidson diagonalization with overlap
     ethr =  5.24E-08,  avg # of iterations = 13.0

     total cpu time spent up to now is        6.5 secs

     total energy              =    -501.56128244 Ry
     estimated scf accuracy    <       0.00093379 Ry

     iteration # 14     ecut=    30.00 Ry     beta= 0.50
     Davidson diagonalization with overlap
     ethr =  5.24E-08,  avg # of iterations =  6.0

     total cpu time spent up to now is        6.7 secs

     total energy              =    -501.56126761 Ry
     estimated scf accuracy    <       0.00044863 Ry

     iteration # 15     ecut=    30.00 Ry     beta= 0.50
     Davidson diagonalization with overlap
     ethr =  5.24E-08,  avg # of iterations =  8.0

     total cpu time spent up to now is        6.8 secs

     total energy              =    -501.56128027 Ry
     estimated scf accuracy    <       0.00009762 Ry

     iteration # 16     ecut=    30.00 Ry     beta= 0.50
     Davidson diagonalization with overlap
     ethr =  3.81E-08,  avg # of iterations =  2.0

     total cpu time spent up to now is        6.9 secs

     total energy              =    -501.56128060 Ry
     estimated scf accuracy    <       0.00003788 Ry

     iteration # 17     ecut=    30.00 Ry     beta= 0.50
     Davidson diagonalization with overlap
     ethr =  1.48E-08,  avg # of iterations = 10.0

     total cpu time spent up to now is        7.0 secs

     total energy              =    -501.56128815 Ry
     estimated scf accuracy    <       0.00001622 Ry

     iteration # 18     ecut=    30.00 Ry     beta= 0.50
     Davidson diagonalization with overlap
     ethr =  6.34E-09,  avg # of iterations =  5.0

     total cpu time spent up to now is        7.1 secs

     total energy              =    -501.56128851 Ry
     estimated scf accuracy    <       0.00002291 Ry

     iteration # 19     ecut=    30.00 Ry     beta= 0.50
     Davidson diagonalization with overlap
     ethr =  6.34E-09,  avg # of iterations =  2.0

     total cpu time spent up to now is        7.2 secs

     total energy              =    -501.56128747 Ry
     estimated scf accuracy    <       0.00001919 Ry

     iteration # 20     ecut=    30.00 Ry     beta= 0.50
     Davidson diagonalization with overlap
     ethr =  6.34E-09,  avg # of iterations =  2.0

     total cpu time spent up to now is        7.3 secs

     total energy              =    -501.56128685 Ry
     estimated scf accuracy    <       0.00001069 Ry

     iteration # 21     ecut=    30.00 Ry     beta= 0.50
     Davidson diagonalization with overlap
     ethr =  4.18E-09,  avg # of iterations = 13.0

     total cpu time spent up to now is        7.4 secs

     total energy              =    -501.56128760 Ry
     estimated scf accuracy    <       0.00000178 Ry

     iteration # 22     ecut=    30.00 Ry     beta= 0.50
     Davidson diagonalization with overlap
     ethr =  6.95E-10,  avg # of iterations =  9.0

     total cpu time spent up to now is        7.5 secs

     End of self-consistent calculation

          k = 0.0000 0.0000 0.0000 ( 11492 PWs)   bands (ev):

    -5.4284  -4.5411  -4.3852  -4.2840  -4.2336  -4.1130  -4.0898  -3.4211
    -3.3689  -3.3235  -3.3044  -3.2142  -3.1704  -3.0454  -2.9938  -2.8628
    -2.8322  -2.7454  -2.5659  -2.2081  -2.1429  -2.0627  -1.9180  -1.7080
    -1.6290  -1.5793  -1.4593  -1.1393  -0.9273  -0.9138  -0.7450  -0.6643
    -0.6051  -0.3046  -0.1165  -0.0654  -0.0247  -0.0035   0.0876   0.1669
     0.2699   0.3247   0.4252   0.4711   0.5789   0.6065   0.7316   0.7996
     0.8444   0.8788   1.0390   1.0657   1.1415   1.3136   1.3214   1.5721
     1.6253   1.8495   1.8799   1.9445   1.9939   2.1389   2.1913   2.3130
     2.3387   2.4836   2.5335   2.7004   2.7392   2.7637   2.8351   2.9510
     2.9706   3.0838   3.1471   3.2503   3.2895   3.3447   3.4950   3.5840
     3.6381   3.8864   4.0455   4.2154   4.3060   4.3426   4.3745   4.4919
     4.5687   4.6327   4.7110   4.7958   4.8868   4.9233   5.0030   5.0658
     5.0895   5.1837   5.2657   5.2864   5.2915   5.3599   5.4432   5.5339
     5.5707   5.6409   5.6847   5.7384   5.7530   5.7886   5.8068   5.9287
     5.9910   6.0500   6.1215   6.1768   6.2234   6.2447   6.3667   6.4312
     6.4989   6.5410   6.6241   6.6608   6.7029   6.7689   6.8476   6.9407

     highest occupied level (ev):     6.9407

!    total energy              =    -501.56128711 Ry
     estimated scf accuracy    <       0.00000096 Ry

     The total energy is the sum of the following terms:
     one-electron contribution =     181.66913948 Ry
     hartree contribution      =      25.77415678 Ry
     xc contribution           =    -150.64206319 Ry
     ewald contribution        =    -558.36252017 Ry

     convergence has been achieved in  22 iterations

     Forces acting on atoms (cartesian axes, Ry/au):

     atom    1 type  1   force =    -0.00847116   -0.02156098   -0.02027213
     atom    2 type  1   force =     0.02789999    0.00100960    0.00170236
     atom    3 type  1   force =     0.06550617   -0.07112360   -0.00427852
     atom    4 type  1   force =    -0.03210467    0.05650689    0.00876106
     atom    5 type  1   force =     0.01675453   -0.00023651   -0.01321024
     atom    6 type  1   force =    -0.04926867   -0.01561170    0.00264452
     atom    7 type  1   force =     0.00014128    0.03662405   -0.01330836
     atom    8 type  1   force =    -0.01988997   -0.00082478   -0.03641090
     atom    9 type  1   force =    -0.02431413    0.01912375   -0.00392766
     atom   10 type  1   force =     0.00283499    0.04100400    0.03080316
     atom   11 type  1   force =     0.03699174   -0.05669956   -0.00081518
     atom   12 type  1   force =     0.00696578   -0.00412657   -0.00704830
     atom   13 type  1   force =    -0.00328496   -0.03716068    0.01838342
     atom   14 type  1   force =     0.02869598   -0.03960851    0.02017589
     atom   15 type  1   force =     0.02127379    0.00332268    0.01281914
     atom   16 type  1   force =    -0.05429796    0.03350266    0.02893149
     atom   17 type  1   force =    -0.00801674    0.00201149   -0.02336638
     atom   18 type  1   force =     0.02592749    0.02764084   -0.00714473
     atom   19 type  1   force =    -0.01208809   -0.01394822   -0.00369812
     atom   20 type  1   force =    -0.01718371   -0.01117815    0.01778592
     atom   21 type  1   force =    -0.01066319    0.01230320    0.02395444
     atom   22 type  1   force =     0.01020212    0.00575447    0.00790198
     atom   23 type  1   force =     0.02960148   -0.00540231   -0.02001775
     atom   24 type  1   force =     0.01081550    0.00686470    0.01500736
     atom   25 type  1   force =    -0.03390149   -0.07975703    0.04056516
     atom   26 type  1   force =     0.00789124    0.00875842   -0.01265467
     atom   27 type  1   force =    -0.01487252   -0.00118649   -0.00070416
     atom   28 type  1   force =    -0.00072182    0.02981597   -0.03778136
     atom   29 type  1   force =     0.01653863   -0.02246685   -0.01867611
     atom   30 type  1   force =    -0.01580774    0.02492609    0.00232781
     atom   31 type  1   force =    -0.01613468   -0.01624930    0.00561609
     atom   32 type  1   force =     0.01629390    0.02941185    0.01387229
     atom   33 type  1   force =     0.00299129   -0.00857942    0.02038606
     atom   34 type  1   force =    -0.01349082    0.00904019   -0.00899954
     atom   35 type  1   force =     0.00612626    0.00342894   -0.00968617
     atom   36 type  1   force =     0.01113207   -0.01159222   -0.00395013
     atom   37 type  1   force =    -0.01119756    0.01272338    0.00641052
     atom   38 type  1   force =    -0.00951956    0.03552464    0.01382447
     atom   39 type  1   force =    -0.00211639    0.01675126    0.01977101
     atom   40 type  1   force =     0.01736934   -0.00210503   -0.02746104
     atom   41 type  1   force =    -0.04803892   -0.01731390   -0.01925939
     atom   42 type  1   force =     0.01434730    0.00024701   -0.01189283
     atom   43 type  1   force =    -0.00300789   -0.01701599    0.03747391
     atom   44 type  1   force =    -0.01777481   -0.01053824   -0.02099476
     atom   45 type  1   force =    -0.02365113   -0.06093338    0.01679202
     atom   46 type  1   force =    -0.00616227   -0.01280446   -0.00930367
     atom   47 type  1   force =     0.00266019    0.00317021    0.01136562
     atom   48 type  1   force =     0.01968659    0.01431893   -0.03856070
     atom   49 type  1   force =     0.02569992   -0.01188744    0.00186124
     atom   50 type  1   force =    -0.02601693   -0.01645226   -0.00181004
     atom   51 type  1   force =    -0.00210586   -0.01639219    0.00679121
     atom   52 type  1   force =     0.00090567    0.02138134   -0.01000812
     atom   53 type  1   force =     0.02583170   -0.03780501    0.00781222
     atom   54 type  1   force =     0.01834643    0.01857069    0.00971372
     atom   55 type  1   force =    -0.01167250   -0.00748566    0.00166249
     atom   56 type  1   force =     0.00468019    0.07604629   -0.04747471
     atom   57 type  1   force =    -0.02188182   -0.00311215   -0.00508082
     atom   58 type  1   force =     0.01773352    0.04955495    0.02027014
     atom   59 type  1   force =    -0.01245441   -0.00115050    0.03660417
     atom   60 type  1   force =     0.00168432    0.00374437   -0.00483179
     atom   61 type  1   force =     0.01681225   -0.01937226    0.01337122
     atom   62 type  1   force =     0.00893935    0.10348717    0.02129029
     atom   63 type  1   force =     0.00860396   -0.01115515   -0.02962588
     atom   64 type  1   force =     0.00222738   -0.04373353   -0.02439823

     Total force =     0.338386     Total SCF correction =     0.001880


     Computing stress (Cartesian axis) and pressure

          total   stress  (Ry/bohr**3)                   (kbar)     P=      -38.81
  -0.00022080  -0.00011248  -0.00006029          -32.48      -16.55       -8.87
  -0.00011248  -0.00022416   0.00006954          -16.55      -32.98       10.23
  -0.00006029   0.00006954  -0.00034654           -8.87       10.23      -50.98

 
     init_run     :      1.16s CPU      4.70s WALL (       1 calls)
     electrons    :      2.58s CPU      2.75s WALL (       1 calls)
     forces       :      0.04s CPU      0.04s WALL (       1 calls)
     stress       :      0.14s CPU      0.14s WALL (       1 calls)

     Called by init_run:
     wfcinit      :      0.60s CPU      3.98s WALL (       1 calls)
                                        3.98s GPU  (       1 calls)
     potinit      :      0.06s CPU      0.14s WALL (       1 calls)
     hinit0       :      0.47s CPU      0.49s WALL (       1 calls)

     Called by electrons:
     c_bands      :      1.65s CPU      1.72s WALL (      23 calls)
     sum_band     :      0.43s CPU      0.49s WALL (      23 calls)
     v_of_rho     :      0.23s CPU      0.33s WALL (      23 calls)
     mix_rho      :      0.23s CPU      0.25s WALL (      23 calls)

     Called by c_bands:
     init_us_2    :      0.08s CPU      0.09s WALL (      47 calls)
     init_us_2:gp :      0.08s CPU      0.09s WALL (      47 calls)
     regterg      :      1.46s CPU      1.51s WALL (      23 calls)

     Called by *egterg:
     rdiaghg      :      0.68s CPU      1.39s WALL (     193 calls)
                                        1.36s GPU  (     193 calls)
     h_psi        :      1.13s CPU      3.84s WALL (     195 calls)
                                        3.83s GPU  (     195 calls)
     g_psi        :      0.00s CPU      0.01s WALL (     171 calls)
                                        0.00s GPU  (     171 calls)

     Called by h_psi:
     h_psi:calbec :      0.59s CPU      3.22s WALL (     195 calls)
                                        3.22s GPU  (     195 calls)
     vloc_psi     :      0.43s CPU      0.50s WALL (     195 calls)
                                        0.49s GPU  (     195 calls)
     add_vuspsi   :      0.08s CPU      0.10s WALL (     195 calls)
                                        0.10s GPU  (     195 calls)

     General routines
     calbec       :      0.60s CPU      3.22s WALL (     200 calls)
     fft          :      0.69s CPU      0.81s WALL (     191 calls)
                                        0.14s GPU  (     121 calls)
     ffts         :      0.07s CPU      0.07s WALL (      23 calls)
     fftw         :      0.49s CPU      0.65s WALL (    2218 calls)
                                        0.56s GPU  (    2218 calls)
 
     Parallel routines
 
     PWSCF        :      3.96s CPU      7.72s WALL

 
   This run was terminated on:  15:43:33   9May2023            

=------------------------------------------------------------------------------=
   JOB DONE.
=------------------------------------------------------------------------------=
