-0.5903306851478802 0.6108737994065544 -0.8532380675742209 0.015366712264057407 -1.4772851711379398 -0.9370380329100121 -1.5612609999299627 -0.6366066853962843 -0.22091484004463888 -0.34393749832647863 2.0675757470765035 0.945657656258223 0.7316341440167786 -0.46160429161304367 0.7014223963200887 -0.14809939874480946 -1.2668162090169732 -0.9366721649301609 -1.6042387890430694 -1.7205326132415077 -1.2916486946796206 0.7488232542015555 -0.1005859265448784 0.755150481971164 -2.151653905774346 1.3433772334021639 1.0418698792154382 -1.2161063413669315 -1.6286534704420081 -0.8915045672545872 -1.3529211683368572 -0.2707860138434691 0.25186886522399204 0.16149356066352835 0.6451903133002372 0.6766346478524476 -0.38860758754034364 0.8996541929449151 0.6368699663599999 -0.2612287091723372 -0.8775295931317338 -1.2687849027075695 -0.34815127929751005 -1.4035683010697633 0.26213476592637436 1.506775981508205 1.3022894622229184 0.5043707360462927 1.5742103610017792 1.8895080841043779 -0.06432720132316018 -1.6713993460499668 0.12102028313983028 0.14699125328229523 1.6612260050613905 0.7301349337634329 -0.397775884303173 0.5402851905547147 -1.6539652097339193 -0.30879720297991975 1.184328277624386 1.220989894711478 0.9050933616826154 -1.0767042132858036 -1.4448077673355246 -1.1094459264931988 -0.040683079541658965 -0.4244209976945271 0.935090679375654 1.0421545003353923 -2.0755633932676703 -1.7944610850998581 2.2170530000054463 0.4242806154619209 0.25996604040982974 -0.00725848133462621 -1.1814399003329974 0.2619203359227231 -1.5813030061825024 1.3489572985931026 -1.6629833540721295 -0.32314010196515314 2.4178996085453006 -0.6511665854883302 0.9199319693573447 -1.713672652896881 1.6178049577632783 -0.04355654443471208 1.1808472610543213 -0.6076681479850632 -0.5263444121039065 0.1338133211394405 0.1359735620155529 0.5510791958464251 -0.28181373241254043 1.6973356062997542 0.27184736522844793 1.6516453033514908 1.2719005655184161 -0.9162907730603317 -1.03301628547955 -0.26486424904239547 -0.16322776974581565 -0.046114020749243166 0.6334457711697993 1.294554555472506 1.8316587771960775 0.49709811364427936 -0.3529800681447211 0.6398920410157755 -0.19076736992698115 -0.4856687887614152 0.01497770435575485 0.015817426648230826 0.5309330599158534 0.6520356183568449 0.49942753310840443 -0.9622659542388653 -0.2515132816567862 -0.7725406524231534 0.07446968907380078 -0.9274930695340543 1.2106124081318956 0.5558545057478814 -0.04384219399593095 -2.187262141896259 -2.1882980393599407 1.9508517773191818 -2.435628907504263 2.044476184944563 -1.617135185389763 1.2366224590424124 0.554312100961426 1.1909411549552134 -0.17195357965458774 0.41586873724914186 -0.0731586835718611 0.13863568222874834 0.9431318045125757 0.4229349000673039 0.459941302088324 -0.8242992730526837 -1.7001674193215945 1.101684023159593 0.8978307665829312 0.2663891703273541 0.34135045432559274 1.0256094514925174 -1.4423343660943675 0.7487924009636201 0.2963263242064187 -0.8842206319986642 -0.6449931096877666 0.39679912221220054 -0.6577735492818865 -0.12173607825993228 0.8592613909501653 0.5032679899004171 0.19099568388770333 -0.049547214800508214 -1.4561661297711375 0.40084141060237416 0.5453749463727963 -1.7204264266809468 -0.47639996186497946 0.5757440455829568 -0.16713250411686056 -0.5599399886711647 0.24126203624242323 1.2449381779969593 -0.6336743422408377 -1.0803271547503717 1.3387659598823975 -0.4443221074938283 -1.3840600558335068 -0.8983084775502981 0.6671318505683349 0.5947506685924466 0.640169205936562 1.4087236200184579 -0.26695224191967576 0.7968401484004664 -1.4558005189016026 -0.027750944861023176 1.0167355460416554 -0.02085627462371892 0.06475966087488848 0.7373962433115365 0.24414295733464403 -1.0989339712182815 0.30260161569216915 0.5738470856705601
-0.6156969318268106 -0.8671006844889261 1.1139983217505718 2.3457053457692374 2.1524848863160737 -1.5603284608133643 -0.7086253418264312 -0.5327446592032955 0.08345080952648853 0.9672304973329922 0.29058350818537054 4.840943737406017 1.05511440293017 -0.3680415904635339 1.869940960605728 -1.0176760555780537 -1.142183525935536 0.8501164912261037 -0.01788870735496274 -0.1723191905241226 -1.2375459992979463 -0.3575152370109133 -0.7917956439980234 2.8965364301605985 0.03373235925543868 -0.30300167934406524 -1.3116649899005477 2.2066390037609738 -0.4440205170930095 1.2261153888635015 0.1196275165573617 0.11841215609302189 2.0137700141099577 1.7932408395395119 0.17952933511931662 -0.34794867636840077 -0.5978323928415639 0.30046528607545675 -0.7015581505670047 -0.83289395670023 0.2133694235972132 0.4572910089496705 -1.6442235569661232 0.25236637368570086 2.6053517980561196 0.6873078112955775 1.0591703181670986 1.0270927209062632 0.5931869236497526 0.3002922508327022 -0.10649637849204241 -0.6157550387582557 0.45224367633375023 -0.12673353147452368 1.764701080228606 -0.679404754398417 0.9511809000692973 0.402054714184185 -0.6281397855758537 3.009927221779629 -0.26254897064565746 0.6346971270783972 -0.22395028443685303 0.2508388812975809 -0.10833163192856826 0.10754487436121478 0.8990492123710645 -1.401380035169193 1.5969216865563658 -1.4553253790373968 1.4466245088292893 -0.16672241316263545 0.4603138549363943 -1.578292758601269 -0.009325391165983939 -0.7796939756384831 0.7460721738189796 0.5694278735569418 0.5256203894536883 -0.7372316927092142 0.3556745842577487 0.8160059226956399 -1.5115957714943515 -0.2863435019620939 -0.02051534634453241 0.22495584288323192 -0.7254053894982475 0.47898494898333643 -0.22348131522023446 -1.1100051414307788 -1.512662522195969 -1.9424609821523258 1.7127817656514956 -1.5501132108432594 0.24269516914452396 0.3141911203019815 -1.4677412362032465 -0.509280257532768 0.3591268044724073 0.5331071847490367 -0.9783980839140375 0.6187326333293408 0.10415281796053029 -0.5178150344766566 -0.15018173519513492 0.9835580308484223 0.12036130939959272 1.073516045365809 -1.3389834752098424 0.8093156551596576 -1.2020526914873426 0.8514678630476755 0.24096841626140436 -1.8288043384664183 0.5695728837752384 -0.8918524375123092 1.533337019826185 0.08066759035439655 0.7675308579133878 -0.930817763031913 -0.6622765793585627 0.06595393829330577 -0.11597552162707124 0.9988710070564089 0.7226846481329748 0.208198420919235 -0.5769203252792451 1.5784097437951075 -0.7402738219696476 0.46067869447498083 -0.599621880641819 0.22771309391339495 -0.31207021730423673 0.10885947940758027 1.0278116013501588 -0.012584778643546068 0.5032970433661397 0.6145849297095545 -1.4018130089415535 -0.9485113236569341 -0.6567533355474883 0.2725204800360726 2.245159014213043 0.4556982105412539 -0.9523800625837212 0.4635521593680339 -0.9666669115200386 0.2881005938625167 -0.2093795857115297 -0.3950224899277519 2.3154881987559093 -2.2152961652153396 -3.692510631016344 0.2282149732504779 -0.20911450497560113 1.635764370455176 0.28969596337409464 -0.6481493959285611 0.33307767279383926 -0.7075418789542653 -0.22110098791351598 -2.1264514383667894 -1.8767060472437032 2.8161642595594336 -3.2416517508452625 -1.3008673850644112 0.733602323486743 0.23452420329795737 -0.048356279816200595 -0.6493243900732688 -4.2656529773103955 -0.6307921355970362 -0.08466154200513808 -1.247981335698657 0.07373486779030526 -0.695554367575086 -0.3148264398931352 -0.1161974078298902 1.1858544844609253 -1.0240760455671265 0.14178991158701387 -0.7919913049485974 0.21143569690961003 -0.40747845630291757 1.137816250105776 -2.300242071230116 0.7028246759842541 0.46679303490283475 -0.6875767486862481 -0.4921235432478234 1.0212930835053506 -2.3342323121326314
0.10152180809558645 0.7650466580389533 -0.8635618180977321 -1.085804632925175 -0.25229412568686876 0.019570465932759844 0.10170898440572808 2.560850116099319 0.9494099242118036 -1.4391251151284503 1.2934404964727206 0.7885928207900097 0.29370019943748127 0.49639980202567413 -0.46429366551974877 0.22957225860932076 1.4023421419721462 -0.9952825183742021 1.3110929194471614 -0.758039630593501 -0.05212346016811668 -0.9197373368480354 -0.023890176354036275 1.1390992305832577 1.0863463643612583 1.493975744419743 -0.18580591215664774 -1.4571243799193487 -0.020461610288461534 -1.515620062162396 -1.2617958729842464 -0.5663605474855278 -1.171407712907976 -0.4731562581167012 -0.9601039135905401 -0.39146254049063545 0.2554234153444698 0.9840632526196148 1.4993028130596115 -0.886705346093731 1.0619393962718033 -0.2110754853567139 -0.041334854193044945 -0.5958127913083738 -0.28955403847959166 0.5785514331247649 0.5424765417790787 0.38300643930348227 1.7040420717856524 1.5614769725955109 0.9050887336969251 -0.07471780052886487 -0.25814441382005865 -1.1775793889363269 -1.8351793887548264 -2.1552573068548884 -1.5089189959931368 0.546906295415658 0.6524287400302055 -0.0017984866613194833 0.30687196093274893 -2.205182473820105 -1.3216799509343884 -0.12332296313107795 -0.8745656254074036 0.652089868633548 0.20111168927578268 -0.5472045433823672 0.8446225579910679 -0.23099073622340216 -1.5266153848316353 0.09575610925640284 0.6222234200914187 0.6337622739689537 -0.521102704088993 0.26715330218688826 -0.21630202386297587 0.03653126215681451 0.6533479094103651 -0.44792216614026087 0.36470327011892023 0.04432144762519464 -0.8668877971471716 0.43792237461507166 0.1021131618226822 1.5579355351011557 -0.9920010194094527 -0.07324790085155773 0.6135780857115949 0.06899041112678442 -0.2686373429315825 0.19347474155581518 -1.1716409119647047 -0.5684503401350209 0.8282055500856252 0.9320596058588142 0.7878801109937011 1.065859814372132 -0.3946244831583849 -0.7687922411243147 0.31024447694940765 1.0639386860900193 -0.9847291683383879 -0.6544966783028275 -0.16547568523972792 -0.09897050242864246 -1.0340994912413994 0.5918476360130387 1.2421071363060672 -0.017170084021383335 -1.3567626535701343 -1.12184044350281 -0.7016836204012754 0.017333349072124988 0.5986114370994335 0.8045586000906465 -0.3646122530670108 -0.655153080939904 -0.8643017815875502 0.7100888137458351 1.5590177124217408 0.3419994007635013 0.248433614290198 0.7846055540074874 -0.42709597342352895 -1.7968396126343633 0.7041644778416002 -0.16103410452860653 1.687425289164578 -0.04372829412588598 1.1183152039583708 1.238775500829673 -0.8886023060061278 -0.8573412911093171 0.9851811682741421 -1.0641515734317737 -0.8352917675084452 -1.0597323613181557 0.13454454287851023 -0.12592569086124766 -1.761114391318612 0.5195379307050342 -0.6289298855773169 0.8431166628695027 -0.18744113376722557 0.39556087892972525 0.6484155051057543 0.7605407997487998 2.1157003704978723 -2.041409630204097 1.3102028035327242 -0.7880287207564235 0.12557139284562244 1.0791950980284575 -0.63651001191742 -0.09161946138020995 0.5534541238365049 2.397814664869967 -0.6916560609619443 0.9759881889209643 -0.2885654493140772 -0.6504685309800411 -0.22056671267660077 -0.8271650246362529 0.849431549343937 0.2707659592388111 1.1746575873038414 0.5426920002239943 1.1109788181979574 0.04651357018050699 0.24137670744341655 -0.6126859129146287 0.24016520363381863 -1.1969454521677645 -1.0545999251875966 0.19032256908007866 1.0818579895726015 0.05430606964173228 -0.8416958712625761 0.6185899371038894 1.3364506814856596 0.027260635488165957 0.2585064251451677 -2.4499057291382518 -2.613506308842454 1.5325721166357025 0.49053897236952293 -0.3810542006731179 1.630035438391199 -1.788400737838391 -1.9114285383265535 0.3742333210965426
-0.6538922119496093 2.2002413277647457 -0.501466160804988 -1.9000640052433535 0.737487260363446 1.0608924430645277 -0.35135230273331103 2.262341439529601 0.3854137631933943 -0.36425178440379846 -1.0590101384401505 -1.4583960475429207 1.0851474589571504 -1.2945136749322415 -0.5963375534635924 -0.977127187621414 0.3640224420018118 -1.093202468051143 -1.0382459093096055 0.7674555245907622 1.1258441653455642 1.9125649659238415 -0.22713562414337013 -1.0158762833651538 -1.436424942588468 1.7898405556087111 1.9067308757405679 -0.9415742302174687 0.6362271905696785 0.5312804159529431 -0.4318049488634241 -0.08007880773046208 -0.8110220963278032 -1.4131605727438887 1.5290995847060698 1.4107907869601315 0.5163777878094977 -0.19047272150469777 -0.9702014070358581 1.6194769461490626 -1.1461078006906067 -1.2554848431645538 0.859344951802907 0.4115469699453364 0.1954130962291086 -1.020473672927849 -0.8722557463273043 1.0836639324330886 0.2694714087971037 0.2581680679691425 0.6861634132784893 0.6850233861367752 0.6124288025985001 -0.7647157570620958 -1.76304580401337 0.6530640596213592 0.47976630723405117 0.10143799013252852 -0.7010542143473927 -0.18651733640137555 0.18040196753225704 -1.3163449118747201 -1.103037194753378 0.12445990494899854 -1.6523502998383155 -1.1349361003445033 0.07987877590451405 0.6823175571698378 -1.4783591209284088 2.093464699028124 -2.9393311567286218 -0.9949300201307898 -0.9096848377080398 1.424036339116128 2.065969321821332 0.11908578512127876 -0.653285688713862 0.8933069105706487 -0.046054885376533586 -0.7641652838752646 -0.7722894556442957 -0.778030729003447 0.26665347973233433 -1.3843256507900676 -0.20689924249183722 1.3406955728049426 1.4891405278146288 0.08755300462032019 -1.276541406724537 0.7417468069707484 0.11647740096415424 0.8284863145508377 -1.3434304552376024 1.333630181317729 0.7114268158309683 0.22925858402364385 -0.27129200694561023 -0.18012763082494784 -1.6864012187754376 -1.3211690727362408 1.1636226696459187 0.7217495379132151 -1.3131410602254419 1.6770760847197697 -1.3408768355778133 0.08200404977763297 0.05703632408870177 -0.2046742098160604 -0.6036322873527927 0.7728990642038366 0.12110975752984304 0.32653910034437306 0.6599720995951022 0.2876789329440659 -0.48453287538475903 -0.5855011249697207 -0.238184425758364 -0.3201123708824229 1.0555448055993693 0.7610365084382957 1.8473391640458119 -1.463941145730866 -1.2997214443854261 0.23074545298181548 -0.6475235894191043 -0.0766939504186292 -0.37264000846749373 -1.0770937354147383 -1.4669161691987898 0.3575712870598293 -2.465460646153715 0.4139121277434033 1.7324365637679455 -0.3787900872292896 -0.6886545551314591 0.45263345557300116 -0.10983315617475922 0.33076342283836585 -0.11266471208628338 0.8169849987794574 1.4369941848283767 1.5511123415317352 -1.4055053701914761 -1.1841164187238962 -0.6741687028104583 -0.27958715707486687 0.05694762102963741 0.3206715858200026 1.8149638330389002 0.36584946790822154 0.2912095718051436 0.5680821581623249 0.545214509535532 -0.19714627687013145 -0.3193654654140693 0.8566746040595956 -1.6599512521140252 1.1940910134381049 0.3288885744131561 1.6732759942473892 -0.6217847898921034 0.021892172087401005 -0.07600592321266911 1.0632375462579366 0.4502431009639536 0.128827694999391 -1.6943022187900691 1.1744637261254804 0.7020304622177329 0.12249815323693741 -0.2918631462287425 -0.3327945943357817 1.0376003053058065 0.8561863515692674 -0.577724052127463 -0.5967227047171529 0.6203981939572218 1.1565559926071243 -0.0502367846683651 1.2033441566052565 -0.9099668877248328 -0.62588132855898 -0.42523423762444185 -0.32599762601860627 -1.371732130395773 0.5068436230668174 0.6595517242282318 -1.2036154079887722 -0.23105012870642788 1.0887261774473445 -0.2294964110660628 0.6533432814246748
0.6135037808302337 0.3401060403955304 -1.434339520814349 0.5426845440248266 -0.62952406751789 1.4792983449132266 0.3808181734029119 0.4718465381663422 -0.7849274561232804 -0.9969699333789539 -0.5908690741498532 -0.21680133209689761 0.4591630291614028 -0.30458162223667545 -0.8333544412764164 0.5430604393070066 1.2636059296097917 -1.1181120868086294 0.25185369571534044 0.5429640229384586 0.6393459387043182 -0.21137758997816497 -0.9370753139058507 0.1618943956463728 -0.4930100596178348 -1.0977026699143417 -0.27150849383179043 0.1356629727536696 0.3469498027902412 -1.499769725393701 -2.566063284869142 1.6250084174902533 1.2885201763529681 0.020138679731404027 1.2649817269113957 0.2971344219300109 0.8236912071550395 -0.2635920671981912 0.25306931328999643 0.5923677701825669 -0.5987268796313753 0.3180125509306007 0.5014409639940074 -0.25491176581537384 -0.4439909494066547 -0.11621951931707726 0.8041613646522281 1.2662875902070128 0.7567291393121934 1.3490994805979215 -0.5427945872401297 -0.9050409111781252 -0.6303445065366563 -1.3738998274710532 -1.1391149143125414 -0.678658877371328 -0.5120375085629311 -0.15416643087449577 -0.44238323859990264 0.063159149156988 -0.8881973572582251 -0.5646494783316921 1.4002947725248143 -0.33960493238939576 -0.9110899455856823 -1.2034984227949337 -0.04348301088429931 0.27461978576726254 0.027468637733913982 -0.48668694561328435 0.09193519284841586 0.823850358440723 -0.07433342060625263 -2.0686674374787857 -0.36002231970348314 0.9764219340242734 -0.23846030512756997 1.1012186534874002 -0.3913373277666809 0.6225908307331665 0.5833635098014276 0.7436203698443774 -1.03281239699886 -0.17904648194562714 -1.1307567721558331 1.3343475190997278 1.2807472172757686 -0.23142036756165305 -1.0226840503156063 -0.7529089942351549 0.2603918150933387 0.7609285221055218 -1.0141582722327822 -0.7782886106505241 -2.066195064678893 0.3349928875386811 -1.5035441048344687 0.750859567905294 -0.764972096047276 0.34524079051893447 -0.9653775032846535 0.3901008842564185 0.8763412292505877 -2.012144819801709 0.4932941665171569 -1.3742870356071428 0.3034364528886387 -1.5172295727413612 0.7065180656754413 -0.8738912250481982 -0.5892994156698883 -1.0838179415124496 -1.2493432490431904 0.7685438725589344 0.06717418385365205 1.4836792475897416 -0.8664339974392046 0.06591125798082842 -1.518488899069759 0.9370375186893798 0.4514821155773773 1.6423289110465715 0.5456801363180408 1.3734951358334668 2.060048328351207 0.9979392392707588 -0.03180968831142908 0.6861662414919666 0.9946698244908675 -0.3965371268000655 0.6677561144158951 -0.6988140121629642 0.6854548172472389 1.1735980356910756 -1.3669444791991427 1.1981435862409238 0.5553418277775211 -1.2993810303268718 0.9903745395496234 -1.087675624695643 -1.5146510133809077 1.653205191639443 1.433087393574803 1.535580307334407 0.3114780922461926 -0.40729307976498885 1.0218227307565757 -0.9418832768174553 0.7395773101232553 1.4517191497433772 -0.08681149846860534 -0.6885298566281368 0.7543742659267718 1.0720541161083021 1.1857925208747384 0.6925721450183104 -0.049967847277694585 -0.028465968650176785 0.12052431734001824 0.5901252540052934 -0.29828781880816374 0.22655841148366146 0.9171446364201947 -2.170356624390172 -1.085670421340156 0.15515759114317149 1.5642478504724286 -0.605512535094641 -0.9130630101516534 -0.9455612398896749 -0.32241530798398665 -0.5303923569210349 0.47411656514744155 -0.8749021828112159 -0.5481625364202624 -0.02313684312777951 -0.486340360907143 1.0420138609924698 -0.7365768327340347 0.26492646973889855 -1.3935335425415805 1.7753469899782262 0.8214062677756048 -0.5048582172056726 0.36632435066211105 -0.07030810149694344 -0.26699440801152086 -0.5144754285804624 1.5441765336438502 0.4688710004777861 -0.1023191071859012 -0.275540497809319
0.823198326679021 -3.0438585844197514 0.692053553510679 2.368750143403843 1.2490123480663327 -1.882307966811513 0.2209215249128582 -2.4489989010532662 0.6836722714255193 0.9310728164655125 0.042203629951243445 -0.1539795116746703 -0.2771068138551743 1.4301424520138661 0.1669108750243577 0.8878831684519161 -0.31141664288063786 -0.5705023375680432 -0.27106600697773314 -1.135639039948799 -0.2525250107507522 -0.9987699627021701 -0.6929788935384258 -0.0014315902402039862 -0.5024526930879732 -1.3577568991626037 -0.2567878997921642 -0.06816354435011487 -0.229186850245444 -1.118961579293118 0.48429067746696597 -0.6386052038835517 -0.21835556395789493 0.3518410694442715 0.3964453384172076 0.7825813244886071 0.9066596777284708 0.6544488557840277 -0.7989098864453016 -0.0775311016079439 0.1348348204254194 -1.4931856444182798 0.887833031940271 -0.32016584982817764 0.26430092033975766 -0.5733534338635933 -0.9586129308673104 -0.4150886645500077 0.08048067115457107 -0.3462345218907715 -1.1105389024470618 -0.752754985155794 1.0335896414845167 0.3702275423712592 1.3547319962933506 0.6000579397379731 0.7722999971672571 0.7467656003415785 0.3461108518287136 0.38331420035188823 -1.1491473588478789 0.07978775885260453 -0.30514469382899706 2.2797025565158675 2.549745778656041 -1.572468181499692 0.18181556005033203 -0.4763580528834505 -0.9984624587640805 -0.819647118992653 2.0131560346750423 -0.7564946547038842 1.4164109613603864 -1.8866595589119892 0.1860709928925763 1.6938628172598054 0.627234757263081 -0.625291260383465 0.6840823623797444 -1.3339191733130578 0.7741031118142668 0.2674350950933652 0.9054885402385051 1.071033902373904 -0.344422151272381 -0.6790190889242242 0.2571303707332475 -0.41494571121424023 0.7776062398715189 0.45573472020614414 -2.977509467570556 -0.5800904954771107 1.417533505000604 -0.2817070316313471 -0.3029721116577105 -0.2994707833726713 -0.2651421852941305 0.20465878319709271 0.46859486399826394 3.0612682952557666 0.10845478776999386 -0.6718871058651331 0.2313270365168984 0.5928483093634113 0.3836810967730037 -0.39032431312113425 0.10997250996610092 1.4104300611866034 -2.5924474312896257 -1.4459097421504516 1.7159581064969478 0.8492842251327954 -0.9521802878680891 -0.4584827152649265 0.25344623701344093 -0.7846796017785325 0.013953891076930808 -1.0900788348204968 0.518987457518203 0.6099590009017688 -2.1485978925568414 0.8725622218241295 -0.7269146270539223 -2.4678013784717496 -1.157189255315749 -0.08195108505251048 -0.25832979035798737 1.5607452366358088 -1.1777192569483006 0.682444055445373 -1.2626625918599157 0.37079935571432915 -0.21251504601671786 0.17265291971445748 0.020451582986132522 0.404064288415046 1.6776764373079298 -1.5440567202365343 0.046257231195326785 0.26205351906647767 -0.8068965041952039 -2.3868710213742697 2.591334143620789 -0.8504934149495481 1.7978171460562842 0.2616493416495236 -0.4394264699644239 -0.9894707967884313 0.23244726616427064 0.8349683227307555 0.02279540062796074 0.3360982047877179 0.21189823836832541 -0.27902048593811946 -0.7709799928042529 -1.0908056856841923 -1.5927842673492247 -2.8366585228580434 -1.1297589270189383 -1.8895350806875715 1.2413448042187458 1.4566546393717816 0.777850494671841 0.5285223935918317 1.2327310944078058 0.23628746584596724 0.8755634705442986 0.12820471670341146 -0.160809133001994 0.7726712644637467 1.336501589328253 -0.8647195858512592 -0.5432576429194773 0.26299300016161153 -1.2003765893365006 -0.42068235658770126 0.002890691284233731 -1.7046226268794704 -0.47125338466703354 2.402681763154282 3.1554051237411915 -0.3664498204963818 -0.1993718237665405 0.6454664497797593 0.8739123080941207 0.23730536558752033 1.7365264175666029 -0.8285907013391859 0.789793268856014 -0.4659540839413072 1.9489471040973014 -0.1597477816170152
-1.1328740756091522 -0.0938475793797803 1.4294891347005834 -1.0235263437112436 0.771212420530033 0.398569583849062 0.028734134709898898 0.9068309131990124 -0.4806772490840947 0.7062121043992483 -0.33876263899375847 -0.4990004728733148 0.2989401076801819 -1.0492144925059672 0.858970599182624 -0.19914196714392154 -0.585767748367546 1.2643456359892935 -0.32719858830524295 -0.45550692046605423 0.6965820375086519 0.8827263068413249 0.19520920774841866 0.0010035015638498847 0.49751797479051735 1.637831280286534 0.16793083164843983 -0.9378461306336041 1.0842876820600165 1.1803592656743092 -0.5265166760157126 0.07364667895187316 0.24312480048277482 0.0011739657034431396 -0.22293341313656445 0.6550656634324202 1.008740957871953 0.3393156832837511 -0.18023741692993475 -1.0328049407996922 0.5859168723509005 0.7342044758471162 1.4384352881502775 -0.20631097408853502 0.7386154604306182 0.08187549461956868 -0.24562982629281568 -0.59282182700085 0.5768822729524581 -0.6431629984575633 -0.19221824344089475 0.04062882926495584 -0.4784987533755372 -0.9060557255958848 -1.3153460382965605 0.37596855862009443 0.15030257704371533 -1.4926763088820294 1.1069103045555386 2.3741615442274013 -0.6860124895229217 -0.1346612709620326 -0.38912129395196854 0.5194674824784151 0.3793313044447402 1.1089556171203416 -0.05563635841738159 0.2854361596564762 2.5591218205543025 1.5822766829496815 -1.2125924146764018 -0.47102275671346616 -0.6897022796696831 2.7719883363731683 0.43246906480998426 0.04589110610515968 -0.9149681975941663 -0.027133108771366175 0.5963745773491148 -1.1212336631567466 -0.14784640219373893 -0.5390461759412911 0.7177082779643059 -0.34095810398318055 1.2271335457153705 0.035330042759861735 -1.0578528849072557 -0.18235523460388595 1.2766576205874272 -1.2180043297205927 1.0931132507714465 -1.4750596242415306 -0.610901053100064 -0.2044117001832931 0.4581795822022109 1.1950160963555356 -0.10400240842559508 0.917119182498898 -0.6706375497287482 -0.3686897655704941 -1.3531340556786116 -0.3913956918084421 -0.47626292206648296 -1.8044359369243825 1.460710297498394 -0.5304373512263575 -0.13004176991215025 0.3341930173452051 -0.5492285157909315 -0.5260790742576618 -0.5070734796894364 -0.3800028765904681 0.6050983303753579 -0.2675713635609134 -0.1669101036934093 -0.30782224066116015 -0.4044921199810841 -0.1479333054805904 1.1367734106635585 -0.4503726845632825 0.6109499040601284 1.333174324727233 0.5662918990311215 1.0915417925192685 0.12047366660774092 -0.044158953905401366 0.7230978244109935 -1.1792133249953238 -1.2515813943450897 1.7160005296991092 1.4813845380182937 -0.9089644146022474 -1.3740186124371045 -1.2684439744283833 1.0938591277985354 -1.105127244513187 -1.02190346339584 -0.37186224976120474 0.26502931386535 0.06456554258621139 -0.2479165654444634 -0.013422444053493012 -1.6144229286649228 0.7790586560473293 -0.6518867514838064 0.5160337742065177 -0.5428974313665812 -0.8901539667639637 1.2379851437178935 -0.6764348731368157 -0.13359606292231185 1.550314528220788 -0.9877077913507376 -0.3767571159596608 -1.3156306594165148 0.711696267442271 0.5726805761662846 -0.9908365667877064 0.20092991228227974 0.8555065518934233 0.5395467697267933 -0.9121674949205775 -0.7426868022865145 -0.6425978699827126 -0.008515236559862752 0.270551786345476 1.0641592867412577 -0.3623730793238469 1.3026082790149178 0.7039675313394458 -0.23680811423612763 -0.08299032495030223 -0.9983961243025193 -2.2861819935926238 -0.6593475786372257 -1.1268317260698142 0.6999404124579236 1.7157408482798195 -0.8216322677434816 -1.3502901584719131 -1.2356487822752333 1.1024414701509078 0.31989974065098453 0.1517359670561322 -1.0264250054152775 -1.061956622662984 0.9899297387027208 -0.7923504880602289 0.091041734499869 -0.5572981801729434 0.7235490530157991 -1.3906973586443663