An instance of this daemon is already running

     Program PWSCF v.7.1 starts on 10May2023 at 11:22: 7 

     This program is part of the open-source Quantum ESPRESSO suite
     for quantum simulation of materials; please cite
         "P. Giannozzi et al., J. Phys.:Condens. Matter 21 395502 (2009);
         "P. Giannozzi et al., J. Phys.:Condens. Matter 29 465901 (2017);
         "P. Giannozzi et al., J. Chem. Phys. 152 154105 (2020);
          URL http://www.quantum-espresso.org", 
     in publications or presentations arising from this work. More details at
     http://www.quantum-espresso.org/quote

     Parallel version (MPI & OpenMP), running on       4 processor cores
     Number of MPI processes:                 4
     Threads/MPI process:                     1

     MPI processes distributed on     1 nodes
     753557 MiB available memory on the printing compute node when the environment starts
 
     Reading input from pw-si-74.in
Warning: card &CELL ignored
Warning: card / ignored

     Current dimensions of program PWSCF are:
     Max number of different atomic species (ntypx) = 10
     Max number of k-points (npk) =  40000
     Max angular momentum in pseudopotentials (lmaxx) =  4

     IMPORTANT: XC functional enforced from input :
     Exchange-correlation= PBE
                           (   1   4   3   4   0   0   0)
     Any further DFT definition will be discarded
     Please, verify this is what you really want


     gamma-point specific algorithms are used
 
     K-points division:     npool     =       2
     R & G space division:  proc/nbgrp/npool/nimage =       2
     Subspace diagonalization in iterative solution of the eigenvalue problem:
     a serial algorithm will be used

     Message from routine divide_et_impera:
     suboptimal parallelization: some nodes have no k-points
 
     Parallelization info
     --------------------
     sticks:   dense  smooth     PW     G-vecs:    dense   smooth      PW
     Min        2040    2040    539                99376    99376   13482
     Max        2043    2043    542                99379    99379   13483
     Sum        4083    4083   1081               198755   198755   26965
 
     Using Slab Decomposition
 


     bravais-lattice index     =            0
     lattice parameter (alat)  =      21.0561  a.u.
     unit-cell volume          =    8952.3409 (a.u.)^3
     number of atoms/cell      =           64
     number of atomic types    =            1
     number of electrons       =       256.00
     number of Kohn-Sham states=          154
     kinetic-energy cutoff     =      30.0000  Ry
     charge density cutoff     =     120.0000  Ry
     scf convergence threshold =      1.0E-06
     mixing beta               =       0.5000
     number of iterations used =            8  plain     mixing
     Exchange-correlation= PBE
                           (   1   4   3   4   0   0   0)

     GPU acceleration is ACTIVE.
     GPU-aware MPI enabled

     Message from routine print_cuda_info:
     High GPU oversubscription detected. Are you sure this is what you want?

     celldm(1)=  21.056094  celldm(2)=   0.000000  celldm(3)=   0.000000
     celldm(4)=   0.000000  celldm(5)=   0.000000  celldm(6)=   0.000000

     crystal axes: (cart. coord. in units of alat)
               a(1) = (   1.000000   0.000000   0.000000 )  
               a(2) = (   0.000000   0.965898   0.000000 )  
               a(3) = (   0.000000   0.000000   0.992824 )  

     reciprocal axes: (cart. coord. in units 2 pi/alat)
               b(1) = (  1.000000  0.000000  0.000000 )  
               b(2) = (  0.000000  1.035307  0.000000 )  
               b(3) = (  0.000000  0.000000  1.007228 )  


     PseudoPot. # 1 for Si read from file:
     /home/ppiaggi/pseudos/Si_ONCV_PBE_sr.upf
     MD5 check sum: 8553c464762ac42b85b1eed164b4d029
     Pseudo is Norm-conserving, Zval =  4.0
     Generated using ONCVPSP code by D. R. Hamann
     Using radial grid of 1510 points,  4 beta functions with: 
                l(1) =   0
                l(2) =   0
                l(3) =   1
                l(4) =   1

     atomic species   valence    mass     pseudopotential
        Si             4.00    28.08500     Si( 1.00)

     No symmetry found



   Cartesian axes

     site n.     atom                  positions (alat units)
         1           Si  tau(   1) = (  -0.0035150   0.0073047  -0.0055192  )
         2           Si  tau(   2) = (  -0.0069302   0.2394659   0.2415612  )
         3           Si  tau(   3) = (   0.2428448  -0.0023934   0.2530171  )
         4           Si  tau(   4) = (   0.2379139   0.2502574   0.0088829  )
         5           Si  tau(   5) = (   0.1166693   0.1250756   0.1216686  )
         6           Si  tau(   6) = (   0.4895906   0.0087534   0.0025027  )
         7           Si  tau(   7) = (   0.4793571   0.2520759   0.2515885  )
         8           Si  tau(   8) = (   0.6048543   0.1210354   0.1245510  )
         9           Si  tau(   9) = (   0.7360898  -0.0060608   0.2382730  )
        10           Si  tau(  10) = (   0.7292035   0.2513380  -0.0061737  )
        11           Si  tau(  11) = (  -0.0079536   0.4906225  -0.0072008  )
        12           Si  tau(  12) = (   0.2371840   0.4985921   0.2467792  )
        13           Si  tau(  13) = (   0.1157445   0.6233190   0.1140314  )
        14           Si  tau(  14) = (   0.3708130   0.3762117   0.1156962  )
        15           Si  tau(  15) = (   0.4954954   0.5042485   0.0084090  )
        16           Si  tau(  16) = (   0.6000291   0.6266174   0.1187835  )
        17           Si  tau(  17) = (   0.8440397   0.3634561   0.1140071  )
        18           Si  tau(  18) = (   0.7381316   0.4942471   0.2467706  )
        19           Si  tau(  19) = (   0.0073242   0.7470574   0.2500644  )
        20           Si  tau(  20) = (   0.2372098   0.7352846   0.0062834  )
        21           Si  tau(  21) = (   0.3592604   0.8656027   0.1162184  )
        22           Si  tau(  22) = (   0.4865536   0.7516103   0.2506011  )
        23           Si  tau(  23) = (   0.7307116   0.7413449   0.0077180  )
        24           Si  tau(  24) = (   0.8585142   0.8710792   0.1302461  )
        25           Si  tau(  25) = (   0.0066792  -0.0042572   0.4836752  )
        26           Si  tau(  26) = (   0.2413295   0.2433870   0.4896460  )
        27           Si  tau(  27) = (   0.1150830   0.1232557   0.6167101  )
        28           Si  tau(  28) = (   0.3609542   0.1156267   0.3725252  )
        29           Si  tau(  29) = (   0.4836389   0.0066762   0.4810108  )
        30           Si  tau(  30) = (   0.6045707   0.1297930   0.6071554  )
        31           Si  tau(  31) = (   0.8571633   0.1296821   0.3599277  )
        32           Si  tau(  32) = (   0.7313865   0.2517551   0.4963993  )
        33           Si  tau(  33) = (   0.1270142   0.3650004   0.3610894  )
        34           Si  tau(  34) = (  -0.0051126   0.4947038   0.4946033  )
        35           Si  tau(  35) = (   0.1246669   0.6291109   0.6038748  )
        36           Si  tau(  36) = (   0.6142953   0.3652466   0.3725295  )
        37           Si  tau(  37) = (   0.3710919   0.6134907   0.3672750  )
        38           Si  tau(  38) = (   0.3684714   0.3693890   0.6156984  )
        39           Si  tau(  39) = (   0.4867870   0.4901504   0.4912241  )
        40           Si  tau(  40) = (   0.6005857   0.6163863   0.6149454  )
        41           Si  tau(  41) = (   0.8493703   0.6281325   0.3749652  )
        42           Si  tau(  42) = (   0.8565623   0.3785971   0.6095540  )
        43           Si  tau(  43) = (   0.1173291   0.8683468   0.3637868  )
        44           Si  tau(  44) = (   0.2489705   0.7448677   0.4850755  )
        45           Si  tau(  45) = (   0.6122561   0.8751157   0.3707545  )
        46           Si  tau(  46) = (   0.3733019   0.8733269   0.6094604  )
        47           Si  tau(  47) = (   0.7332675   0.7358986   0.4977756  )
        48           Si  tau(  48) = (   0.8558095   0.8620710   0.6167914  )
        49           Si  tau(  49) = (  -0.0075147   0.2557309   0.7264154  )
        50           Si  tau(  50) = (   0.2489689   0.0043402   0.7285507  )
        51           Si  tau(  51) = (   0.3705639   0.1252008   0.8546257  )
        52           Si  tau(  52) = (   0.4784273   0.2538509   0.7357591  )
        53           Si  tau(  53) = (   0.7370088  -0.0039815   0.7417942  )
        54           Si  tau(  54) = (   0.8479156   0.1261102   0.8493330  )
        55           Si  tau(  55) = (   0.1198441   0.3721395   0.8515706  )
        56           Si  tau(  56) = (   0.2403711   0.4939612   0.7270914  )
        57           Si  tau(  57) = (   0.6087360   0.3696725   0.8571378  )
        58           Si  tau(  58) = (   0.3710704   0.6222485   0.8593775  )
        59           Si  tau(  59) = (   0.7308197   0.4991461   0.7262002  )
        60           Si  tau(  60) = (   0.8590702   0.6223777   0.8567983  )
        61           Si  tau(  61) = (  -0.0033696   0.7377403   0.7287381  )
        62           Si  tau(  62) = (   0.1207940   0.8618040   0.8574736  )
        63           Si  tau(  63) = (   0.4898449   0.7515736   0.7420789  )
        64           Si  tau(  64) = (   0.6015310   0.8678525   0.8561888  )

     number of k points=     1  Fermi-Dirac smearing, width (Ry)=  0.0100
                       cart. coord. in units 2pi/alat
        k(    1) = (   0.0000000   0.0000000   0.0000000), wk =   2.0000000

     Dense  grid:    99378 G-vectors     FFT dimensions: (  75,  72,  75)

     Estimated max dynamical RAM per process >     159.25 MB

     Estimated total dynamical RAM >     612.75 MB

     Initial potential from superposition of free atoms

     starting charge     255.9608, renormalised to     256.0000
     Starting wfcs are  256 randomized atomic wfcs

     total cpu time spent up to now is        5.1 secs

     Self-consistent Calculation

     iteration #  1     ecut=    30.00 Ry     beta= 0.50
     Davidson diagonalization with overlap
     ethr =  1.00E-02,  avg # of iterations =  3.0

     Threshold (ethr) on eigenvalues was too large:
     Diagonalizing with lowered threshold

     Davidson diagonalization with overlap
     ethr =  6.46E-04,  avg # of iterations =  4.0

     total cpu time spent up to now is        5.4 secs

     total energy              =    -503.33996081 Ry
     estimated scf accuracy    <       1.84440779 Ry

     iteration #  2     ecut=    30.00 Ry     beta= 0.50
     Davidson diagonalization with overlap
     ethr =  7.20E-04,  avg # of iterations =  2.0

     total cpu time spent up to now is        5.5 secs

     total energy              =    -503.30222286 Ry
     estimated scf accuracy    <       0.42766771 Ry

     iteration #  3     ecut=    30.00 Ry     beta= 0.50
     Davidson diagonalization with overlap
     ethr =  1.67E-04,  avg # of iterations =  6.0

     total cpu time spent up to now is        5.6 secs

     total energy              =    -503.21758721 Ry
     estimated scf accuracy    <       1.07136149 Ry

     iteration #  4     ecut=    30.00 Ry     beta= 0.50
     Davidson diagonalization with overlap
     ethr =  1.67E-04,  avg # of iterations =  5.0

     total cpu time spent up to now is        5.8 secs

     total energy              =    -503.37917706 Ry
     estimated scf accuracy    <       0.03507422 Ry

     iteration #  5     ecut=    30.00 Ry     beta= 0.50
     Davidson diagonalization with overlap
     ethr =  1.37E-05,  avg # of iterations = 18.0

     total cpu time spent up to now is        6.0 secs

     total energy              =    -503.38224689 Ry
     estimated scf accuracy    <       0.01116938 Ry

     iteration #  6     ecut=    30.00 Ry     beta= 0.50
     Davidson diagonalization with overlap
     ethr =  4.36E-06,  avg # of iterations = 16.0

     total cpu time spent up to now is        6.2 secs

     total energy              =    -503.38366073 Ry
     estimated scf accuracy    <       0.00163006 Ry

     iteration #  7     ecut=    30.00 Ry     beta= 0.50
     Davidson diagonalization with overlap
     ethr =  6.37E-07,  avg # of iterations =  5.0

     total cpu time spent up to now is        6.3 secs

     total energy              =    -503.38401523 Ry
     estimated scf accuracy    <       0.00075881 Ry

     iteration #  8     ecut=    30.00 Ry     beta= 0.50
     Davidson diagonalization with overlap
     ethr =  2.96E-07,  avg # of iterations =  3.0

     total cpu time spent up to now is        6.5 secs

     total energy              =    -503.38406168 Ry
     estimated scf accuracy    <       0.00016513 Ry

     iteration #  9     ecut=    30.00 Ry     beta= 0.50
     Davidson diagonalization with overlap
     ethr =  6.45E-08,  avg # of iterations =  4.0

     total cpu time spent up to now is        6.6 secs

     total energy              =    -503.38408283 Ry
     estimated scf accuracy    <       0.00001158 Ry

     iteration # 10     ecut=    30.00 Ry     beta= 0.50
     Davidson diagonalization with overlap
     ethr =  4.52E-09,  avg # of iterations =  5.0

     total cpu time spent up to now is        6.7 secs

     total energy              =    -503.38408608 Ry
     estimated scf accuracy    <       0.00000730 Ry

     iteration # 11     ecut=    30.00 Ry     beta= 0.50
     Davidson diagonalization with overlap
     ethr =  2.85E-09,  avg # of iterations =  3.0

     total cpu time spent up to now is        6.8 secs

     total energy              =    -503.38408696 Ry
     estimated scf accuracy    <       0.00000138 Ry

     iteration # 12     ecut=    30.00 Ry     beta= 0.50
     Davidson diagonalization with overlap
     ethr =  5.39E-10,  avg # of iterations =  4.0

     total cpu time spent up to now is        7.0 secs

     End of self-consistent calculation

          k = 0.0000 0.0000 0.0000 ( 12442 PWs)   bands (ev):

    -6.0493  -5.1783  -5.0337  -5.0033  -4.8857  -4.8461  -4.7190  -4.3427
    -4.1953  -4.1190  -4.0633  -4.0050  -3.9776  -3.9494  -3.8891  -3.8336
    -3.7443  -3.7274  -3.6844  -3.5988  -3.5597  -3.4547  -3.2047  -2.3634
    -2.2186  -2.0032  -1.9396  -1.9249  -1.8924  -1.8434  -1.7850  -1.7444
    -1.6754  -1.6559  -1.6264  -1.6098  -1.5825  -1.4869  -1.4578  -1.4217
    -1.3849  -1.0669  -1.0037  -0.9620  -0.7571   0.1744   0.2428   0.2759
     0.3264   0.3506   0.4136   0.5025   0.5269   0.5441   0.5568   0.6362
     0.6621   1.7732   1.7771   1.8074   1.8542   1.8963   1.9422   1.9728
     2.0378   2.0674   2.0850   2.1397   2.1475   2.1705   2.2040   2.2298
     2.2583   2.2929   2.3019   2.3185   2.3363   2.3996   2.4250   2.4403
     2.4660   2.5262   2.5470   2.5935   2.6491   2.6711   2.7201   2.8184
     3.0323   3.1601   3.1813   3.2063   3.2516   3.6672   3.7718   3.9015
     3.9183   3.9595   4.0128   4.0432   4.0716   4.1059   4.1516   4.2230
     4.2454   4.3212   4.4317   4.4528   4.4814   4.5156   4.5815   4.5981
     4.6159   4.6300   4.6887   4.7378   4.7679   4.7828   4.7997   4.8380
     4.9011   4.9302   4.9882   5.2796   5.5050   5.7836   5.8821   6.1367
     6.2432   6.4225   6.4985   6.5664   6.6765   6.7168   6.8471   6.9330
     6.9831   7.0212   7.0318   7.1513   7.1582   7.2029   7.2251   7.2637
     7.7908   7.9291   7.9834   8.0793   8.0877   8.1398   8.1567   8.2134
     8.2430   8.2765

     the Fermi energy is     6.1573 ev

!    total energy              =    -503.38408705 Ry
     estimated scf accuracy    <       0.00000025 Ry
     smearing contrib. (-TS)   =      -0.06266583 Ry
     internal energy E=F+TS    =    -503.32142122 Ry

     The total energy is F=E-TS. E is the sum of the following terms:
     one-electron contribution =     137.12109337 Ry
     hartree contribution      =      39.79116568 Ry
     xc contribution           =    -153.11411073 Ry
     ewald contribution        =    -527.11956954 Ry

     convergence has been achieved in  12 iterations

     Forces acting on atoms (cartesian axes, Ry/au):

     atom    1 type  1   force =    -0.04507315    0.02126899   -0.01939784
     atom    2 type  1   force =    -0.03183626    0.04456184   -0.00027393
     atom    3 type  1   force =     0.01755593    0.08063599   -0.07721887
     atom    4 type  1   force =     0.02490575    0.00333451   -0.07756150
     atom    5 type  1   force =     0.00712414   -0.01781943    0.00843436
     atom    6 type  1   force =    -0.02171252    0.01486364   -0.05469579
     atom    7 type  1   force =     0.02324295   -0.02896229   -0.01305807
     atom    8 type  1   force =     0.02905679    0.05724472    0.01576372
     atom    9 type  1   force =    -0.05915482    0.14058992    0.07223462
     atom   10 type  1   force =    -0.03005150   -0.06125829   -0.03364497
     atom   11 type  1   force =    -0.03230603    0.00153216   -0.01367917
     atom   12 type  1   force =     0.03012347   -0.00122105   -0.04047677
     atom   13 type  1   force =    -0.04387868   -0.05975357    0.05200982
     atom   14 type  1   force =    -0.03681527    0.00840252    0.03767341
     atom   15 type  1   force =    -0.03714352   -0.05806242   -0.10716773
     atom   16 type  1   force =     0.06252398    0.01870501    0.08199864
     atom   17 type  1   force =     0.09503386    0.04613737    0.03431530
     atom   18 type  1   force =    -0.02753901    0.00987662   -0.00749675
     atom   19 type  1   force =    -0.10133756   -0.03889801   -0.03344083
     atom   20 type  1   force =     0.04548572    0.03508729   -0.09208677
     atom   21 type  1   force =     0.00437352   -0.04855866    0.02060807
     atom   22 type  1   force =    -0.00046845   -0.01994580   -0.01703885
     atom   23 type  1   force =     0.02950870    0.01978126   -0.05597619
     atom   24 type  1   force =     0.12413813   -0.11559375   -0.10569140
     atom   25 type  1   force =    -0.13946444    0.10545969    0.09622979
     atom   26 type  1   force =     0.00504750    0.00122647    0.02765996
     atom   27 type  1   force =     0.00148657    0.01255905   -0.03004387
     atom   28 type  1   force =    -0.02478320    0.07886967   -0.04234321
     atom   29 type  1   force =     0.05133778    0.05903567    0.05200282
     atom   30 type  1   force =     0.00536448   -0.01275253    0.03927024
     atom   31 type  1   force =     0.01822914   -0.02388651    0.02859034
     atom   32 type  1   force =     0.04394042   -0.02648775   -0.01479796
     atom   33 type  1   force =    -0.06049141    0.01148065    0.01810792
     atom   34 type  1   force =    -0.00810128    0.00898205   -0.03735121
     atom   35 type  1   force =    -0.02136793   -0.04163234    0.01101685
     atom   36 type  1   force =    -0.01776078    0.03982244   -0.02971948
     atom   37 type  1   force =    -0.02428163    0.02164294   -0.00989083
     atom   38 type  1   force =    -0.05484163    0.01897823   -0.04876534
     atom   39 type  1   force =     0.01476391   -0.00613968   -0.00065891
     atom   40 type  1   force =     0.00654789    0.02479291   -0.00329470
     atom   41 type  1   force =     0.09198088   -0.04863423   -0.04872938
     atom   42 type  1   force =     0.03143389   -0.00540194   -0.00020010
     atom   43 type  1   force =     0.05271435   -0.10984929    0.00333473
     atom   44 type  1   force =     0.01391115    0.00670767    0.00129316
     atom   45 type  1   force =     0.03148652   -0.10980269   -0.00764646
     atom   46 type  1   force =    -0.02020257   -0.10275548    0.00195853
     atom   47 type  1   force =    -0.04322917    0.04440716    0.01478797
     atom   48 type  1   force =     0.06910079   -0.04817122   -0.04786948
     atom   49 type  1   force =    -0.04096604   -0.02223551    0.02863182
     atom   50 type  1   force =    -0.03882601    0.04669416    0.05716555
     atom   51 type  1   force =    -0.04213845    0.01128020    0.05594713
     atom   52 type  1   force =     0.06403098   -0.03169682    0.01935111
     atom   53 type  1   force =    -0.04050359    0.06704429   -0.03519943
     atom   54 type  1   force =     0.07473706    0.04615683    0.05330213
     atom   55 type  1   force =    -0.01146216   -0.00211259    0.04364542
     atom   56 type  1   force =     0.02079739    0.02904004    0.02692455
     atom   57 type  1   force =     0.00309856    0.04299580    0.01714948
     atom   58 type  1   force =    -0.03795523   -0.01886247    0.02778709
     atom   59 type  1   force =     0.01143499   -0.00951910    0.05743875
     atom   60 type  1   force =     0.00850418   -0.01006194    0.01461938
     atom   61 type  1   force =    -0.02872297    0.01708501    0.03654345
     atom   62 type  1   force =    -0.00495976   -0.03849946    0.01055762
     atom   63 type  1   force =    -0.03329238   -0.05107414   -0.04770079
     atom   64 type  1   force =     0.04764601   -0.02663385    0.08676288

     Total force =     0.647993     Total SCF correction =     0.000893


     Computing stress (Cartesian axis) and pressure

          total   stress  (Ry/bohr**3)                   (kbar)     P=        9.36
   0.00003040   0.00006703  -0.00013370            4.47        9.86      -19.67
   0.00006703   0.00009800   0.00007990            9.86       14.42       11.75
  -0.00013370   0.00007990   0.00006246          -19.67       11.75        9.19

 
     init_run     :      1.19s CPU      5.05s WALL (       1 calls)
     electrons    :      1.70s CPU      1.83s WALL (       1 calls)
     forces       :      0.04s CPU      0.05s WALL (       1 calls)
     stress       :      0.17s CPU      0.17s WALL (       1 calls)

     Called by init_run:
     wfcinit      :      0.53s CPU      4.22s WALL (       1 calls)
                                        4.22s GPU  (       1 calls)
     potinit      :      0.21s CPU      0.31s WALL (       1 calls)
     hinit0       :      0.42s CPU      0.45s WALL (       1 calls)

     Called by electrons:
     c_bands      :      1.10s CPU      1.16s WALL (      13 calls)
     sum_band     :      0.31s CPU      0.35s WALL (      13 calls)
     v_of_rho     :      0.16s CPU      0.26s WALL (      13 calls)
     mix_rho      :      0.11s CPU      0.13s WALL (      13 calls)

     Called by c_bands:
     init_us_2    :      0.05s CPU      0.05s WALL (      27 calls)
     init_us_2:gp :      0.05s CPU      0.05s WALL (      27 calls)
     regterg      :      0.99s CPU      1.04s WALL (      13 calls)

     Called by *egterg:
     rdiaghg      :      0.41s CPU      1.17s WALL (      90 calls)
                                        1.15s GPU  (      90 calls)
     h_psi        :      0.94s CPU      3.90s WALL (      92 calls)
                                        3.90s GPU  (      92 calls)
     g_psi        :      0.00s CPU      0.00s WALL (      78 calls)
                                        0.00s GPU  (      78 calls)

     Called by h_psi:
     h_psi:calbec :      0.48s CPU      3.36s WALL (      92 calls)
                                        3.36s GPU  (      92 calls)
     vloc_psi     :      0.41s CPU      0.48s WALL (      92 calls)
                                        0.48s GPU  (      92 calls)
     add_vuspsi   :      0.03s CPU      0.05s WALL (      92 calls)
                                        0.05s GPU  (      92 calls)

     General routines
     calbec       :      0.48s CPU      3.37s WALL (      97 calls)
     fft          :      0.51s CPU      0.65s WALL (     111 calls)
                                        0.14s GPU  (      71 calls)
     ffts         :      0.04s CPU      0.05s WALL (      13 calls)
     fftw         :      0.46s CPU      0.61s WALL (    1447 calls)
                                        0.54s GPU  (    1447 calls)
 
     Parallel routines
 
     PWSCF        :      3.14s CPU      7.19s WALL

 
   This run was terminated on:  11:22:15  10May2023            

=------------------------------------------------------------------------------=
   JOB DONE.
=------------------------------------------------------------------------------=
