An instance of this daemon is already running
An instance of this daemon is already running

     Program PWSCF v.7.1 starts on 10May2023 at 11:22:26 

     This program is part of the open-source Quantum ESPRESSO suite
     for quantum simulation of materials; please cite
         "P. Giannozzi et al., J. Phys.:Condens. Matter 21 395502 (2009);
         "P. Giannozzi et al., J. Phys.:Condens. Matter 29 465901 (2017);
         "P. Giannozzi et al., J. Chem. Phys. 152 154105 (2020);
          URL http://www.quantum-espresso.org", 
     in publications or presentations arising from this work. More details at
     http://www.quantum-espresso.org/quote

     Parallel version (MPI & OpenMP), running on       4 processor cores
     Number of MPI processes:                 4
     Threads/MPI process:                     1

     MPI processes distributed on     1 nodes
     753545 MiB available memory on the printing compute node when the environment starts
 
     Reading input from pw-si-76.in
Warning: card &CELL ignored
Warning: card / ignored

     Current dimensions of program PWSCF are:
     Max number of different atomic species (ntypx) = 10
     Max number of k-points (npk) =  40000
     Max angular momentum in pseudopotentials (lmaxx) =  4

     IMPORTANT: XC functional enforced from input :
     Exchange-correlation= PBE
                           (   1   4   3   4   0   0   0)
     Any further DFT definition will be discarded
     Please, verify this is what you really want


     gamma-point specific algorithms are used
 
     K-points division:     npool     =       2
     R & G space division:  proc/nbgrp/npool/nimage =       2
     Subspace diagonalization in iterative solution of the eigenvalue problem:
     a serial algorithm will be used

     Message from routine divide_et_impera:
     suboptimal parallelization: some nodes have no k-points
 
     Parallelization info
     --------------------
     sticks:   dense  smooth     PW     G-vecs:    dense   smooth      PW
     Min        2041    2041    540               100197   100197   13596
     Max        2046    2046    541               100198   100198   13601
     Sum        4087    4087   1081               200395   200395   27197
 
     Using Slab Decomposition
 


     bravais-lattice index     =            0
     lattice parameter (alat)  =      21.1662  a.u.
     unit-cell volume          =    9029.0823 (a.u.)^3
     number of atoms/cell      =           64
     number of atomic types    =            1
     number of electrons       =       256.00
     number of Kohn-Sham states=          154
     kinetic-energy cutoff     =      30.0000  Ry
     charge density cutoff     =     120.0000  Ry
     scf convergence threshold =      1.0E-06
     mixing beta               =       0.5000
     number of iterations used =            8  plain     mixing
     Exchange-correlation= PBE
                           (   1   4   3   4   0   0   0)

     GPU acceleration is ACTIVE.
     GPU-aware MPI enabled

     Message from routine print_cuda_info:
     High GPU oversubscription detected. Are you sure this is what you want?

     celldm(1)=  21.166204  celldm(2)=   0.000000  celldm(3)=   0.000000
     celldm(4)=   0.000000  celldm(5)=   0.000000  celldm(6)=   0.000000

     crystal axes: (cart. coord. in units of alat)
               a(1) = (   1.000000   0.000000   0.000000 )  
               a(2) = (   0.000000   0.956191   0.000000 )  
               a(3) = (   0.000000   0.000000   0.995795 )  

     reciprocal axes: (cart. coord. in units 2 pi/alat)
               b(1) = (  1.000000  0.000000  0.000000 )  
               b(2) = (  0.000000  1.045816  0.000000 )  
               b(3) = (  0.000000  0.000000  1.004223 )  


     PseudoPot. # 1 for Si read from file:
     /home/ppiaggi/pseudos/Si_ONCV_PBE_sr.upf
     MD5 check sum: 8553c464762ac42b85b1eed164b4d029
     Pseudo is Norm-conserving, Zval =  4.0
     Generated using ONCVPSP code by D. R. Hamann
     Using radial grid of 1510 points,  4 beta functions with: 
                l(1) =   0
                l(2) =   0
                l(3) =   1
                l(4) =   1

     atomic species   valence    mass     pseudopotential
        Si             4.00    28.08500     Si( 1.00)

     No symmetry found



   Cartesian axes

     site n.     atom                  positions (alat units)
         1           Si  tau(   1) = (  -0.0032791  -0.0003309  -0.0004408  )
         2           Si  tau(   2) = (   0.0084294   0.2342367   0.2542918  )
         3           Si  tau(   3) = (   0.2463817   0.0001412   0.2451558  )
         4           Si  tau(   4) = (   0.2430526   0.2271596   0.0060547  )
         5           Si  tau(   5) = (   0.1298545   0.1149335   0.1156499  )
         6           Si  tau(   6) = (   0.5027569  -0.0022623   0.0030117  )
         7           Si  tau(   7) = (   0.4960728   0.2388818   0.2534898  )
         8           Si  tau(   8) = (   0.6272118   0.1192427   0.1242089  )
         9           Si  tau(   9) = (   0.7562104  -0.0047811   0.2418356  )
        10           Si  tau(  10) = (   0.7538774   0.2419169   0.0017413  )
        11           Si  tau(  11) = (   0.0063995   0.4648990   0.0076756  )
        12           Si  tau(  12) = (   0.2441648   0.4688556   0.2459847  )
        13           Si  tau(  13) = (   0.1261083   0.5915065   0.1154420  )
        14           Si  tau(  14) = (   0.3725210   0.3572934   0.1240536  )
        15           Si  tau(  15) = (   0.4926209   0.4726920  -0.0037833  )
        16           Si  tau(  16) = (   0.6145434   0.5881304   0.1302428  )
        17           Si  tau(  17) = (   0.8729870   0.3438425   0.1313909  )
        18           Si  tau(  18) = (   0.7474584   0.4719134   0.2546037  )
        19           Si  tau(  19) = (  -0.0053165   0.6960110   0.2483019  )
        20           Si  tau(  20) = (   0.2410409   0.7110276  -0.0001126  )
        21           Si  tau(  21) = (   0.3776644   0.8130403   0.1207318  )
        22           Si  tau(  22) = (   0.5009543   0.7030091   0.2499048  )
        23           Si  tau(  23) = (   0.7410336   0.7101517   0.0079613  )
        24           Si  tau(  24) = (   0.8724135   0.8235361   0.1226777  )
        25           Si  tau(  25) = (   0.0081707   0.0043741   0.4988095  )
        26           Si  tau(  26) = (   0.2451912   0.2287427   0.4899640  )
        27           Si  tau(  27) = (   0.1290880   0.1210842   0.6230950  )
        28           Si  tau(  28) = (   0.3723778   0.1204582   0.3673053  )
        29           Si  tau(  29) = (   0.4996265   0.0007372   0.4962210  )
        30           Si  tau(  30) = (   0.6288601   0.1185568   0.6124880  )
        31           Si  tau(  31) = (   0.8759583   0.1150961   0.3780605  )
        32           Si  tau(  32) = (   0.7456367   0.2418167   0.5036298  )
        33           Si  tau(  33) = (   0.1307602   0.3476174   0.3726541  )
        34           Si  tau(  34) = (   0.0045173   0.4610915   0.4869537  )
        35           Si  tau(  35) = (   0.1253229   0.5840672   0.6179516  )
        36           Si  tau(  36) = (   0.6189469   0.3484624   0.3766144  )
        37           Si  tau(  37) = (   0.3726355   0.5865811   0.3632409  )
        38           Si  tau(  38) = (   0.3717283   0.3454359   0.6143435  )
        39           Si  tau(  39) = (   0.5027717   0.4707925   0.4963435  )
        40           Si  tau(  40) = (   0.6199369   0.5843920   0.6267955  )
        41           Si  tau(  41) = (   0.8670152   0.5913901   0.3803393  )
        42           Si  tau(  42) = (   0.8689238   0.3438318   0.6199644  )
        43           Si  tau(  43) = (   0.1192425   0.8149695   0.3664181  )
        44           Si  tau(  44) = (   0.2531830   0.7008628   0.4948805  )
        45           Si  tau(  45) = (   0.6306973   0.8172274   0.3762207  )
        46           Si  tau(  46) = (   0.3670903   0.8187219   0.6260967  )
        47           Si  tau(  47) = (   0.7497889   0.7103850   0.4940708  )
        48           Si  tau(  48) = (   0.8738442   0.8255347   0.6134171  )
        49           Si  tau(  49) = (   0.0071413   0.2312210   0.7410407  )
        50           Si  tau(  50) = (   0.2414785  -0.0052130   0.7403043  )
        51           Si  tau(  51) = (   0.3764910   0.1104041   0.8633424  )
        52           Si  tau(  52) = (   0.5060155   0.2268931   0.7439141  )
        53           Si  tau(  53) = (   0.7414353   0.0013495   0.7432244  )
        54           Si  tau(  54) = (   0.8693148   0.1216532   0.8657271  )
        55           Si  tau(  55) = (   0.1176818   0.3484058   0.8749253  )
        56           Si  tau(  56) = (   0.2466606   0.4687191   0.7472088  )
        57           Si  tau(  57) = (   0.6218119   0.3471143   0.8714296  )
        58           Si  tau(  58) = (   0.3665333   0.5847116   0.8613757  )
        59           Si  tau(  59) = (   0.7515694   0.4700568   0.7384099  )
        60           Si  tau(  60) = (   0.8755355   0.5904277   0.8675735  )
        61           Si  tau(  61) = (   0.0021381   0.7001575   0.7467708  )
        62           Si  tau(  62) = (   0.1156957   0.8153287   0.8655945  )
        63           Si  tau(  63) = (   0.4934410   0.7094543   0.7478606  )
        64           Si  tau(  64) = (   0.6268896   0.8145992   0.8762601  )

     number of k points=     1  Fermi-Dirac smearing, width (Ry)=  0.0100
                       cart. coord. in units 2pi/alat
        k(    1) = (   0.0000000   0.0000000   0.0000000), wk =   2.0000000

     Dense  grid:   100198 G-vectors     FFT dimensions: (  75,  72,  75)

     Estimated max dynamical RAM per process >     160.46 MB

     Estimated total dynamical RAM >     617.38 MB

     Initial potential from superposition of free atoms

     starting charge     255.9608, renormalised to     256.0000
     Starting wfcs are  256 randomized atomic wfcs

     total cpu time spent up to now is        5.1 secs

     Self-consistent Calculation

     iteration #  1     ecut=    30.00 Ry     beta= 0.50
     Davidson diagonalization with overlap
     ethr =  1.00E-02,  avg # of iterations =  3.0

     Threshold (ethr) on eigenvalues was too large:
     Diagonalizing with lowered threshold

     Davidson diagonalization with overlap
     ethr =  6.33E-04,  avg # of iterations =  3.0

     total cpu time spent up to now is        5.4 secs

     total energy              =    -503.63259286 Ry
     estimated scf accuracy    <       1.79942119 Ry

     iteration #  2     ecut=    30.00 Ry     beta= 0.50
     Davidson diagonalization with overlap
     ethr =  7.03E-04,  avg # of iterations =  1.0

     total cpu time spent up to now is        5.5 secs

     total energy              =    -503.62651099 Ry
     estimated scf accuracy    <       0.33123782 Ry

     iteration #  3     ecut=    30.00 Ry     beta= 0.50
     Davidson diagonalization with overlap
     ethr =  1.29E-04,  avg # of iterations = 19.0

     total cpu time spent up to now is        5.7 secs

     total energy              =    -503.64062133 Ry
     estimated scf accuracy    <       0.04576150 Ry

     iteration #  4     ecut=    30.00 Ry     beta= 0.50
     Davidson diagonalization with overlap
     ethr =  1.79E-05,  avg # of iterations = 16.0

     total cpu time spent up to now is        5.9 secs

     total energy              =    -503.65048057 Ry
     estimated scf accuracy    <       0.02029082 Ry

     iteration #  5     ecut=    30.00 Ry     beta= 0.50
     Davidson diagonalization with overlap
     ethr =  7.93E-06,  avg # of iterations =  6.0

     total cpu time spent up to now is        6.1 secs

     total energy              =    -503.65317751 Ry
     estimated scf accuracy    <       0.00289302 Ry

     iteration #  6     ecut=    30.00 Ry     beta= 0.50
     Davidson diagonalization with overlap
     ethr =  1.13E-06,  avg # of iterations = 16.0

     total cpu time spent up to now is        6.3 secs

     total energy              =    -503.65367438 Ry
     estimated scf accuracy    <       0.00103398 Ry

     iteration #  7     ecut=    30.00 Ry     beta= 0.50
     Davidson diagonalization with overlap
     ethr =  4.04E-07,  avg # of iterations =  3.0

     total cpu time spent up to now is        6.4 secs

     total energy              =    -503.65375773 Ry
     estimated scf accuracy    <       0.00031842 Ry

     iteration #  8     ecut=    30.00 Ry     beta= 0.50
     Davidson diagonalization with overlap
     ethr =  1.24E-07,  avg # of iterations =  3.0

     total cpu time spent up to now is        6.5 secs

     total energy              =    -503.65380527 Ry
     estimated scf accuracy    <       0.00001436 Ry

     iteration #  9     ecut=    30.00 Ry     beta= 0.50
     Davidson diagonalization with overlap
     ethr =  5.61E-09,  avg # of iterations =  5.0

     total cpu time spent up to now is        6.7 secs

     total energy              =    -503.65381062 Ry
     estimated scf accuracy    <       0.00001133 Ry

     iteration # 10     ecut=    30.00 Ry     beta= 0.50
     Davidson diagonalization with overlap
     ethr =  4.42E-09,  avg # of iterations =  2.0

     total cpu time spent up to now is        6.8 secs

     End of self-consistent calculation

          k = 0.0000 0.0000 0.0000 ( 12532 PWs)   bands (ev):

    -5.9421  -5.0752  -5.0439  -4.9300  -4.8611  -4.8264  -4.6408  -4.2903
    -4.1854  -4.1527  -4.0693  -4.0358  -4.0013  -3.9146  -3.8551  -3.8299
    -3.7989  -3.7613  -3.7253  -3.6761  -3.6528  -3.5397  -3.3605  -2.2321
    -2.1145  -2.0826  -2.0077  -1.9426  -1.8735  -1.8515  -1.8427  -1.7949
    -1.7639  -1.7491  -1.6846  -1.6641  -1.6119  -1.5805  -1.5633  -1.5235
    -1.4476  -1.1856  -0.9681  -0.8686  -0.8421   0.1946   0.2218   0.2419
     0.2534   0.3271   0.3521   0.3697   0.4135   0.4562   0.4831   0.5181
     0.7245   1.8170   1.8639   1.9026   1.9199   1.9602   1.9829   2.0054
     2.0081   2.0425   2.0635   2.0856   2.0959   2.1172   2.1242   2.1503
     2.1774   2.1816   2.2194   2.2265   2.2421   2.3048   2.3369   2.3712
     2.3983   2.4358   2.4667   2.4890   2.5014   2.5692   2.5790   2.8085
     2.8873   3.1014   3.1476   3.2233   3.2676   3.5972   3.6595   3.8803
     3.9088   3.9385   3.9982   4.0287   4.0850   4.1126   4.1267   4.1563
     4.1614   4.2240   4.2760   4.2852   4.3254   4.3638   4.4139   4.4696
     4.5103   4.5565   4.5684   4.6591   4.7034   4.7381   4.7787   4.7976
     4.8261   4.8952   5.0078   5.0740   5.0828   5.5656   5.9738   6.0020
     6.2595   6.3151   6.4230   6.5646   6.5998   6.7295   6.8138   6.8616
     6.9586   6.9749   7.0205   7.0398   7.0736   7.1268   7.1350   7.1874
     7.7241   7.7867   7.9049   8.1359   8.1467   8.1745   8.1856   8.2001
     8.2174   8.2500

     the Fermi energy is     6.1083 ev

!    total energy              =    -503.65381162 Ry
     estimated scf accuracy    <       0.00000085 Ry
     smearing contrib. (-TS)   =      -0.06195692 Ry
     internal energy E=F+TS    =    -503.59185470 Ry

     The total energy is F=E-TS. E is the sum of the following terms:
     one-electron contribution =     139.65194828 Ry
     hartree contribution      =      37.88020577 Ry
     xc contribution           =    -152.82121286 Ry
     ewald contribution        =    -528.30279589 Ry

     convergence has been achieved in  10 iterations

     Forces acting on atoms (cartesian axes, Ry/au):

     atom    1 type  1   force =    -0.01114782   -0.03648292   -0.02753189
     atom    2 type  1   force =    -0.03010816   -0.03539397   -0.02696602
     atom    3 type  1   force =     0.01569151   -0.06599662   -0.00018026
     atom    4 type  1   force =     0.07831153    0.05735313   -0.07654223
     atom    5 type  1   force =    -0.06626884   -0.03975368    0.06478401
     atom    6 type  1   force =    -0.00871623   -0.04087682   -0.01720894
     atom    7 type  1   force =     0.01105749   -0.00685095   -0.04449600
     atom    8 type  1   force =    -0.00519212    0.00097039    0.01039480
     atom    9 type  1   force =    -0.02067733   -0.01138564    0.03947778
     atom   10 type  1   force =    -0.02693617   -0.03046135   -0.01668210
     atom   11 type  1   force =    -0.06211832    0.01108844   -0.02575153
     atom   12 type  1   force =     0.01075991    0.01905308   -0.01115466
     atom   13 type  1   force =    -0.01652816   -0.02363541    0.05406991
     atom   14 type  1   force =    -0.00853843   -0.03217382   -0.00450704
     atom   15 type  1   force =     0.01340022   -0.00150422   -0.00639400
     atom   16 type  1   force =     0.03989091   -0.03016250   -0.03403799
     atom   17 type  1   force =     0.03097842    0.04837858    0.01770935
     atom   18 type  1   force =    -0.01426464   -0.01685446   -0.01174820
     atom   19 type  1   force =    -0.00878514    0.02207475   -0.01813192
     atom   20 type  1   force =     0.04346614   -0.01084224   -0.04141386
     atom   21 type  1   force =    -0.00778242    0.07742842    0.01103198
     atom   22 type  1   force =    -0.01198678    0.02920341    0.01962391
     atom   23 type  1   force =     0.03852983   -0.04946521   -0.00641657
     atom   24 type  1   force =     0.02569074    0.02163296    0.00393380
     atom   25 type  1   force =    -0.02342628   -0.06329202   -0.01142774
     atom   26 type  1   force =     0.03531046    0.01018969    0.02894035
     atom   27 type  1   force =    -0.00030859   -0.02812868   -0.02536590
     atom   28 type  1   force =    -0.00066261   -0.04444197    0.01027937
     atom   29 type  1   force =    -0.01140436   -0.04932008   -0.00776471
     atom   30 type  1   force =    -0.03050081   -0.02624276    0.02952025
     atom   31 type  1   force =    -0.00307520    0.01191142   -0.01395196
     atom   32 type  1   force =     0.00793628   -0.04151352   -0.06630250
     atom   33 type  1   force =    -0.00818720    0.01675009   -0.02271837
     atom   34 type  1   force =    -0.04287415    0.03021226    0.04829331
     atom   35 type  1   force =    -0.00494602   -0.01122333   -0.00488273
     atom   36 type  1   force =     0.02883731    0.02440501   -0.00755180
     atom   37 type  1   force =     0.00775091   -0.01531294    0.03612092
     atom   38 type  1   force =     0.01378635    0.01147857    0.02516539
     atom   39 type  1   force =    -0.04017161    0.00212252    0.00044710
     atom   40 type  1   force =     0.00907889    0.03797911   -0.02457832
     atom   41 type  1   force =     0.04032525   -0.04356313   -0.03002942
     atom   42 type  1   force =     0.06960426    0.04294317    0.01367531
     atom   43 type  1   force =     0.02687221    0.05946745    0.02352522
     atom   44 type  1   force =    -0.02066563    0.00908565   -0.01124487
     atom   45 type  1   force =    -0.04386291    0.08210845   -0.04782051
     atom   46 type  1   force =     0.01381852    0.06094551   -0.03263868
     atom   47 type  1   force =    -0.01161037   -0.02963542    0.06587594
     atom   48 type  1   force =     0.02423607    0.04154715    0.04145518
     atom   49 type  1   force =    -0.05526146    0.02211992    0.02824980
     atom   50 type  1   force =     0.02284838   -0.04111441    0.03420407
     atom   51 type  1   force =    -0.01805492   -0.00516240    0.02917502
     atom   52 type  1   force =    -0.02883170    0.01677626   -0.01286139
     atom   53 type  1   force =     0.02550954   -0.05604432    0.01003837
     atom   54 type  1   force =     0.01927206   -0.02071229    0.00601372
     atom   55 type  1   force =     0.03743479   -0.00494537   -0.01139835
     atom   56 type  1   force =    -0.01714441   -0.04155421   -0.02706354
     atom   57 type  1   force =     0.01246527    0.03324049   -0.00690122
     atom   58 type  1   force =     0.01105591    0.03376509    0.04757287
     atom   59 type  1   force =    -0.00745601   -0.00959579    0.04753882
     atom   60 type  1   force =    -0.01720389   -0.02728344    0.04165022
     atom   61 type  1   force =    -0.03607805    0.00553028   -0.05386086
     atom   62 type  1   force =     0.02116726    0.08826084    0.02553687
     atom   63 type  1   force =     0.02131033   -0.02206002    0.00933781
     atom   64 type  1   force =    -0.03562000    0.08496380   -0.03611538

     Total force =     0.458551     Total SCF correction =     0.001651


     Computing stress (Cartesian axis) and pressure

          total   stress  (Ry/bohr**3)                   (kbar)     P=       -4.98
  -0.00009566   0.00003681   0.00008197          -14.07        5.41       12.06
   0.00003681   0.00006417   0.00002193            5.41        9.44        3.23
   0.00008197   0.00002193  -0.00007001           12.06        3.23      -10.30

 
     init_run     :      1.16s CPU      5.06s WALL (       1 calls)
     electrons    :      1.51s CPU      1.64s WALL (       1 calls)
     forces       :      0.04s CPU      0.05s WALL (       1 calls)
     stress       :      0.16s CPU      0.17s WALL (       1 calls)

     Called by init_run:
     wfcinit      :      0.51s CPU      4.23s WALL (       1 calls)
                                        4.23s GPU  (       1 calls)
     potinit      :      0.21s CPU      0.30s WALL (       1 calls)
     hinit0       :      0.42s CPU      0.45s WALL (       1 calls)

     Called by electrons:
     c_bands      :      1.03s CPU      1.09s WALL (      11 calls)
     sum_band     :      0.25s CPU      0.29s WALL (      11 calls)
     v_of_rho     :      0.14s CPU      0.24s WALL (      11 calls)
     mix_rho      :      0.09s CPU      0.10s WALL (      11 calls)

     Called by c_bands:
     init_us_2    :      0.04s CPU      0.04s WALL (      23 calls)
     init_us_2:gp :      0.04s CPU      0.04s WALL (      23 calls)
     regterg      :      0.93s CPU      0.99s WALL (      11 calls)

     Called by *egterg:
     rdiaghg      :      0.42s CPU      1.17s WALL (      87 calls)
                                        1.15s GPU  (      87 calls)
     h_psi        :      0.86s CPU      3.87s WALL (      89 calls)
                                        3.87s GPU  (      89 calls)
     g_psi        :      0.00s CPU      0.00s WALL (      77 calls)
                                        0.00s GPU  (      77 calls)

     Called by h_psi:
     h_psi:calbec :      0.45s CPU      3.37s WALL (      89 calls)
                                        3.37s GPU  (      89 calls)
     vloc_psi     :      0.36s CPU      0.44s WALL (      89 calls)
                                        0.43s GPU  (      89 calls)
     add_vuspsi   :      0.04s CPU      0.05s WALL (      89 calls)
                                        0.05s GPU  (      89 calls)

     General routines
     calbec       :      0.45s CPU      3.38s WALL (      94 calls)
     fft          :      0.50s CPU      0.63s WALL (      95 calls)
                                        0.14s GPU  (      61 calls)
     ffts         :      0.03s CPU      0.04s WALL (      11 calls)
     fftw         :      0.39s CPU      0.54s WALL (    1249 calls)
                                        0.48s GPU  (    1249 calls)
 
     Parallel routines
 
     PWSCF        :      2.92s CPU      7.00s WALL

 
   This run was terminated on:  11:22:33  10May2023            

=------------------------------------------------------------------------------=
   JOB DONE.
=------------------------------------------------------------------------------=
