An instance of this daemon is already running
An instance of this daemon is already running
An instance of this daemon is already running

     Program PWSCF v.7.1 starts on 10May2023 at 11:21:58 

     This program is part of the open-source Quantum ESPRESSO suite
     for quantum simulation of materials; please cite
         "P. Giannozzi et al., J. Phys.:Condens. Matter 21 395502 (2009);
         "P. Giannozzi et al., J. Phys.:Condens. Matter 29 465901 (2017);
         "P. Giannozzi et al., J. Chem. Phys. 152 154105 (2020);
          URL http://www.quantum-espresso.org", 
     in publications or presentations arising from this work. More details at
     http://www.quantum-espresso.org/quote

     Parallel version (MPI & OpenMP), running on       4 processor cores
     Number of MPI processes:                 4
     Threads/MPI process:                     1

     MPI processes distributed on     1 nodes
     753550 MiB available memory on the printing compute node when the environment starts
 
     Reading input from pw-si-73.in
Warning: card &CELL ignored
Warning: card / ignored

     Current dimensions of program PWSCF are:
     Max number of different atomic species (ntypx) = 10
     Max number of k-points (npk) =  40000
     Max angular momentum in pseudopotentials (lmaxx) =  4

     IMPORTANT: XC functional enforced from input :
     Exchange-correlation= PBE
                           (   1   4   3   4   0   0   0)
     Any further DFT definition will be discarded
     Please, verify this is what you really want


     gamma-point specific algorithms are used
 
     K-points division:     npool     =       2
     R & G space division:  proc/nbgrp/npool/nimage =       2
     Subspace diagonalization in iterative solution of the eigenvalue problem:
     a serial algorithm will be used

     Message from routine divide_et_impera:
     suboptimal parallelization: some nodes have no k-points
 
     Parallelization info
     --------------------
     sticks:   dense  smooth     PW     G-vecs:    dense   smooth      PW
     Min        2060    2060    543               100560   100560   13647
     Max        2061    2061    548               100561   100561   13648
     Sum        4121    4121   1091               201121   201121   27295
 
     Using Slab Decomposition
 


     bravais-lattice index     =            0
     lattice parameter (alat)  =      21.3061  a.u.
     unit-cell volume          =    9064.7184 (a.u.)^3
     number of atoms/cell      =           64
     number of atomic types    =            1
     number of electrons       =       256.00
     number of Kohn-Sham states=          154
     kinetic-energy cutoff     =      30.0000  Ry
     charge density cutoff     =     120.0000  Ry
     scf convergence threshold =      1.0E-06
     mixing beta               =       0.5000
     number of iterations used =            8  plain     mixing
     Exchange-correlation= PBE
                           (   1   4   3   4   0   0   0)

     GPU acceleration is ACTIVE.
     GPU-aware MPI enabled

     Message from routine print_cuda_info:
     High GPU oversubscription detected. Are you sure this is what you want?

     celldm(1)=  21.306078  celldm(2)=   0.000000  celldm(3)=   0.000000
     celldm(4)=   0.000000  celldm(5)=   0.000000  celldm(6)=   0.000000

     crystal axes: (cart. coord. in units of alat)
               a(1) = (   1.000000   0.000000   0.000000 )  
               a(2) = (   0.000000   0.948206   0.000000 )  
               a(3) = (   0.000000   0.000000   0.988419 )  

     reciprocal axes: (cart. coord. in units 2 pi/alat)
               b(1) = (  1.000000  0.000000  0.000000 )  
               b(2) = (  0.000000  1.054623  0.000000 )  
               b(3) = (  0.000000  0.000000  1.011717 )  


     PseudoPot. # 1 for Si read from file:
     /home/ppiaggi/pseudos/Si_ONCV_PBE_sr.upf
     MD5 check sum: 8553c464762ac42b85b1eed164b4d029
     Pseudo is Norm-conserving, Zval =  4.0
     Generated using ONCVPSP code by D. R. Hamann
     Using radial grid of 1510 points,  4 beta functions with: 
                l(1) =   0
                l(2) =   0
                l(3) =   1
                l(4) =   1

     atomic species   valence    mass     pseudopotential
        Si             4.00    28.08500     Si( 1.00)

     No symmetry found



   Cartesian axes

     site n.     atom                  positions (alat units)
         1           Si  tau(   1) = (  -0.0086881  -0.0069790  -0.0045876  )
         2           Si  tau(   2) = (  -0.0030808   0.2377738   0.2349217  )
         3           Si  tau(   3) = (   0.2403811  -0.0041683   0.2338842  )
         4           Si  tau(   4) = (   0.2546477   0.2359590   0.0017181  )
         5           Si  tau(   5) = (   0.1236777   0.1127700   0.1272650  )
         6           Si  tau(   6) = (   0.4933505   0.0057550  -0.0075482  )
         7           Si  tau(   7) = (   0.4950599   0.2388015   0.2335991  )
         8           Si  tau(   8) = (   0.6225101   0.1143558   0.1164764  )
         9           Si  tau(   9) = (   0.7381104   0.0073790   0.2461267  )
        10           Si  tau(  10) = (   0.7360013   0.2266277  -0.0034516  )
        11           Si  tau(  11) = (   0.0087011   0.4600340   0.0049408  )
        12           Si  tau(  12) = (   0.2482839   0.4546821   0.2385857  )
        13           Si  tau(  13) = (   0.1182175   0.5710303   0.1147608  )
        14           Si  tau(  14) = (   0.3793204   0.3517755   0.1147419  )
        15           Si  tau(  15) = (   0.5032444   0.4562054   0.0065780  )
        16           Si  tau(  16) = (   0.6214967   0.5703841   0.1160561  )
        17           Si  tau(  17) = (   0.8723319   0.3398856   0.1272820  )
        18           Si  tau(  18) = (   0.7498538   0.4540040   0.2482117  )
        19           Si  tau(  19) = (   0.0045191   0.6964290   0.2379041  )
        20           Si  tau(  20) = (   0.2502464   0.6876051   0.0068542  )
        21           Si  tau(  21) = (   0.3770005   0.8081804   0.1151626  )
        22           Si  tau(  22) = (   0.5024952   0.6943035   0.2437536  )
        23           Si  tau(  23) = (   0.7433999   0.6944543  -0.0029879  )
        24           Si  tau(  24) = (   0.8678435   0.8001905   0.1147557  )
        25           Si  tau(  25) = (   0.0042622   0.0040272   0.4868433  )
        26           Si  tau(  26) = (   0.2514742   0.2277150   0.4809906  )
        27           Si  tau(  27) = (   0.1305405   0.1098453   0.5957219  )
        28           Si  tau(  28) = (   0.3733344   0.1202928   0.3623748  )
        29           Si  tau(  29) = (   0.5007587   0.0062932   0.4738995  )
        30           Si  tau(  30) = (   0.6233289   0.1184246   0.6033678  )
        31           Si  tau(  31) = (   0.8739335   0.1108860   0.3603906  )
        32           Si  tau(  32) = (   0.7431707   0.2273870   0.4730440  )
        33           Si  tau(  33) = (   0.1268159   0.3457235   0.3544838  )
        34           Si  tau(  34) = (  -0.0073704   0.4690966   0.4796755  )
        35           Si  tau(  35) = (   0.1288291   0.5719909   0.6037332  )
        36           Si  tau(  36) = (   0.6154319   0.3434397   0.3689372  )
        37           Si  tau(  37) = (   0.3660437   0.5735007   0.3610636  )
        38           Si  tau(  38) = (   0.3799363   0.3499314   0.6049971  )
        39           Si  tau(  39) = (   0.4897789   0.4666413   0.4796671  )
        40           Si  tau(  40) = (   0.6109024   0.5832336   0.6030819  )
        41           Si  tau(  41) = (   0.8586477   0.5829077   0.3623311  )
        42           Si  tau(  42) = (   0.8708464   0.3418798   0.5932149  )
        43           Si  tau(  43) = (   0.1196494   0.7998299   0.3525968  )
        44           Si  tau(  44) = (   0.2445390   0.6867157   0.4748055  )
        45           Si  tau(  45) = (   0.6235841   0.8125604   0.3667004  )
        46           Si  tau(  46) = (   0.3803846   0.8113067   0.6076791  )
        47           Si  tau(  47) = (   0.7377343   0.6965645   0.4799901  )
        48           Si  tau(  48) = (   0.8648006   0.8137459   0.6088608  )
        49           Si  tau(  49) = (   0.0033383   0.2282393   0.7236048  )
        50           Si  tau(  50) = (   0.2461583  -0.0067024   0.7225597  )
        51           Si  tau(  51) = (   0.3630540   0.1085607   0.8443197  )
        52           Si  tau(  52) = (   0.5036631   0.2232117   0.7215508  )
        53           Si  tau(  53) = (   0.7423753  -0.0056196   0.7133926  )
        54           Si  tau(  54) = (   0.8645192   0.1163211   0.8331018  )
        55           Si  tau(  55) = (   0.1310884   0.3466193   0.8396479  )
        56           Si  tau(  56) = (   0.2455753   0.4564480   0.7233508  )
        57           Si  tau(  57) = (   0.6244583   0.3475478   0.8409408  )
        58           Si  tau(  58) = (   0.3799101   0.5813037   0.8362193  )
        59           Si  tau(  59) = (   0.7438165   0.4673233   0.7278313  )
        60           Si  tau(  60) = (   0.8723793   0.5714441   0.8370119  )
        61           Si  tau(  61) = (  -0.0049928   0.6835958   0.7241579  )
        62           Si  tau(  62) = (   0.1209101   0.8001321   0.8407613  )
        63           Si  tau(  63) = (   0.4996667   0.6994605   0.7287300  )
        64           Si  tau(  64) = (   0.6194323   0.8145409   0.8481242  )

     number of k points=     1  Fermi-Dirac smearing, width (Ry)=  0.0100
                       cart. coord. in units 2pi/alat
        k(    1) = (   0.0000000   0.0000000   0.0000000), wk =   2.0000000

     Dense  grid:   100561 G-vectors     FFT dimensions: (  75,  72,  75)

     Estimated max dynamical RAM per process >     161.03 MB

     Estimated total dynamical RAM >     619.55 MB

     Initial potential from superposition of free atoms

     starting charge     255.9608, renormalised to     256.0000
     Starting wfcs are  256 randomized atomic wfcs

     total cpu time spent up to now is        5.1 secs

     Self-consistent Calculation

     iteration #  1     ecut=    30.00 Ry     beta= 0.50
     Davidson diagonalization with overlap
     ethr =  1.00E-02,  avg # of iterations =  3.0

     Threshold (ethr) on eigenvalues was too large:
     Diagonalizing with lowered threshold

     Davidson diagonalization with overlap
     ethr =  6.24E-04,  avg # of iterations =  4.0

     total cpu time spent up to now is        5.4 secs

     total energy              =    -503.33711783 Ry
     estimated scf accuracy    <       1.78006632 Ry

     iteration #  2     ecut=    30.00 Ry     beta= 0.50
     Davidson diagonalization with overlap
     ethr =  6.95E-04,  avg # of iterations =  1.0

     total cpu time spent up to now is        5.5 secs

     total energy              =    -503.30537880 Ry
     estimated scf accuracy    <       0.39211473 Ry

     iteration #  3     ecut=    30.00 Ry     beta= 0.50
     Davidson diagonalization with overlap
     ethr =  1.53E-04,  avg # of iterations =  6.0

     total cpu time spent up to now is        5.7 secs

     total energy              =    -503.20864857 Ry
     estimated scf accuracy    <       1.08075583 Ry

     iteration #  4     ecut=    30.00 Ry     beta= 0.50
     Davidson diagonalization with overlap
     ethr =  1.53E-04,  avg # of iterations =  5.0

     total cpu time spent up to now is        5.8 secs

     total energy              =    -503.36923413 Ry
     estimated scf accuracy    <       0.03323524 Ry

     iteration #  5     ecut=    30.00 Ry     beta= 0.50
     Davidson diagonalization with overlap
     ethr =  1.30E-05,  avg # of iterations = 17.0

     total cpu time spent up to now is        6.0 secs

     total energy              =    -503.37085887 Ry
     estimated scf accuracy    <       0.01529964 Ry

     iteration #  6     ecut=    30.00 Ry     beta= 0.50
     Davidson diagonalization with overlap
     ethr =  5.98E-06,  avg # of iterations =  5.0

     total cpu time spent up to now is        6.1 secs

     total energy              =    -503.37255232 Ry
     estimated scf accuracy    <       0.00414756 Ry

     iteration #  7     ecut=    30.00 Ry     beta= 0.50
     Davidson diagonalization with overlap
     ethr =  1.62E-06,  avg # of iterations = 18.0

     total cpu time spent up to now is        6.3 secs

     total energy              =    -503.37323085 Ry
     estimated scf accuracy    <       0.00039678 Ry

     iteration #  8     ecut=    30.00 Ry     beta= 0.50
     Davidson diagonalization with overlap
     ethr =  1.55E-07,  avg # of iterations =  4.0

     total cpu time spent up to now is        6.5 secs

     total energy              =    -503.37326903 Ry
     estimated scf accuracy    <       0.00016344 Ry

     iteration #  9     ecut=    30.00 Ry     beta= 0.50
     Davidson diagonalization with overlap
     ethr =  6.38E-08,  avg # of iterations =  4.0

     total cpu time spent up to now is        6.6 secs

     total energy              =    -503.37328426 Ry
     estimated scf accuracy    <       0.00005959 Ry

     iteration # 10     ecut=    30.00 Ry     beta= 0.50
     Davidson diagonalization with overlap
     ethr =  2.33E-08,  avg # of iterations =  3.0

     total cpu time spent up to now is        6.7 secs

     total energy              =    -503.37329124 Ry
     estimated scf accuracy    <       0.00000525 Ry

     iteration # 11     ecut=    30.00 Ry     beta= 0.50
     Davidson diagonalization with overlap
     ethr =  2.05E-09,  avg # of iterations =  5.0

     total cpu time spent up to now is        6.8 secs

     End of self-consistent calculation

          k = 0.0000 0.0000 0.0000 ( 12590 PWs)   bands (ev):

    -6.0477  -5.1878  -5.1152  -5.0223  -5.0025  -4.8506  -4.7239  -4.3637
    -4.3370  -4.2592  -4.1671  -4.0899  -4.0735  -4.0128  -3.9633  -3.9480
    -3.9226  -3.8541  -3.7921  -3.7145  -3.6509  -3.5120  -3.1562  -2.3440
    -2.2812  -2.2111  -2.1377  -2.1061  -2.0090  -1.9734  -1.9251  -1.8593
    -1.8476  -1.7692  -1.7551  -1.6779  -1.6008  -1.5689  -1.5032  -1.4852
    -1.4068  -1.2251  -1.0920  -0.9087  -0.8430   0.0578   0.0982   0.2052
     0.2173   0.2245   0.2928   0.3342   0.3940   0.4406   0.5053   0.5689
     0.6475   1.7248   1.7468   1.7819   1.7873   1.8406   1.8474   1.8774
     1.9058   1.9220   1.9575   1.9604   1.9813   1.9970   2.0287   2.0817
     2.1147   2.1323   2.1602   2.2054   2.2214   2.2637   2.2935   2.3606
     2.4281   2.4629   2.4783   2.5467   2.6028   2.6693   2.7555   2.8188
     2.8420   3.0311   3.0546   3.2430   3.2631   3.5894   3.6164   3.7320
     3.7952   3.8171   3.9332   3.9483   3.9784   4.0149   4.0720   4.1097
     4.1294   4.1770   4.1987   4.2261   4.2579   4.3009   4.3155   4.4297
     4.4758   4.5191   4.5488   4.5748   4.6170   4.6699   4.7355   4.7972
     4.8356   4.8991   5.0718   5.1861   5.5253   5.5710   5.8886   6.0652
     6.1161   6.2119   6.3688   6.4467   6.5436   6.6878   6.7015   6.7682
     6.8682   6.9002   6.9129   6.9410   6.9905   7.0042   7.0743   7.1482
     7.5938   7.6531   7.7333   7.8880   7.9709   7.9953   8.0473   8.0873
     8.1175   8.1853

     the Fermi energy is     6.0503 ev

!    total energy              =    -503.37329235 Ry
     estimated scf accuracy    <       0.00000058 Ry
     smearing contrib. (-TS)   =      -0.07061096 Ry
     internal energy E=F+TS    =    -503.30268139 Ry

     The total energy is F=E-TS. E is the sum of the following terms:
     one-electron contribution =     134.45468786 Ry
     hartree contribution      =      39.91626199 Ry
     xc contribution           =    -152.66938190 Ry
     ewald contribution        =    -525.00424935 Ry

     convergence has been achieved in  11 iterations

     Forces acting on atoms (cartesian axes, Ry/au):

     atom    1 type  1   force =    -0.00079411   -0.02208276   -0.03346721
     atom    2 type  1   force =     0.02886393   -0.06562652    0.05618797
     atom    3 type  1   force =     0.06080243   -0.07079975    0.05214465
     atom    4 type  1   force =    -0.03397467   -0.03372714   -0.05948636
     atom    5 type  1   force =    -0.03479575    0.02217847   -0.08097609
     atom    6 type  1   force =    -0.00570957   -0.06992084   -0.02537104
     atom    7 type  1   force =     0.01816804   -0.03664077    0.03053391
     atom    8 type  1   force =    -0.04346956   -0.00303000    0.00994502
     atom    9 type  1   force =     0.02630504   -0.09495662   -0.01049793
     atom   10 type  1   force =     0.06289819    0.03736510   -0.06104992
     atom   11 type  1   force =    -0.08770409   -0.06149992   -0.11414164
     atom   12 type  1   force =     0.00326376    0.03409900   -0.02487606
     atom   13 type  1   force =     0.06536658    0.04478067    0.06299523
     atom   14 type  1   force =    -0.04762114   -0.01902797    0.01536610
     atom   15 type  1   force =     0.00408625    0.02965178   -0.13305736
     atom   16 type  1   force =     0.04101338    0.02834030    0.04373744
     atom   17 type  1   force =    -0.03619483    0.03488462   -0.08319559
     atom   18 type  1   force =    -0.03668222    0.01321296   -0.01962791
     atom   19 type  1   force =    -0.09029659   -0.05445302   -0.03426572
     atom   20 type  1   force =    -0.00140315    0.01007670   -0.09000680
     atom   21 type  1   force =     0.00106785    0.06047819    0.01194615
     atom   22 type  1   force =    -0.01849979   -0.00765664   -0.01062384
     atom   23 type  1   force =    -0.01033376   -0.02458450   -0.06682007
     atom   24 type  1   force =     0.02346437    0.09025627    0.02050664
     atom   25 type  1   force =    -0.05139263   -0.10528418   -0.03676392
     atom   26 type  1   force =    -0.00231394    0.04724567    0.01536521
     atom   27 type  1   force =     0.00352036    0.02591230    0.05041679
     atom   28 type  1   force =    -0.01047038   -0.03132887   -0.06572869
     atom   29 type  1   force =    -0.00224646   -0.06660493    0.04557140
     atom   30 type  1   force =     0.01219744   -0.03443703   -0.04758776
     atom   31 type  1   force =     0.01992274    0.01873222   -0.01199769
     atom   32 type  1   force =     0.02260270   -0.00578973    0.03776683
     atom   33 type  1   force =    -0.03244855   -0.00754930    0.04280597
     atom   34 type  1   force =     0.01577009   -0.01816285   -0.00481334
     atom   35 type  1   force =    -0.03734980    0.01153371   -0.01848773
     atom   36 type  1   force =     0.00102995    0.01962245   -0.04322464
     atom   37 type  1   force =     0.02167047    0.01508925   -0.04578571
     atom   38 type  1   force =    -0.02588811   -0.04212920   -0.00024028
     atom   39 type  1   force =     0.02480254   -0.00313309    0.02212336
     atom   40 type  1   force =     0.03488395   -0.01846691   -0.00257381
     atom   41 type  1   force =     0.06163017    0.00462863   -0.01925670
     atom   42 type  1   force =     0.00335779    0.01491657    0.03434379
     atom   43 type  1   force =     0.04433985    0.11662053    0.05424198
     atom   44 type  1   force =     0.01333361    0.04523355    0.05005836
     atom   45 type  1   force =    -0.02879109    0.07491132   -0.04469915
     atom   46 type  1   force =    -0.03903165    0.05171397   -0.05515030
     atom   47 type  1   force =     0.02952401    0.00500203    0.05609126
     atom   48 type  1   force =     0.04082594    0.00782869   -0.03362428
     atom   49 type  1   force =    -0.01346347    0.00600437   -0.02260101
     atom   50 type  1   force =    -0.00854362   -0.06742056    0.00386092
     atom   51 type  1   force =     0.03323537    0.03464533    0.04200010
     atom   52 type  1   force =    -0.05160992    0.03391915    0.04425549
     atom   53 type  1   force =    -0.00276204   -0.02975073    0.05407945
     atom   54 type  1   force =     0.01210194   -0.01905897    0.06959690
     atom   55 type  1   force =    -0.03538236   -0.03172858    0.09963962
     atom   56 type  1   force =     0.05925614    0.03852678   -0.00507206
     atom   57 type  1   force =    -0.02153611   -0.02372619    0.06819075
     atom   58 type  1   force =    -0.04462827   -0.04244843    0.09193808
     atom   59 type  1   force =    -0.00615004   -0.02773236   -0.06355589
     atom   60 type  1   force =     0.01134565    0.01054953    0.11314581
     atom   61 type  1   force =     0.00968919    0.03860231   -0.02537122
     atom   62 type  1   force =     0.01808858    0.04814103    0.05805959
     atom   63 type  1   force =     0.00889300    0.01444220   -0.00389375
     atom   64 type  1   force =     0.02416634    0.04961268    0.04097670

     Total force =     0.611715     Total SCF correction =     0.001105


     Computing stress (Cartesian axis) and pressure

          total   stress  (Ry/bohr**3)                   (kbar)     P=       -1.72
  -0.00007820   0.00007582   0.00009430          -11.50       11.15       13.87
   0.00007582   0.00008118  -0.00000018           11.15       11.94       -0.03
   0.00009430  -0.00000018  -0.00003804           13.87       -0.03       -5.60

 
     init_run     :      1.19s CPU      5.05s WALL (       1 calls)
     electrons    :      1.58s CPU      1.70s WALL (       1 calls)
     forces       :      0.04s CPU      0.05s WALL (       1 calls)
     stress       :      0.17s CPU      0.17s WALL (       1 calls)

     Called by init_run:
     wfcinit      :      0.55s CPU      4.23s WALL (       1 calls)
                                        4.23s GPU  (       1 calls)
     potinit      :      0.20s CPU      0.30s WALL (       1 calls)
     hinit0       :      0.42s CPU      0.45s WALL (       1 calls)

     Called by electrons:
     c_bands      :      1.04s CPU      1.10s WALL (      12 calls)
     sum_band     :      0.28s CPU      0.31s WALL (      12 calls)
     v_of_rho     :      0.14s CPU      0.25s WALL (      12 calls)
     mix_rho      :      0.10s CPU      0.12s WALL (      12 calls)

     Called by c_bands:
     init_us_2    :      0.05s CPU      0.05s WALL (      25 calls)
     init_us_2:gp :      0.05s CPU      0.05s WALL (      25 calls)
     regterg      :      0.93s CPU      0.99s WALL (      12 calls)

     Called by *egterg:
     rdiaghg      :      0.40s CPU      1.15s WALL (      86 calls)
                                        1.13s GPU  (      86 calls)
     h_psi        :      0.92s CPU      3.89s WALL (      88 calls)
                                        3.88s GPU  (      88 calls)
     g_psi        :      0.00s CPU      0.00s WALL (      75 calls)
                                        0.00s GPU  (      75 calls)

     Called by h_psi:
     h_psi:calbec :      0.49s CPU      3.37s WALL (      88 calls)
                                        3.37s GPU  (      88 calls)
     vloc_psi     :      0.38s CPU      0.46s WALL (      88 calls)
                                        0.46s GPU  (      88 calls)
     add_vuspsi   :      0.03s CPU      0.05s WALL (      88 calls)
                                        0.05s GPU  (      88 calls)

     General routines
     calbec       :      0.50s CPU      3.37s WALL (      93 calls)
     fft          :      0.50s CPU      0.64s WALL (     103 calls)
                                        0.13s GPU  (      66 calls)
     ffts         :      0.04s CPU      0.04s WALL (      12 calls)
     fftw         :      0.42s CPU      0.57s WALL (    1344 calls)
                                        0.51s GPU  (    1344 calls)
 
     Parallel routines
 
     PWSCF        :      3.03s CPU      7.06s WALL

 
   This run was terminated on:  11:22: 5  10May2023            

=------------------------------------------------------------------------------=
   JOB DONE.
=------------------------------------------------------------------------------=
