An instance of this daemon is already running

     Program PWSCF v.7.1 starts on 10May2023 at 11:20:25 

     This program is part of the open-source Quantum ESPRESSO suite
     for quantum simulation of materials; please cite
         "P. Giannozzi et al., J. Phys.:Condens. Matter 21 395502 (2009);
         "P. Giannozzi et al., J. Phys.:Condens. Matter 29 465901 (2017);
         "P. Giannozzi et al., J. Chem. Phys. 152 154105 (2020);
          URL http://www.quantum-espresso.org", 
     in publications or presentations arising from this work. More details at
     http://www.quantum-espresso.org/quote

     Parallel version (MPI & OpenMP), running on       4 processor cores
     Number of MPI processes:                 4
     Threads/MPI process:                     1

     MPI processes distributed on     1 nodes
     753575 MiB available memory on the printing compute node when the environment starts
 
     Reading input from pw-si-63.in
Warning: card &CELL ignored
Warning: card / ignored

     Current dimensions of program PWSCF are:
     Max number of different atomic species (ntypx) = 10
     Max number of k-points (npk) =  40000
     Max angular momentum in pseudopotentials (lmaxx) =  4

     IMPORTANT: XC functional enforced from input :
     Exchange-correlation= PBE
                           (   1   4   3   4   0   0   0)
     Any further DFT definition will be discarded
     Please, verify this is what you really want


     gamma-point specific algorithms are used
 
     K-points division:     npool     =       2
     R & G space division:  proc/nbgrp/npool/nimage =       2
     Subspace diagonalization in iterative solution of the eigenvalue problem:
     a serial algorithm will be used

     Message from routine divide_et_impera:
     suboptimal parallelization: some nodes have no k-points
 
     Parallelization info
     --------------------
     sticks:   dense  smooth     PW     G-vecs:    dense   smooth      PW
     Min        1989    1989    521                97628    97628   13221
     Max        1992    1992    524                97629    97629   13224
     Sum        3981    3981   1045               195257   195257   26445
 
     Using Slab Decomposition
 


     bravais-lattice index     =            0
     lattice parameter (alat)  =      20.3438  a.u.
     unit-cell volume          =    8791.1903 (a.u.)^3
     number of atoms/cell      =           64
     number of atomic types    =            1
     number of electrons       =       256.00
     number of Kohn-Sham states=          154
     kinetic-energy cutoff     =      30.0000  Ry
     charge density cutoff     =     120.0000  Ry
     scf convergence threshold =      1.0E-06
     mixing beta               =       0.5000
     number of iterations used =            8  plain     mixing
     Exchange-correlation= PBE
                           (   1   4   3   4   0   0   0)

     GPU acceleration is ACTIVE.
     GPU-aware MPI enabled

     Message from routine print_cuda_info:
     High GPU oversubscription detected. Are you sure this is what you want?

     celldm(1)=  20.343826  celldm(2)=   0.000000  celldm(3)=   0.000000
     celldm(4)=   0.000000  celldm(5)=   0.000000  celldm(6)=   0.000000

     crystal axes: (cart. coord. in units of alat)
               a(1) = (   1.000000   0.000000   0.000000 )  
               a(2) = (   0.000000   1.004198   0.000000 )  
               a(3) = (   0.000000   0.000000   1.039753 )  

     reciprocal axes: (cart. coord. in units 2 pi/alat)
               b(1) = (  1.000000  0.000000  0.000000 )  
               b(2) = (  0.000000  0.995819  0.000000 )  
               b(3) = (  0.000000  0.000000  0.961767 )  


     PseudoPot. # 1 for Si read from file:
     /home/ppiaggi/pseudos/Si_ONCV_PBE_sr.upf
     MD5 check sum: 8553c464762ac42b85b1eed164b4d029
     Pseudo is Norm-conserving, Zval =  4.0
     Generated using ONCVPSP code by D. R. Hamann
     Using radial grid of 1510 points,  4 beta functions with: 
                l(1) =   0
                l(2) =   0
                l(3) =   1
                l(4) =   1

     atomic species   valence    mass     pseudopotential
        Si             4.00    28.08500     Si( 1.00)

     No symmetry found



   Cartesian axes

     site n.     atom                  positions (alat units)
         1           Si  tau(   1) = (  -0.0081163  -0.0086383   0.0086102  )
         2           Si  tau(   2) = (   0.0034217   0.2552790   0.2750801  )
         3           Si  tau(   3) = (   0.2390483   0.0072065   0.2675297  )
         4           Si  tau(   4) = (   0.2481103   0.2582087   0.0079512  )
         5           Si  tau(   5) = (   0.1199523   0.1289834   0.1431567  )
         6           Si  tau(   6) = (   0.4909609  -0.0052737   0.0054395  )
         7           Si  tau(   7) = (   0.4818642   0.2543437   0.2733947  )
         8           Si  tau(   8) = (   0.5998432   0.1268531   0.1318553  )
         9           Si  tau(   9) = (   0.7272900   0.0065183   0.2619864  )
        10           Si  tau(  10) = (   0.7337974   0.2471328  -0.0054386  )
        11           Si  tau(  11) = (  -0.0066673   0.5047792   0.0086291  )
        12           Si  tau(  12) = (   0.2384981   0.4945682   0.2731575  )
        13           Si  tau(  13) = (   0.1244863   0.6271981   0.1324073  )
        14           Si  tau(  14) = (   0.3591900   0.3816594   0.1279752  )
        15           Si  tau(  15) = (   0.4798539   0.5021687   0.0063551  )
        16           Si  tau(  16) = (   0.6049716   0.6193682   0.1376749  )
        17           Si  tau(  17) = (   0.8475050   0.3749380   0.1333888  )
        18           Si  tau(  18) = (   0.7221077   0.5031287   0.2738258  )
        19           Si  tau(  19) = (  -0.0046811   0.7455153   0.2597048  )
        20           Si  tau(  20) = (   0.2468964   0.7514032  -0.0066795  )
        21           Si  tau(  21) = (   0.3658905   0.8799086   0.1355420  )
        22           Si  tau(  22) = (   0.4822651   0.7413919   0.2632005  )
        23           Si  tau(  23) = (   0.7336055   0.7423856   0.0035799  )
        24           Si  tau(  24) = (   0.8596581   0.8742002   0.1323256  )
        25           Si  tau(  25) = (  -0.0023703   0.0035842   0.5281821  )
        26           Si  tau(  26) = (   0.2358810   0.2417328   0.5389055  )
        27           Si  tau(  27) = (   0.1241862   0.1202517   0.6628668  )
        28           Si  tau(  28) = (   0.3600740   0.1319438   0.4032865  )
        29           Si  tau(  29) = (   0.4850952   0.0035696   0.5263238  )
        30           Si  tau(  30) = (   0.6107744   0.1278530   0.6676067  )
        31           Si  tau(  31) = (   0.8581976   0.1200825   0.4066826  )
        32           Si  tau(  32) = (   0.7381098   0.2414359   0.5363139  )
        33           Si  tau(  33) = (   0.1233679   0.3751787   0.3944156  )
        34           Si  tau(  34) = (  -0.0077430   0.4974435   0.5419496  )
        35           Si  tau(  35) = (   0.1133171   0.6341959   0.6771800  )
        36           Si  tau(  36) = (   0.6075136   0.3725298   0.3986881  )
        37           Si  tau(  37) = (   0.3695224   0.6290822   0.3940341  )
        38           Si  tau(  38) = (   0.3667741   0.3786430   0.6591338  )
        39           Si  tau(  39) = (   0.4892063   0.5085282   0.5393765  )
        40           Si  tau(  40) = (   0.6062043   0.6238972   0.6754894  )
        41           Si  tau(  41) = (   0.8466040   0.6268325   0.3997882  )
        42           Si  tau(  42) = (   0.8507325   0.3811069   0.6691893  )
        43           Si  tau(  43) = (   0.1218484   0.8788732   0.4103698  )
        44           Si  tau(  44) = (   0.2429054   0.7587545   0.5287210  )
        45           Si  tau(  45) = (   0.6049995   0.8681089   0.4038572  )
        46           Si  tau(  46) = (   0.3630689   0.8784402   0.6704505  )
        47           Si  tau(  47) = (   0.7368959   0.7438858   0.5260293  )
        48           Si  tau(  48) = (   0.8428997   0.8735019   0.6661470  )
        49           Si  tau(  49) = (   0.0025522   0.2536250   0.8019657  )
        50           Si  tau(  50) = (   0.2417970  -0.0069590   0.7949944  )
        51           Si  tau(  51) = (   0.3632080   0.1167004   0.9313303  )
        52           Si  tau(  52) = (   0.4777995   0.2575683   0.8118530  )
        53           Si  tau(  53) = (   0.7234788   0.0008814   0.8055025  )
        54           Si  tau(  54) = (   0.8474355   0.1286386   0.9371242  )
        55           Si  tau(  55) = (   0.1289259   0.3768211   0.9387510  )
        56           Si  tau(  56) = (   0.2435560   0.4910846   0.8042283  )
        57           Si  tau(  57) = (   0.6144771   0.3735050   0.9291663  )
        58           Si  tau(  58) = (   0.3623206   0.6254159   0.9454562  )
        59           Si  tau(  59) = (   0.7356358   0.5073257   0.8048399  )
        60           Si  tau(  60) = (   0.8452383   0.6285492   0.9435084  )
        61           Si  tau(  61) = (  -0.0075115   0.7569975   0.8010453  )
        62           Si  tau(  62) = (   0.1166038   0.8830257   0.9293501  )
        63           Si  tau(  63) = (   0.4823137   0.7468354   0.8086251  )
        64           Si  tau(  64) = (   0.6064710   0.8767044   0.9304351  )

     number of k points=     1  Fermi-Dirac smearing, width (Ry)=  0.0100
                       cart. coord. in units 2pi/alat
        k(    1) = (   0.0000000   0.0000000   0.0000000), wk =   2.0000000

     Dense  grid:    97629 G-vectors     FFT dimensions: (  72,  72,  75)

     Estimated max dynamical RAM per process >     156.14 MB

     Estimated total dynamical RAM >     600.71 MB

     Initial potential from superposition of free atoms

     starting charge     255.9608, renormalised to     256.0000
     Starting wfcs are  256 randomized atomic wfcs

     total cpu time spent up to now is        5.2 secs

     Self-consistent Calculation

     iteration #  1     ecut=    30.00 Ry     beta= 0.50
     Davidson diagonalization with overlap
     ethr =  1.00E-02,  avg # of iterations =  3.0

     Threshold (ethr) on eigenvalues was too large:
     Diagonalizing with lowered threshold

     Davidson diagonalization with overlap
     ethr =  6.69E-04,  avg # of iterations =  7.0

     total cpu time spent up to now is        5.5 secs

     total energy              =    -503.30910108 Ry
     estimated scf accuracy    <       1.90716608 Ry

     iteration #  2     ecut=    30.00 Ry     beta= 0.50
     Davidson diagonalization with overlap
     ethr =  7.45E-04,  avg # of iterations =  2.0

     total cpu time spent up to now is        5.6 secs

     total energy              =    -503.29075695 Ry
     estimated scf accuracy    <       0.38971215 Ry

     iteration #  3     ecut=    30.00 Ry     beta= 0.50
     Davidson diagonalization with overlap
     ethr =  1.52E-04,  avg # of iterations =  8.0

     total cpu time spent up to now is        5.7 secs

     total energy              =    -503.21674742 Ry
     estimated scf accuracy    <       0.82481282 Ry

     iteration #  4     ecut=    30.00 Ry     beta= 0.50
     Davidson diagonalization with overlap
     ethr =  1.52E-04,  avg # of iterations =  4.0

     total cpu time spent up to now is        5.8 secs

     total energy              =    -503.34635422 Ry
     estimated scf accuracy    <       0.04860821 Ry

     iteration #  5     ecut=    30.00 Ry     beta= 0.50
     Davidson diagonalization with overlap
     ethr =  1.90E-05,  avg # of iterations = 13.0

     total cpu time spent up to now is        6.0 secs

     total energy              =    -503.34955030 Ry
     estimated scf accuracy    <       0.01370799 Ry

     iteration #  6     ecut=    30.00 Ry     beta= 0.50
     Davidson diagonalization with overlap
     ethr =  5.35E-06,  avg # of iterations =  6.0

     total cpu time spent up to now is        6.1 secs

     total energy              =    -503.35112377 Ry
     estimated scf accuracy    <       0.00400596 Ry

     iteration #  7     ecut=    30.00 Ry     beta= 0.50
     Davidson diagonalization with overlap
     ethr =  1.56E-06,  avg # of iterations =  5.0

     total cpu time spent up to now is        6.3 secs

     total energy              =    -503.35184327 Ry
     estimated scf accuracy    <       0.00062851 Ry

     iteration #  8     ecut=    30.00 Ry     beta= 0.50
     Davidson diagonalization with overlap
     ethr =  2.46E-07,  avg # of iterations =  2.0

     total cpu time spent up to now is        6.4 secs

     total energy              =    -503.35187371 Ry
     estimated scf accuracy    <       0.00021364 Ry

     iteration #  9     ecut=    30.00 Ry     beta= 0.50
     Davidson diagonalization with overlap
     ethr =  8.35E-08,  avg # of iterations =  4.0

     total cpu time spent up to now is        6.5 secs

     total energy              =    -503.35189562 Ry
     estimated scf accuracy    <       0.00004379 Ry

     iteration # 10     ecut=    30.00 Ry     beta= 0.50
     Davidson diagonalization with overlap
     ethr =  1.71E-08,  avg # of iterations =  4.0

     total cpu time spent up to now is        6.6 secs

     total energy              =    -503.35190413 Ry
     estimated scf accuracy    <       0.00000350 Ry

     iteration # 11     ecut=    30.00 Ry     beta= 0.50
     Davidson diagonalization with overlap
     ethr =  1.37E-09,  avg # of iterations =  4.0

     total cpu time spent up to now is        6.7 secs

     End of self-consistent calculation

          k = 0.0000 0.0000 0.0000 ( 12195 PWs)   bands (ev):

    -5.9949  -5.0537  -5.0083  -4.9206  -4.9084  -4.7114  -4.6467  -4.3051
    -4.1602  -4.0426  -4.0304  -3.9414  -3.8565  -3.8112  -3.7613  -3.6951
    -3.6587  -3.5890  -3.5453  -3.5053  -3.4175  -3.3470  -3.1190  -2.2553
    -2.0502  -1.9549  -1.9236  -1.8603  -1.7988  -1.7500  -1.6189  -1.5854
    -1.5643  -1.5430  -1.5129  -1.4004  -1.3548  -1.3331  -1.3203  -1.2355
    -1.1978  -1.0136  -0.8792  -0.8189  -0.6106   0.3281   0.3690   0.4120
     0.4540   0.5167   0.5719   0.6418   0.6677   0.6893   0.7411   0.7604
     0.7835   1.8727   1.9197   1.9418   1.9680   2.0011   2.0611   2.1088
     2.1532   2.1736   2.2035   2.2380   2.2538   2.2738   2.3086   2.3299
     2.3507   2.3929   2.4292   2.4606   2.5112   2.5273   2.5500   2.5951
     2.6188   2.6909   2.7413   2.7687   2.7933   2.8072   2.9000   3.0835
     3.1375   3.1863   3.2477   3.3056   3.4173   3.9050   3.9488   3.9801
     4.0924   4.0989   4.1766   4.1959   4.2326   4.2536   4.3199   4.3783
     4.4332   4.4499   4.5089   4.5424   4.5772   4.5811   4.6586   4.6856
     4.7521   4.8000   4.8192   4.8649   4.9045   4.9327   5.0683   5.1291
     5.2065   5.2358   5.3229   5.3533   5.5564   5.9093   6.1949   6.3460
     6.4193   6.4248   6.5756   6.7262   6.7974   6.9928   7.0201   7.0401
     7.1075   7.1773   7.3027   7.3649   7.3835   7.4121   7.4462   7.5397
     8.0399   8.0719   8.1285   8.1620   8.2196   8.2366   8.3404   8.3676
     8.4052   8.4982

     the Fermi energy is     6.3210 ev

!    total energy              =    -503.35190476 Ry
     estimated scf accuracy    <       0.00000062 Ry
     smearing contrib. (-TS)   =      -0.07318923 Ry
     internal energy E=F+TS    =    -503.27871553 Ry

     The total energy is F=E-TS. E is the sum of the following terms:
     one-electron contribution =     141.25223817 Ry
     hartree contribution      =      39.36689743 Ry
     xc contribution           =    -153.72041731 Ry
     ewald contribution        =    -530.17743382 Ry

     convergence has been achieved in  11 iterations

     Forces acting on atoms (cartesian axes, Ry/au):

     atom    1 type  1   force =    -0.03872282    0.07343088    0.04919263
     atom    2 type  1   force =    -0.09964860   -0.02969116   -0.03339106
     atom    3 type  1   force =     0.02118520   -0.04078349    0.02574134
     atom    4 type  1   force =    -0.00638990   -0.10440703    0.04327360
     atom    5 type  1   force =    -0.02458893    0.00500340   -0.03784940
     atom    6 type  1   force =    -0.02776156    0.01555676    0.05222231
     atom    7 type  1   force =    -0.00771887   -0.00109638   -0.04499909
     atom    8 type  1   force =     0.02677072    0.02715725    0.02482528
     atom    9 type  1   force =     0.02008172   -0.04164973    0.02507967
     atom   10 type  1   force =    -0.06476622    0.05728895    0.15770357
     atom   11 type  1   force =    -0.03356314   -0.01332027    0.03215084
     atom   12 type  1   force =     0.03901433    0.05694555   -0.04488551
     atom   13 type  1   force =    -0.00493253   -0.00654033    0.01713417
     atom   14 type  1   force =     0.02348489   -0.00513180    0.09225996
     atom   15 type  1   force =     0.09071450   -0.04867917    0.04842517
     atom   16 type  1   force =     0.00880553    0.01503657   -0.00738948
     atom   17 type  1   force =     0.05517242    0.00938021    0.03428558
     atom   18 type  1   force =     0.03420827   -0.02367619   -0.02274405
     atom   19 type  1   force =    -0.02893845    0.02891721    0.04836130
     atom   20 type  1   force =    -0.07957999    0.08964482    0.13044592
     atom   21 type  1   force =    -0.02694652   -0.01164068    0.01366720
     atom   22 type  1   force =     0.03178064    0.06388538   -0.00939104
     atom   23 type  1   force =    -0.10354631    0.12278464    0.13529700
     atom   24 type  1   force =    -0.00137299   -0.00266141    0.02978096
     atom   25 type  1   force =    -0.04979585   -0.02658102    0.03292919
     atom   26 type  1   force =     0.03410051    0.06659922   -0.03799480
     atom   27 type  1   force =    -0.05612614   -0.00675454    0.04493768
     atom   28 type  1   force =    -0.00105391   -0.02410761   -0.00868138
     atom   29 type  1   force =     0.01303939   -0.01680044    0.03390860
     atom   30 type  1   force =    -0.04125284   -0.00148488    0.01515919
     atom   31 type  1   force =     0.03441006    0.01216052   -0.04021499
     atom   32 type  1   force =    -0.01364480    0.04536961   -0.00686822
     atom   33 type  1   force =    -0.03047810   -0.00396179    0.10484172
     atom   34 type  1   force =    -0.01851198    0.02393365   -0.03104893
     atom   35 type  1   force =     0.03098533   -0.03987600   -0.03696395
     atom   36 type  1   force =     0.00970347    0.00263997    0.06017486
     atom   37 type  1   force =    -0.05096222   -0.03541881    0.05769086
     atom   38 type  1   force =    -0.02941332   -0.02264251    0.03031805
     atom   39 type  1   force =     0.00399092   -0.02262290   -0.04963300
     atom   40 type  1   force =     0.02577457    0.02918149   -0.01374049
     atom   41 type  1   force =     0.10410092   -0.04158226   -0.02610353
     atom   42 type  1   force =     0.05617533   -0.02665479    0.00372185
     atom   43 type  1   force =    -0.03759755    0.00951200   -0.07693473
     atom   44 type  1   force =     0.01930345   -0.04945416    0.04224823
     atom   45 type  1   force =     0.00460693    0.02748955   -0.03329777
     atom   46 type  1   force =     0.03063058   -0.01824486   -0.03221710
     atom   47 type  1   force =    -0.05641071    0.03255679    0.06104530
     atom   48 type  1   force =     0.06578091    0.02412223    0.00574191
     atom   49 type  1   force =    -0.05156182   -0.00985916   -0.01056450
     atom   50 type  1   force =    -0.00805511    0.02973435    0.01055139
     atom   51 type  1   force =    -0.02072154    0.01984346   -0.03654114
     atom   52 type  1   force =     0.02683155   -0.02540606   -0.07021028
     atom   53 type  1   force =     0.02967036   -0.00068002   -0.03441647
     atom   54 type  1   force =     0.15292390   -0.10930746   -0.12168237
     atom   55 type  1   force =    -0.08584845    0.01777249   -0.06569538
     atom   56 type  1   force =     0.01038221    0.06246370   -0.03721364
     atom   57 type  1   force =    -0.04360995    0.05427460   -0.04190615
     atom   58 type  1   force =     0.01908685   -0.04998361   -0.17044542
     atom   59 type  1   force =    -0.00994214   -0.02212926   -0.01820756
     atom   60 type  1   force =     0.16950677   -0.09282321   -0.14086785
     atom   61 type  1   force =    -0.07258253    0.00770451    0.00760639
     atom   62 type  1   force =     0.00697838   -0.02645659   -0.05634415
     atom   63 type  1   force =    -0.00290476    0.01426301   -0.03219460
     atom   64 type  1   force =     0.02974991   -0.04254319   -0.04008369

     Total force =     0.712930     Total SCF correction =     0.001374


     Computing stress (Cartesian axis) and pressure

          total   stress  (Ry/bohr**3)                   (kbar)     P=       26.80
   0.00024875  -0.00013029  -0.00006029           36.59      -19.17       -8.87
  -0.00013029   0.00026515   0.00007575          -19.17       39.00       11.14
  -0.00006029   0.00007575   0.00003274           -8.87       11.14        4.82

 
     init_run     :      1.25s CPU      5.10s WALL (       1 calls)
     electrons    :      1.41s CPU      1.52s WALL (       1 calls)
     forces       :      0.04s CPU      0.05s WALL (       1 calls)
     stress       :      0.16s CPU      0.17s WALL (       1 calls)

     Called by init_run:
     wfcinit      :      0.59s CPU      4.26s WALL (       1 calls)
                                        4.26s GPU  (       1 calls)
     potinit      :      0.20s CPU      0.30s WALL (       1 calls)
     hinit0       :      0.43s CPU      0.46s WALL (       1 calls)

     Called by electrons:
     c_bands      :      0.90s CPU      0.95s WALL (      12 calls)
     sum_band     :      0.27s CPU      0.30s WALL (      12 calls)
     v_of_rho     :      0.13s CPU      0.24s WALL (      12 calls)
     mix_rho      :      0.10s CPU      0.11s WALL (      12 calls)

     Called by c_bands:
     init_us_2    :      0.05s CPU      0.05s WALL (      25 calls)
     init_us_2:gp :      0.04s CPU      0.05s WALL (      25 calls)
     regterg      :      0.79s CPU      0.83s WALL (      12 calls)

     Called by *egterg:
     rdiaghg      :      0.35s CPU      1.10s WALL (      73 calls)
                                        1.09s GPU  (      73 calls)
     h_psi        :      0.87s CPU      3.82s WALL (      75 calls)
                                        3.82s GPU  (      75 calls)
     g_psi        :      0.00s CPU      0.00s WALL (      62 calls)
                                        0.00s GPU  (      62 calls)

     Called by h_psi:
     h_psi:calbec :      0.53s CPU      3.40s WALL (      75 calls)
                                        3.40s GPU  (      75 calls)
     vloc_psi     :      0.30s CPU      0.36s WALL (      75 calls)
                                        0.36s GPU  (      75 calls)
     add_vuspsi   :      0.03s CPU      0.05s WALL (      75 calls)
                                        0.04s GPU  (      75 calls)

     General routines
     calbec       :      0.54s CPU      3.41s WALL (      80 calls)
     fft          :      0.50s CPU      0.63s WALL (     103 calls)
                                        0.13s GPU  (      66 calls)
     ffts         :      0.03s CPU      0.04s WALL (      12 calls)
     fftw         :      0.35s CPU      0.47s WALL (    1314 calls)
                                        0.41s GPU  (    1314 calls)
 
     Parallel routines
 
     PWSCF        :      2.91s CPU      6.92s WALL

 
   This run was terminated on:  11:20:32  10May2023            

=------------------------------------------------------------------------------=
   JOB DONE.
=------------------------------------------------------------------------------=
