An instance of this daemon is already running

     Program PWSCF v.7.1 starts on 10May2023 at 11:14:20 

     This program is part of the open-source Quantum ESPRESSO suite
     for quantum simulation of materials; please cite
         "P. Giannozzi et al., J. Phys.:Condens. Matter 21 395502 (2009);
         "P. Giannozzi et al., J. Phys.:Condens. Matter 29 465901 (2017);
         "P. Giannozzi et al., J. Chem. Phys. 152 154105 (2020);
          URL http://www.quantum-espresso.org", 
     in publications or presentations arising from this work. More details at
     http://www.quantum-espresso.org/quote

     Parallel version (MPI & OpenMP), running on       4 processor cores
     Number of MPI processes:                 4
     Threads/MPI process:                     1

     MPI processes distributed on     1 nodes
     753561 MiB available memory on the printing compute node when the environment starts
 
     Reading input from pw-si-24.in
Warning: card &CELL ignored
Warning: card / ignored

     Current dimensions of program PWSCF are:
     Max number of different atomic species (ntypx) = 10
     Max number of k-points (npk) =  40000
     Max angular momentum in pseudopotentials (lmaxx) =  4

     IMPORTANT: XC functional enforced from input :
     Exchange-correlation= PBE
                           (   1   4   3   4   0   0   0)
     Any further DFT definition will be discarded
     Please, verify this is what you really want


     gamma-point specific algorithms are used
 
     K-points division:     npool     =       2
     R & G space division:  proc/nbgrp/npool/nimage =       2
     Subspace diagonalization in iterative solution of the eigenvalue problem:
     a serial algorithm will be used

     Message from routine divide_et_impera:
     suboptimal parallelization: some nodes have no k-points
 
     Parallelization info
     --------------------
     sticks:   dense  smooth     PW     G-vecs:    dense   smooth      PW
     Min        2145    2145    563               106047   106047   14333
     Max        2146    2146    564               106050   106050   14336
     Sum        4291    4291   1127               212097   212097   28669
 
     Using Slab Decomposition
 


     bravais-lattice index     =            0
     lattice parameter (alat)  =      21.2901  a.u.
     unit-cell volume          =    9556.8863 (a.u.)^3
     number of atoms/cell      =           64
     number of atomic types    =            1
     number of electrons       =       256.00
     number of Kohn-Sham states=          154
     kinetic-energy cutoff     =      30.0000  Ry
     charge density cutoff     =     120.0000  Ry
     scf convergence threshold =      1.0E-06
     mixing beta               =       0.5000
     number of iterations used =            8  plain     mixing
     Exchange-correlation= PBE
                           (   1   4   3   4   0   0   0)

     GPU acceleration is ACTIVE.
     GPU-aware MPI enabled

     Message from routine print_cuda_info:
     High GPU oversubscription detected. Are you sure this is what you want?

     celldm(1)=  21.290078  celldm(2)=   0.000000  celldm(3)=   0.000000
     celldm(4)=   0.000000  celldm(5)=   0.000000  celldm(6)=   0.000000

     crystal axes: (cart. coord. in units of alat)
               a(1) = (   1.000000   0.000000   0.000000 )  
               a(2) = (   0.000000   0.992463   0.000000 )  
               a(3) = (   0.000000   0.000000   0.997861 )  

     reciprocal axes: (cart. coord. in units 2 pi/alat)
               b(1) = (  1.000000  0.000000  0.000000 )  
               b(2) = (  0.000000  1.007594  0.000000 )  
               b(3) = (  0.000000  0.000000  1.002143 )  


     PseudoPot. # 1 for Si read from file:
     /home/ppiaggi/pseudos/Si_ONCV_PBE_sr.upf
     MD5 check sum: 8553c464762ac42b85b1eed164b4d029
     Pseudo is Norm-conserving, Zval =  4.0
     Generated using ONCVPSP code by D. R. Hamann
     Using radial grid of 1510 points,  4 beta functions with: 
                l(1) =   0
                l(2) =   0
                l(3) =   1
                l(4) =   1

     atomic species   valence    mass     pseudopotential
        Si             4.00    28.08500     Si( 1.00)

     No symmetry found



   Cartesian axes

     site n.     atom                  positions (alat units)
         1           Si  tau(   1) = (  -0.0040724   0.0077859   0.0049626  )
         2           Si  tau(   2) = (  -0.0003411   0.2451270   0.2350319  )
         3           Si  tau(   3) = (   0.2462847  -0.0020891   0.2426432  )
         4           Si  tau(   4) = (   0.2458809   0.2547101   0.0015278  )
         5           Si  tau(   5) = (   0.1261707   0.1304938   0.1206349  )
         6           Si  tau(   6) = (   0.5122610  -0.0057788  -0.0010098  )
         7           Si  tau(   7) = (   0.5002729   0.2492757   0.2469780  )
         8           Si  tau(   8) = (   0.6256694   0.1199467   0.1220615  )
         9           Si  tau(   9) = (   0.7579634   0.0067857   0.2350598  )
        10           Si  tau(  10) = (   0.7578373   0.2473655   0.0059757  )
        11           Si  tau(  11) = (  -0.0081430   0.4875343  -0.0042075  )
        12           Si  tau(  12) = (   0.2455286   0.4987909   0.2404002  )
        13           Si  tau(  13) = (   0.1289414   0.6190452   0.1241595  )
        14           Si  tau(  14) = (   0.3709677   0.3649051   0.1170499  )
        15           Si  tau(  15) = (   0.4986009   0.4955486   0.0031124  )
        16           Si  tau(  16) = (   0.6387729   0.6174127   0.1158169  )
        17           Si  tau(  17) = (   0.8744137   0.3704806   0.1204981  )
        18           Si  tau(  18) = (   0.7620285   0.4842718   0.2384814  )
        19           Si  tau(  19) = (   0.0083471   0.7445875   0.2386477  )
        20           Si  tau(  20) = (   0.2571393   0.7380514  -0.0019263  )
        21           Si  tau(  21) = (   0.3713476   0.8584477   0.1188059  )
        22           Si  tau(  22) = (   0.5019585   0.7413846   0.2492250  )
        23           Si  tau(  23) = (   0.7608748   0.7400779   0.0025817  )
        24           Si  tau(  24) = (   0.8811641   0.8529384   0.1130145  )
        25           Si  tau(  25) = (   0.0043471   0.0034731   0.4922846  )
        26           Si  tau(  26) = (   0.2441839   0.2515424   0.4863836  )
        27           Si  tau(  27) = (   0.1324550   0.1190638   0.6097226  )
        28           Si  tau(  28) = (   0.3758425   0.1284416   0.3580223  )
        29           Si  tau(  29) = (   0.5071630  -0.0036463   0.4809963  )
        30           Si  tau(  30) = (   0.6257513   0.1160712   0.6008881  )
        31           Si  tau(  31) = (   0.8907391   0.1157381   0.3633551  )
        32           Si  tau(  32) = (   0.7608684   0.2394434   0.4913677  )
        33           Si  tau(  33) = (   0.1185185   0.3704342   0.3673069  )
        34           Si  tau(  34) = (   0.0072947   0.4992275   0.4866605  )
        35           Si  tau(  35) = (   0.1203476   0.6202380   0.6112268  )
        36           Si  tau(  36) = (   0.6223768   0.3737483   0.3617406  )
        37           Si  tau(  37) = (   0.3833117   0.6132545   0.3677640  )
        38           Si  tau(  38) = (   0.3753800   0.3704204   0.6135468  )
        39           Si  tau(  39) = (   0.5121929   0.4946268   0.4867812  )
        40           Si  tau(  40) = (   0.6392697   0.6109677   0.6071703  )
        41           Si  tau(  41) = (   0.8798098   0.6066300   0.3621976  )
        42           Si  tau(  42) = (   0.8759248   0.3659080   0.6042874  )
        43           Si  tau(  43) = (   0.1302348   0.8601524   0.3615789  )
        44           Si  tau(  44) = (   0.2595484   0.7349290   0.4926761  )
        45           Si  tau(  45) = (   0.6334208   0.8514765   0.3606962  )
        46           Si  tau(  46) = (   0.3769687   0.8549603   0.6111093  )
        47           Si  tau(  47) = (   0.7527488   0.7404146   0.4923258  )
        48           Si  tau(  48) = (   0.8839361   0.8632248   0.6038674  )
        49           Si  tau(  49) = (   0.0043589   0.2546944   0.7300601  )
        50           Si  tau(  50) = (   0.2561821   0.0001254   0.7380869  )
        51           Si  tau(  51) = (   0.3723872   0.1276859   0.8592239  )
        52           Si  tau(  52) = (   0.5036349   0.2422438   0.7304204  )
        53           Si  tau(  53) = (   0.7585887   0.0034838   0.7220829  )
        54           Si  tau(  54) = (   0.8905011   0.1240337   0.8521427  )
        55           Si  tau(  55) = (   0.1319533   0.3763956   0.8571113  )
        56           Si  tau(  56) = (   0.2579953   0.4946214   0.7359982  )
        57           Si  tau(  57) = (   0.6257525   0.3674138   0.8536879  )
        58           Si  tau(  58) = (   0.3741701   0.6177686   0.8528753  )
        59           Si  tau(  59) = (   0.7489978   0.4954304   0.7217564  )
        60           Si  tau(  60) = (   0.8889648   0.6172162   0.8529992  )
        61           Si  tau(  61) = (  -0.0054404   0.7425187   0.7363228  )
        62           Si  tau(  62) = (   0.1203933   0.8656094   0.8436207  )
        63           Si  tau(  63) = (   0.5113846   0.7327354   0.7267913  )
        64           Si  tau(  64) = (   0.6280309   0.8644610   0.8545583  )

     number of k points=     1  Fermi-Dirac smearing, width (Ry)=  0.0100
                       cart. coord. in units 2pi/alat
        k(    1) = (   0.0000000   0.0000000   0.0000000), wk =   2.0000000

     Dense  grid:   106049 G-vectors     FFT dimensions: (  75,  75,  75)

     Estimated max dynamical RAM per process >     169.42 MB

     Estimated total dynamical RAM >     651.80 MB

     Initial potential from superposition of free atoms

     starting charge     255.9608, renormalised to     256.0000
     Starting wfcs are  256 randomized atomic wfcs

     total cpu time spent up to now is        4.9 secs

     Self-consistent Calculation

     iteration #  1     ecut=    30.00 Ry     beta= 0.50
     Davidson diagonalization with overlap
     ethr =  1.00E-02,  avg # of iterations =  3.0

     Threshold (ethr) on eigenvalues was too large:
     Diagonalizing with lowered threshold

     Davidson diagonalization with overlap
     ethr =  5.79E-04,  avg # of iterations =  5.0

     total cpu time spent up to now is        5.3 secs

     total energy              =    -503.48904986 Ry
     estimated scf accuracy    <       1.64618674 Ry

     iteration #  2     ecut=    30.00 Ry     beta= 0.50
     Davidson diagonalization with overlap
     ethr =  6.43E-04,  avg # of iterations =  1.0

     total cpu time spent up to now is        5.4 secs

     total energy              =    -503.47665085 Ry
     estimated scf accuracy    <       0.32340832 Ry

     iteration #  3     ecut=    30.00 Ry     beta= 0.50
     Davidson diagonalization with overlap
     ethr =  1.26E-04,  avg # of iterations =  9.0

     total cpu time spent up to now is        5.5 secs

     total energy              =    -503.47764947 Ry
     estimated scf accuracy    <       0.13762504 Ry

     iteration #  4     ecut=    30.00 Ry     beta= 0.50
     Davidson diagonalization with overlap
     ethr =  5.38E-05,  avg # of iterations =  3.0

     total cpu time spent up to now is        5.7 secs

     total energy              =    -503.50184297 Ry
     estimated scf accuracy    <       0.01171397 Ry

     iteration #  5     ecut=    30.00 Ry     beta= 0.50
     Davidson diagonalization with overlap
     ethr =  4.58E-06,  avg # of iterations = 12.0

     total cpu time spent up to now is        5.8 secs

     total energy              =    -503.50309113 Ry
     estimated scf accuracy    <       0.00244980 Ry

     iteration #  6     ecut=    30.00 Ry     beta= 0.50
     Davidson diagonalization with overlap
     ethr =  9.57E-07,  avg # of iterations =  4.0

     total cpu time spent up to now is        6.0 secs

     total energy              =    -503.50353088 Ry
     estimated scf accuracy    <       0.00096352 Ry

     iteration #  7     ecut=    30.00 Ry     beta= 0.50
     Davidson diagonalization with overlap
     ethr =  3.76E-07,  avg # of iterations =  4.0

     total cpu time spent up to now is        6.1 secs

     total energy              =    -503.50367500 Ry
     estimated scf accuracy    <       0.00015156 Ry

     iteration #  8     ecut=    30.00 Ry     beta= 0.50
     Davidson diagonalization with overlap
     ethr =  5.92E-08,  avg # of iterations =  4.0

     total cpu time spent up to now is        6.3 secs

     total energy              =    -503.50370260 Ry
     estimated scf accuracy    <       0.00001457 Ry

     iteration #  9     ecut=    30.00 Ry     beta= 0.50
     Davidson diagonalization with overlap
     ethr =  5.69E-09,  avg # of iterations =  5.0

     total cpu time spent up to now is        6.4 secs

     total energy              =    -503.50370576 Ry
     estimated scf accuracy    <       0.00000220 Ry

     iteration # 10     ecut=    30.00 Ry     beta= 0.50
     Davidson diagonalization with overlap
     ethr =  8.61E-10,  avg # of iterations =  4.0

     total cpu time spent up to now is        6.6 secs

     total energy              =    -503.50370630 Ry
     estimated scf accuracy    <       0.00000111 Ry

     iteration # 11     ecut=    30.00 Ry     beta= 0.50
     Davidson diagonalization with overlap
     ethr =  4.34E-10,  avg # of iterations =  5.0

     total cpu time spent up to now is        6.7 secs

     End of self-consistent calculation

          k = 0.0000 0.0000 0.0000 ( 13293 PWs)   bands (ev):

    -6.1592  -5.3829  -5.2126  -5.1765  -5.1479  -5.0919  -4.9584  -4.5678
    -4.5246  -4.4945  -4.3452  -4.3220  -4.2724  -4.2435  -4.2345  -4.1737
    -4.1180  -4.1089  -4.0664  -3.9914  -3.9341  -3.8857  -3.5953  -2.5747
    -2.5407  -2.4942  -2.4306  -2.3992  -2.3660  -2.3078  -2.2889  -2.2243
    -2.1826  -2.1722  -2.0931  -2.0630  -2.0109  -1.9675  -1.9431  -1.8944
    -1.8358  -1.5456  -1.2648  -1.2251  -1.1073  -0.3266  -0.3128  -0.2712
    -0.1968  -0.1469  -0.1355  -0.0587  -0.0439   0.0544   0.0797   0.1071
     0.2071   1.4035   1.4315   1.4930   1.5154   1.5358   1.5417   1.6120
     1.6511   1.6568   1.6732   1.6784   1.6979   1.7059   1.7333   1.7646
     1.7826   1.7866   1.8231   1.8468   1.8631   1.9044   1.9335   1.9549
     1.9941   2.0285   2.0650   2.0703   2.1011   2.1599   2.2662   2.5249
     2.5923   2.6216   2.6619   2.6994   2.7559   3.2627   3.3392   3.3814
     3.4203   3.4562   3.5092   3.5236   3.5666   3.6040   3.6460   3.7002
     3.7755   3.7997   3.8248   3.8731   3.8805   3.9142   3.9449   3.9628
     4.0278   4.0565   4.0736   4.1220   4.1401   4.1690   4.2137   4.2336
     4.2698   4.2939   4.4147   4.5439   4.8876   5.0334   5.3616   5.6100
     5.7878   5.9126   5.9734   6.0549   6.1411   6.1656   6.2510   6.3020
     6.3331   6.3538   6.3785   6.4147   6.4571   6.4985   6.5403   6.6002
     7.2924   7.3295   7.3582   7.4134   7.4169   7.4312   7.4503   7.4666
     7.4891   7.5346

     the Fermi energy is     5.6385 ev

!    total energy              =    -503.50370649 Ry
     estimated scf accuracy    <       0.00000032 Ry
     smearing contrib. (-TS)   =      -0.06020743 Ry
     internal energy E=F+TS    =    -503.44349906 Ry

     The total energy is F=E-TS. E is the sum of the following terms:
     one-electron contribution =     124.97917016 Ry
     hartree contribution      =      40.19268916 Ry
     xc contribution           =    -151.07681615 Ry
     ewald contribution        =    -517.53854224 Ry

     convergence has been achieved in  11 iterations

     Forces acting on atoms (cartesian axes, Ry/au):

     atom    1 type  1   force =     0.01689455   -0.03108844   -0.06180394
     atom    2 type  1   force =     0.00428212    0.01985117    0.03907345
     atom    3 type  1   force =     0.02153795    0.00598899   -0.01548673
     atom    4 type  1   force =     0.00151850   -0.02726192   -0.07052851
     atom    5 type  1   force =     0.00694615   -0.03289459   -0.00822202
     atom    6 type  1   force =    -0.05246866   -0.00854883   -0.03999189
     atom    7 type  1   force =    -0.00172832   -0.00391522   -0.03992506
     atom    8 type  1   force =     0.00918546    0.03187391   -0.00558962
     atom    9 type  1   force =     0.00787300   -0.07026574    0.02567010
     atom   10 type  1   force =    -0.03179602   -0.02331007   -0.07821367
     atom   11 type  1   force =     0.06076241    0.03747205   -0.03032648
     atom   12 type  1   force =     0.03352654   -0.03900573    0.03294948
     atom   13 type  1   force =    -0.02234757   -0.00466336   -0.05429701
     atom   14 type  1   force =     0.02591830    0.04139315    0.03277602
     atom   15 type  1   force =     0.00768695   -0.00397374   -0.05701620
     atom   16 type  1   force =    -0.03414730   -0.01552120    0.03108391
     atom   17 type  1   force =     0.02835496   -0.03271575   -0.01969143
     atom   18 type  1   force =    -0.06106557    0.04498979    0.02838901
     atom   19 type  1   force =    -0.02589630   -0.02990381    0.02060094
     atom   20 type  1   force =    -0.03870361   -0.00538954   -0.06119567
     atom   21 type  1   force =     0.04143978    0.04004364    0.01437892
     atom   22 type  1   force =    -0.00154774   -0.02471862   -0.04574203
     atom   23 type  1   force =    -0.02782778   -0.01918157   -0.10319244
     atom   24 type  1   force =     0.01393907    0.08358966    0.03532574
     atom   25 type  1   force =     0.03229185   -0.05086719   -0.01734790
     atom   26 type  1   force =     0.03192261   -0.01466152    0.00440968
     atom   27 type  1   force =    -0.00552911    0.02648077    0.01744857
     atom   28 type  1   force =    -0.01384744   -0.02970981    0.03455367
     atom   29 type  1   force =    -0.03430217   -0.03074397   -0.00950461
     atom   30 type  1   force =     0.01560580    0.02130842    0.02282237
     atom   31 type  1   force =    -0.04454849    0.02866718   -0.01217411
     atom   32 type  1   force =    -0.03462114   -0.00226187   -0.04805841
     atom   33 type  1   force =     0.01917353    0.00533488   -0.03643339
     atom   34 type  1   force =    -0.03317504   -0.03036566    0.01472619
     atom   35 type  1   force =     0.03862081   -0.00232048    0.01867487
     atom   36 type  1   force =     0.05660407   -0.03039219    0.00597316
     atom   37 type  1   force =    -0.01567348   -0.00271430   -0.00913541
     atom   38 type  1   force =     0.02165216   -0.00575352   -0.02418156
     atom   39 type  1   force =    -0.03896851   -0.00806758    0.02143901
     atom   40 type  1   force =    -0.05021903    0.04029867   -0.02145539
     atom   41 type  1   force =     0.00186647    0.05367231   -0.00164105
     atom   42 type  1   force =     0.02007953    0.03681675    0.01421094
     atom   43 type  1   force =     0.00435528    0.02286576    0.03862924
     atom   44 type  1   force =    -0.03694895   -0.00015845   -0.02381585
     atom   45 type  1   force =     0.00795525    0.07363974    0.00510495
     atom   46 type  1   force =     0.03448608    0.05041147    0.00800701
     atom   47 type  1   force =     0.03189256   -0.01774114   -0.03420838
     atom   48 type  1   force =    -0.02645099    0.01721300    0.01621952
     atom   49 type  1   force =     0.02622662   -0.01885213    0.00884524
     atom   50 type  1   force =    -0.00801819   -0.02403760   -0.01991617
     atom   51 type  1   force =     0.02737596   -0.00848655    0.04500247
     atom   52 type  1   force =    -0.01176140    0.00023775    0.00600042
     atom   53 type  1   force =    -0.00346881   -0.02499702    0.03755703
     atom   54 type  1   force =    -0.03904683    0.00358560    0.03727062
     atom   55 type  1   force =    -0.02614924   -0.01361455    0.03341745
     atom   56 type  1   force =    -0.03595126    0.01157104   -0.01437778
     atom   57 type  1   force =     0.01026219    0.01130363    0.03962103
     atom   58 type  1   force =     0.04108211    0.01005182    0.05072995
     atom   59 type  1   force =     0.05618290   -0.04645774    0.07574558
     atom   60 type  1   force =    -0.07361051   -0.03341962    0.05029075
     atom   61 type  1   force =     0.03413347    0.00922149   -0.03813499
     atom   62 type  1   force =     0.02825437    0.02278702    0.08623302
     atom   63 type  1   force =    -0.02197681    0.01187357    0.02730787
     atom   64 type  1   force =     0.03190695    0.00543775    0.02111952

     Total force =     0.461270     Total SCF correction =     0.000966


     Computing stress (Cartesian axis) and pressure

          total   stress  (Ry/bohr**3)                   (kbar)     P=      -43.62
  -0.00031686   0.00006858   0.00006613          -46.61       10.09        9.73
   0.00006858  -0.00027118   0.00001136           10.09      -39.89        1.67
   0.00006613   0.00001136  -0.00030162            9.73        1.67      -44.37

 
     init_run     :      1.02s CPU      4.86s WALL (       1 calls)
     electrons    :      1.63s CPU      1.75s WALL (       1 calls)
     forces       :      0.04s CPU      0.05s WALL (       1 calls)
     stress       :      0.18s CPU      0.18s WALL (       1 calls)

     Called by init_run:
     wfcinit      :      0.59s CPU      4.26s WALL (       1 calls)
                                        4.26s GPU  (       1 calls)
     potinit      :      0.21s CPU      0.30s WALL (       1 calls)
     hinit0       :      0.19s CPU      0.22s WALL (       1 calls)

     Called by electrons:
     c_bands      :      1.05s CPU      1.09s WALL (      12 calls)
     sum_band     :      0.30s CPU      0.34s WALL (      12 calls)
     v_of_rho     :      0.15s CPU      0.24s WALL (      12 calls)
     mix_rho      :      0.11s CPU      0.13s WALL (      12 calls)

     Called by c_bands:
     init_us_2    :      0.05s CPU      0.05s WALL (      25 calls)
     init_us_2:gp :      0.05s CPU      0.05s WALL (      25 calls)
     regterg      :      0.94s CPU      0.98s WALL (      12 calls)

     Called by *egterg:
     rdiaghg      :      0.34s CPU      1.09s WALL (      70 calls)
                                        1.08s GPU  (      70 calls)
     h_psi        :      1.03s CPU      3.97s WALL (      72 calls)
                                        3.97s GPU  (      72 calls)
     g_psi        :      0.00s CPU      0.00s WALL (      59 calls)
                                        0.00s GPU  (      59 calls)

     Called by h_psi:
     h_psi:calbec :      0.52s CPU      3.39s WALL (      72 calls)
                                        3.39s GPU  (      72 calls)
     vloc_psi     :      0.46s CPU      0.53s WALL (      72 calls)
                                        0.53s GPU  (      72 calls)
     add_vuspsi   :      0.03s CPU      0.04s WALL (      72 calls)
                                        0.04s GPU  (      72 calls)

     General routines
     calbec       :      0.53s CPU      3.40s WALL (      77 calls)
     fft          :      0.29s CPU      0.40s WALL (     103 calls)
                                        0.12s GPU  (      66 calls)
     ffts         :      0.04s CPU      0.05s WALL (      12 calls)
     fftw         :      0.49s CPU      0.65s WALL (    1310 calls)
                                        0.59s GPU  (    1310 calls)
 
     Parallel routines
 
     PWSCF        :      2.92s CPU      6.92s WALL

 
   This run was terminated on:  11:14:27  10May2023            

=------------------------------------------------------------------------------=
   JOB DONE.
=------------------------------------------------------------------------------=
