An instance of this daemon is already running
An instance of this daemon is already running

     Program PWSCF v.7.1 starts on 10May2023 at 11:12:46 

     This program is part of the open-source Quantum ESPRESSO suite
     for quantum simulation of materials; please cite
         "P. Giannozzi et al., J. Phys.:Condens. Matter 21 395502 (2009);
         "P. Giannozzi et al., J. Phys.:Condens. Matter 29 465901 (2017);
         "P. Giannozzi et al., J. Chem. Phys. 152 154105 (2020);
          URL http://www.quantum-espresso.org", 
     in publications or presentations arising from this work. More details at
     http://www.quantum-espresso.org/quote

     Parallel version (MPI & OpenMP), running on       4 processor cores
     Number of MPI processes:                 4
     Threads/MPI process:                     1

     MPI processes distributed on     1 nodes
     753574 MiB available memory on the printing compute node when the environment starts
 
     Reading input from pw-si-14.in
Warning: card &CELL ignored
Warning: card / ignored

     Current dimensions of program PWSCF are:
     Max number of different atomic species (ntypx) = 10
     Max number of k-points (npk) =  40000
     Max angular momentum in pseudopotentials (lmaxx) =  4

     IMPORTANT: XC functional enforced from input :
     Exchange-correlation= PBE
                           (   1   4   3   4   0   0   0)
     Any further DFT definition will be discarded
     Please, verify this is what you really want


     gamma-point specific algorithms are used
 
     K-points division:     npool     =       2
     R & G space division:  proc/nbgrp/npool/nimage =       2
     Subspace diagonalization in iterative solution of the eigenvalue problem:
     a serial algorithm will be used

     Message from routine divide_et_impera:
     suboptimal parallelization: some nodes have no k-points
 
     Parallelization info
     --------------------
     sticks:   dense  smooth     PW     G-vecs:    dense   smooth      PW
     Min        1991    1991    524                97183    97183   13188
     Max        1994    1994    525                97186    97186   13189
     Sum        3985    3985   1049               194369   194369   26377
 
     Using Slab Decomposition
 


     bravais-lattice index     =            0
     lattice parameter (alat)  =      20.3796  a.u.
     unit-cell volume          =    8756.5898 (a.u.)^3
     number of atoms/cell      =           64
     number of atomic types    =            1
     number of electrons       =       256.00
     number of Kohn-Sham states=          154
     kinetic-energy cutoff     =      30.0000  Ry
     charge density cutoff     =     120.0000  Ry
     scf convergence threshold =      1.0E-06
     mixing beta               =       0.5000
     number of iterations used =            8  plain     mixing
     Exchange-correlation= PBE
                           (   1   4   3   4   0   0   0)

     GPU acceleration is ACTIVE.
     GPU-aware MPI enabled

     Message from routine print_cuda_info:
     High GPU oversubscription detected. Are you sure this is what you want?

     celldm(1)=  20.379616  celldm(2)=   0.000000  celldm(3)=   0.000000
     celldm(4)=   0.000000  celldm(5)=   0.000000  celldm(6)=   0.000000

     crystal axes: (cart. coord. in units of alat)
               a(1) = (   1.000000   0.000000   0.000000 )  
               a(2) = (   0.000000   1.003120   0.000000 )  
               a(3) = (   0.000000   0.000000   1.031321 )  

     reciprocal axes: (cart. coord. in units 2 pi/alat)
               b(1) = (  1.000000  0.000000  0.000000 )  
               b(2) = (  0.000000  0.996889  0.000000 )  
               b(3) = (  0.000000  0.000000  0.969630 )  


     PseudoPot. # 1 for Si read from file:
     /home/ppiaggi/pseudos/Si_ONCV_PBE_sr.upf
     MD5 check sum: 8553c464762ac42b85b1eed164b4d029
     Pseudo is Norm-conserving, Zval =  4.0
     Generated using ONCVPSP code by D. R. Hamann
     Using radial grid of 1510 points,  4 beta functions with: 
                l(1) =   0
                l(2) =   0
                l(3) =   1
                l(4) =   1

     atomic species   valence    mass     pseudopotential
        Si             4.00    28.08500     Si( 1.00)

     No symmetry found



   Cartesian axes

     site n.     atom                  positions (alat units)
         1           Si  tau(   1) = (   0.0027765   0.0055866  -0.0013482  )
         2           Si  tau(   2) = (   0.0025560   0.2386306   0.2430976  )
         3           Si  tau(   3) = (   0.2597382  -0.0008911   0.2462511  )
         4           Si  tau(   4) = (   0.2557359   0.2470259   0.0008814  )
         5           Si  tau(   5) = (   0.1326810   0.1290779   0.1222279  )
         6           Si  tau(   6) = (   0.5099277  -0.0055155   0.0032365  )
         7           Si  tau(   7) = (   0.5129998   0.2485487   0.2569895  )
         8           Si  tau(   8) = (   0.6336112   0.1311803   0.1252648  )
         9           Si  tau(   9) = (   0.7598978   0.0012826   0.2474972  )
        10           Si  tau(  10) = (   0.7707584   0.2512912   0.0075117  )
        11           Si  tau(  11) = (  -0.0072869   0.4952486   0.0065308  )
        12           Si  tau(  12) = (   0.2612685   0.4901326   0.2444372  )
        13           Si  tau(  13) = (   0.1196440   0.6175563   0.1169127  )
        14           Si  tau(  14) = (   0.3791534   0.3654711   0.1332430  )
        15           Si  tau(  15) = (   0.5143074   0.4979087  -0.0007209  )
        16           Si  tau(  16) = (   0.6381875   0.6204620   0.1262268  )
        17           Si  tau(  17) = (   0.8937920   0.3755721   0.1225040  )
        18           Si  tau(  18) = (   0.7549075   0.4907901   0.2532419  )
        19           Si  tau(  19) = (   0.0088120   0.7351967   0.2535940  )
        20           Si  tau(  20) = (   0.2512849   0.7369339  -0.0054760  )
        21           Si  tau(  21) = (   0.3728071   0.8523985   0.1201071  )
        22           Si  tau(  22) = (   0.5176026   0.7410332   0.2452877  )
        23           Si  tau(  23) = (   0.7622285   0.7403528  -0.0040271  )
        24           Si  tau(  24) = (   0.8998938   0.8606563   0.1256994  )
        25           Si  tau(  25) = (  -0.0064550   0.0063951   0.5035296  )
        26           Si  tau(  26) = (   0.2592427   0.2524398   0.5023669  )
        27           Si  tau(  27) = (   0.1288022   0.1307666   0.6291776  )
        28           Si  tau(  28) = (   0.3746667   0.1266628   0.3679804  )
        29           Si  tau(  29) = (   0.5148265   0.0070830   0.5117555  )
        30           Si  tau(  30) = (   0.6300669   0.1308923   0.6277578  )
        31           Si  tau(  31) = (   0.8984868   0.1218954   0.3850137  )
        32           Si  tau(  32) = (   0.7619213   0.2417208   0.5065315  )
        33           Si  tau(  33) = (   0.1202276   0.3614890   0.3729723  )
        34           Si  tau(  34) = (  -0.0050978   0.4894294   0.5069433  )
        35           Si  tau(  35) = (   0.1312632   0.6138793   0.6279513  )
        36           Si  tau(  36) = (   0.6334410   0.3638877   0.3716766  )
        37           Si  tau(  37) = (   0.3905118   0.6047022   0.3821322  )
        38           Si  tau(  38) = (   0.3895029   0.3696387   0.6281488  )
        39           Si  tau(  39) = (   0.5014970   0.4973154   0.4988208  )
        40           Si  tau(  40) = (   0.6342491   0.6133872   0.6262032  )
        41           Si  tau(  41) = (   0.8932220   0.6117746   0.3845794  )
        42           Si  tau(  42) = (   0.8913575   0.3631997   0.6339496  )
        43           Si  tau(  43) = (   0.1211574   0.8497582   0.3806332  )
        44           Si  tau(  44) = (   0.2516074   0.7291008   0.5045901  )
        45           Si  tau(  45) = (   0.6362261   0.8639705   0.3686035  )
        46           Si  tau(  46) = (   0.3893232   0.8628214   0.6327609  )
        47           Si  tau(  47) = (   0.7580139   0.7353061   0.5032599  )
        48           Si  tau(  48) = (   0.8946982   0.8583943   0.6290013  )
        49           Si  tau(  49) = (  -0.0058867   0.2379915   0.7593026  )
        50           Si  tau(  50) = (   0.2454545  -0.0072823   0.7565274  )
        51           Si  tau(  51) = (   0.3850091   0.1312044   0.8824802  )
        52           Si  tau(  52) = (   0.5015396   0.2503877   0.7532905  )
        53           Si  tau(  53) = (   0.7598500   0.0019439   0.7577523  )
        54           Si  tau(  54) = (   0.8917942   0.1212231   0.8764281  )
        55           Si  tau(  55) = (   0.1221295   0.3648519   0.8721769  )
        56           Si  tau(  56) = (   0.2635652   0.4920997   0.7522367  )
        57           Si  tau(  57) = (   0.6281858   0.3726307   0.8786596  )
        58           Si  tau(  58) = (   0.3741752   0.6176876   0.8750213  )
        59           Si  tau(  59) = (   0.7671526   0.4960734   0.7620324  )
        60           Si  tau(  60) = (   0.8871228   0.6171841   0.8822530  )
        61           Si  tau(  61) = (   0.0057760   0.7309522   0.7516461  )
        62           Si  tau(  62) = (   0.1347572   0.8516280   0.8852424  )
        63           Si  tau(  63) = (   0.5034466   0.7343563   0.7459076  )
        64           Si  tau(  64) = (   0.6357320   0.8501711   0.8844981  )

     number of k points=     1  Fermi-Dirac smearing, width (Ry)=  0.0100
                       cart. coord. in units 2pi/alat
        k(    1) = (   0.0000000   0.0000000   0.0000000), wk =   2.0000000

     Dense  grid:    97185 G-vectors     FFT dimensions: (  72,  72,  75)

     Estimated max dynamical RAM per process >     155.57 MB

     Estimated total dynamical RAM >     598.57 MB

     Initial potential from superposition of free atoms

     starting charge     255.9608, renormalised to     256.0000
     Starting wfcs are  256 randomized atomic wfcs

     total cpu time spent up to now is        5.1 secs

     Self-consistent Calculation

     iteration #  1     ecut=    30.00 Ry     beta= 0.50
     Davidson diagonalization with overlap
     ethr =  1.00E-02,  avg # of iterations =  3.0

     Threshold (ethr) on eigenvalues was too large:
     Diagonalizing with lowered threshold

     Davidson diagonalization with overlap
     ethr =  6.67E-04,  avg # of iterations =  7.0

     total cpu time spent up to now is        5.4 secs

     total energy              =    -503.23076754 Ry
     estimated scf accuracy    <       1.90677669 Ry

     iteration #  2     ecut=    30.00 Ry     beta= 0.50
     Davidson diagonalization with overlap
     ethr =  7.45E-04,  avg # of iterations =  2.0

     total cpu time spent up to now is        5.5 secs

     total energy              =    -503.18702691 Ry
     estimated scf accuracy    <       0.45418265 Ry

     iteration #  3     ecut=    30.00 Ry     beta= 0.50
     Davidson diagonalization with overlap
     ethr =  1.77E-04,  avg # of iterations = 12.0

     total cpu time spent up to now is        5.7 secs

     total energy              =    -503.04465224 Ry
     estimated scf accuracy    <       1.56279562 Ry

     iteration #  4     ecut=    30.00 Ry     beta= 0.50
     Davidson diagonalization with overlap
     ethr =  1.77E-04,  avg # of iterations =  7.0

     total cpu time spent up to now is        5.8 secs

     total energy              =    -503.27572010 Ry
     estimated scf accuracy    <       0.06498485 Ry

     iteration #  5     ecut=    30.00 Ry     beta= 0.50
     Davidson diagonalization with overlap
     ethr =  2.54E-05,  avg # of iterations = 16.0

     total cpu time spent up to now is        6.0 secs

     total energy              =    -503.27837248 Ry
     estimated scf accuracy    <       0.03293272 Ry

     iteration #  6     ecut=    30.00 Ry     beta= 0.50
     Davidson diagonalization with overlap
     ethr =  1.29E-05,  avg # of iterations =  3.0

     total cpu time spent up to now is        6.1 secs

     total energy              =    -503.28103572 Ry
     estimated scf accuracy    <       0.00572289 Ry

     iteration #  7     ecut=    30.00 Ry     beta= 0.50
     Davidson diagonalization with overlap
     ethr =  2.24E-06,  avg # of iterations = 10.0

     total cpu time spent up to now is        6.3 secs

     total energy              =    -503.28216981 Ry
     estimated scf accuracy    <       0.00059895 Ry

     iteration #  8     ecut=    30.00 Ry     beta= 0.50
     Davidson diagonalization with overlap
     ethr =  2.34E-07,  avg # of iterations =  3.0

     total cpu time spent up to now is        6.4 secs

     total energy              =    -503.28219248 Ry
     estimated scf accuracy    <       0.00038297 Ry

     iteration #  9     ecut=    30.00 Ry     beta= 0.50
     Davidson diagonalization with overlap
     ethr =  1.50E-07,  avg # of iterations =  2.0

     total cpu time spent up to now is        6.5 secs

     total energy              =    -503.28220850 Ry
     estimated scf accuracy    <       0.00009297 Ry

     iteration # 10     ecut=    30.00 Ry     beta= 0.50
     Davidson diagonalization with overlap
     ethr =  3.63E-08,  avg # of iterations =  4.0

     total cpu time spent up to now is        6.6 secs

     total energy              =    -503.28222096 Ry
     estimated scf accuracy    <       0.00001009 Ry

     iteration # 11     ecut=    30.00 Ry     beta= 0.50
     Davidson diagonalization with overlap
     ethr =  3.94E-09,  avg # of iterations =  5.0

     total cpu time spent up to now is        6.7 secs

     total energy              =    -503.28222358 Ry
     estimated scf accuracy    <       0.00000276 Ry

     iteration # 12     ecut=    30.00 Ry     beta= 0.50
     Davidson diagonalization with overlap
     ethr =  1.08E-09,  avg # of iterations =  2.0

     total cpu time spent up to now is        6.8 secs

     total energy              =    -503.28222359 Ry
     estimated scf accuracy    <       0.00000138 Ry

     iteration # 13     ecut=    30.00 Ry     beta= 0.50
     Davidson diagonalization with overlap
     ethr =  5.40E-10,  avg # of iterations =  3.0

     total cpu time spent up to now is        6.9 secs

     End of self-consistent calculation

          k = 0.0000 0.0000 0.0000 ( 12163 PWs)   bands (ev):

    -5.9505  -5.0817  -5.0499  -5.0200  -4.7266  -4.6734  -4.5935  -4.2926
    -4.2478  -4.1747  -3.9835  -3.9568  -3.9119  -3.8808  -3.7761  -3.7482
    -3.6837  -3.6023  -3.5542  -3.4344  -3.3824  -3.2405  -2.9851  -2.1702
    -2.0326  -1.9345  -1.9088  -1.8263  -1.7661  -1.6987  -1.6717  -1.6324
    -1.6132  -1.5413  -1.4894  -1.4153  -1.3706  -1.3337  -1.2918  -1.1667
    -1.1255  -1.0125  -0.8930  -0.6990  -0.5625   0.2917   0.3546   0.4496
     0.5304   0.5720   0.5994   0.6462   0.6667   0.7234   0.7379   0.7797
     0.8186   1.8853   1.9283   1.9595   1.9703   2.0087   2.0899   2.0972
     2.1050   2.1443   2.2017   2.2275   2.2656   2.2745   2.3186   2.3321
     2.3989   2.4156   2.4333   2.4600   2.4784   2.5277   2.5518   2.5914
     2.6596   2.7274   2.7600   2.7757   2.9095   2.9535   2.9758   3.0652
     3.1220   3.2293   3.3460   3.4002   3.5031   3.8685   3.9196   4.0085
     4.0337   4.1051   4.1734   4.1846   4.2498   4.3189   4.3836   4.4254
     4.4788   4.5461   4.5793   4.5926   4.6249   4.6386   4.6942   4.7803
     4.8010   4.8437   4.8533   4.9307   4.9678   4.9773   4.9957   5.0525
     5.1169   5.1348   5.2350   5.6026   5.9175   6.0309   6.0939   6.3334
     6.4571   6.5212   6.5626   6.8052   6.8931   6.9576   7.0766   7.1489
     7.1703   7.2299   7.2763   7.3750   7.3901   7.4294   7.5166   7.5466
     8.0643   8.1238   8.1327   8.1838   8.2474   8.3332   8.3991   8.4366
     8.4680   8.5078

     the Fermi energy is     6.3436 ev

!    total energy              =    -503.28222374 Ry
     estimated scf accuracy    <       0.00000015 Ry
     smearing contrib. (-TS)   =      -0.07158280 Ry
     internal energy E=F+TS    =    -503.21064094 Ry

     The total energy is F=E-TS. E is the sum of the following terms:
     one-electron contribution =     142.01673137 Ry
     hartree contribution      =      39.25788895 Ry
     xc contribution           =    -153.83864786 Ry
     ewald contribution        =    -530.64661340 Ry

     convergence has been achieved in  13 iterations

     Forces acting on atoms (cartesian axes, Ry/au):

     atom    1 type  1   force =     0.02915925   -0.04606447   -0.03739691
     atom    2 type  1   force =     0.01166886    0.02396485    0.02176074
     atom    3 type  1   force =    -0.04373444   -0.06769882   -0.00321038
     atom    4 type  1   force =     0.01038630    0.02460503   -0.07780468
     atom    5 type  1   force =     0.00833763   -0.05650039   -0.01152367
     atom    6 type  1   force =    -0.01884023   -0.01825447   -0.05665569
     atom    7 type  1   force =    -0.05438574   -0.03225222   -0.04075490
     atom    8 type  1   force =     0.01517192   -0.03540254   -0.01445558
     atom    9 type  1   force =     0.02838710   -0.03163089    0.01356694
     atom   10 type  1   force =    -0.04082949   -0.01929430   -0.09586726
     atom   11 type  1   force =     0.07799300    0.04967098   -0.15217785
     atom   12 type  1   force =    -0.06923542    0.03576728    0.04260767
     atom   13 type  1   force =     0.06687838   -0.01697023    0.02291591
     atom   14 type  1   force =     0.05720446   -0.00133344   -0.06764586
     atom   15 type  1   force =    -0.04702206   -0.01911158   -0.04095306
     atom   16 type  1   force =     0.02232784   -0.02274881   -0.03191551
     atom   17 type  1   force =    -0.08756165   -0.05429138    0.08376470
     atom   18 type  1   force =     0.04193397    0.01631603   -0.00578873
     atom   19 type  1   force =    -0.01521637   -0.01932152   -0.01070524
     atom   20 type  1   force =    -0.00361034   -0.02314218   -0.04633533
     atom   21 type  1   force =     0.05012286    0.07096666    0.02084081
     atom   22 type  1   force =    -0.07557054   -0.00413228    0.02783621
     atom   23 type  1   force =     0.02499496    0.00877935   -0.02339092
     atom   24 type  1   force =    -0.06842828    0.05493268   -0.02890800
     atom   25 type  1   force =     0.12639937   -0.13298499    0.09599514
     atom   26 type  1   force =    -0.02277667   -0.01217652   -0.00070659
     atom   27 type  1   force =     0.00711404   -0.04031396   -0.00780403
     atom   28 type  1   force =     0.04784810   -0.02028869    0.05159813
     atom   29 type  1   force =    -0.06153608   -0.07503164   -0.06753556
     atom   30 type  1   force =     0.03813393   -0.01678801    0.05106967
     atom   31 type  1   force =    -0.14034840    0.05255003   -0.11143248
     atom   32 type  1   force =     0.01092462    0.03069403   -0.01802465
     atom   33 type  1   force =     0.03672950    0.03962640    0.00124895
     atom   34 type  1   force =     0.09756934   -0.02460204    0.01824670
     atom   35 type  1   force =    -0.00639293   -0.04862569    0.00644764
     atom   36 type  1   force =     0.02714861    0.03421981    0.06918183
     atom   37 type  1   force =    -0.08467617    0.10442534   -0.10845597
     atom   38 type  1   force =    -0.03375452    0.02075709   -0.02607184
     atom   39 type  1   force =     0.10641012   -0.08598939    0.07105940
     atom   40 type  1   force =     0.00930868   -0.01749913    0.01050000
     atom   41 type  1   force =    -0.08827179    0.02575496   -0.05810100
     atom   42 type  1   force =    -0.08143558    0.01707942   -0.00232384
     atom   43 type  1   force =     0.05125033    0.10729481    0.01841241
     atom   44 type  1   force =     0.05823771    0.04539008   -0.01153649
     atom   45 type  1   force =     0.01581595    0.05733427    0.03884796
     atom   46 type  1   force =    -0.05664857    0.06243961   -0.04647520
     atom   47 type  1   force =     0.01854457    0.03503151   -0.00822362
     atom   48 type  1   force =    -0.07132542    0.05922680   -0.01358861
     atom   49 type  1   force =     0.09895739    0.04519409   -0.04635462
     atom   50 type  1   force =     0.04463586   -0.00284072    0.01416870
     atom   51 type  1   force =    -0.03686326   -0.06697808    0.05386777
     atom   52 type  1   force =     0.03866813   -0.01197231    0.02437743
     atom   53 type  1   force =    -0.01594271   -0.06023946   -0.00690416
     atom   54 type  1   force =    -0.08992940   -0.06354971    0.13156600
     atom   55 type  1   force =     0.03559953    0.02336825    0.08292914
     atom   56 type  1   force =    -0.05590991   -0.02596615   -0.00178971
     atom   57 type  1   force =     0.03674395    0.00366769    0.06501882
     atom   58 type  1   force =     0.04172499    0.00576752    0.08118732
     atom   59 type  1   force =    -0.04272379   -0.02866587   -0.03399760
     atom   60 type  1   force =    -0.01703070    0.00157459    0.07411734
     atom   61 type  1   force =     0.03880398    0.02490971    0.03683680
     atom   62 type  1   force =    -0.02741621    0.06168085    0.01013569
     atom   63 type  1   force =     0.03170754   -0.00505779    0.06064067
     atom   64 type  1   force =    -0.00542610    0.06472992    0.01406907

     Total force =     0.717347     Total SCF correction =     0.000698


     Computing stress (Cartesian axis) and pressure

          total   stress  (Ry/bohr**3)                   (kbar)     P=       32.15
   0.00023894   0.00008800   0.00007631           35.15       12.95       11.23
   0.00008800   0.00026272  -0.00010470           12.95       38.65      -15.40
   0.00007631  -0.00010470   0.00015402           11.23      -15.40       22.66

 
     init_run     :      1.21s CPU      5.07s WALL (       1 calls)
     electrons    :      1.68s CPU      1.80s WALL (       1 calls)
     forces       :      0.04s CPU      0.05s WALL (       1 calls)
     stress       :      0.16s CPU      0.17s WALL (       1 calls)

     Called by init_run:
     wfcinit      :      0.56s CPU      4.24s WALL (       1 calls)
                                        4.24s GPU  (       1 calls)
     potinit      :      0.20s CPU      0.30s WALL (       1 calls)
     hinit0       :      0.43s CPU      0.45s WALL (       1 calls)

     Called by electrons:
     c_bands      :      1.09s CPU      1.13s WALL (      14 calls)
     sum_band     :      0.30s CPU      0.34s WALL (      14 calls)
     v_of_rho     :      0.16s CPU      0.26s WALL (      14 calls)
     mix_rho      :      0.12s CPU      0.14s WALL (      14 calls)

     Called by c_bands:
     init_us_2    :      0.05s CPU      0.05s WALL (      29 calls)
     init_us_2:gp :      0.05s CPU      0.05s WALL (      29 calls)
     regterg      :      0.96s CPU      1.00s WALL (      14 calls)

     Called by *egterg:
     rdiaghg      :      0.43s CPU      1.18s WALL (      92 calls)
                                        1.16s GPU  (      92 calls)
     h_psi        :      0.91s CPU      3.86s WALL (      94 calls)
                                        3.86s GPU  (      94 calls)
     g_psi        :      0.00s CPU      0.00s WALL (      79 calls)
                                        0.00s GPU  (      79 calls)

     Called by h_psi:
     h_psi:calbec :      0.51s CPU      3.39s WALL (      94 calls)
                                        3.39s GPU  (      94 calls)
     vloc_psi     :      0.34s CPU      0.40s WALL (      94 calls)
                                        0.40s GPU  (      94 calls)
     add_vuspsi   :      0.04s CPU      0.05s WALL (      94 calls)
                                        0.05s GPU  (      94 calls)

     General routines
     calbec       :      0.52s CPU      3.40s WALL (      99 calls)
     fft          :      0.52s CPU      0.65s WALL (     119 calls)
                                        0.13s GPU  (      76 calls)
     ffts         :      0.04s CPU      0.05s WALL (      14 calls)
     fftw         :      0.39s CPU      0.52s WALL (    1546 calls)
                                        0.46s GPU  (    1546 calls)
 
     Parallel routines
 
     PWSCF        :      3.14s CPU      7.17s WALL

 
   This run was terminated on:  11:12:53  10May2023            

=------------------------------------------------------------------------------=
   JOB DONE.
=------------------------------------------------------------------------------=
