An instance of this daemon is already running
An instance of this daemon is already running

     Program PWSCF v.7.1 starts on 10May2023 at 11:12:36 

     This program is part of the open-source Quantum ESPRESSO suite
     for quantum simulation of materials; please cite
         "P. Giannozzi et al., J. Phys.:Condens. Matter 21 395502 (2009);
         "P. Giannozzi et al., J. Phys.:Condens. Matter 29 465901 (2017);
         "P. Giannozzi et al., J. Chem. Phys. 152 154105 (2020);
          URL http://www.quantum-espresso.org", 
     in publications or presentations arising from this work. More details at
     http://www.quantum-espresso.org/quote

     Parallel version (MPI & OpenMP), running on       4 processor cores
     Number of MPI processes:                 4
     Threads/MPI process:                     1

     MPI processes distributed on     1 nodes
     753575 MiB available memory on the printing compute node when the environment starts
 
     Reading input from pw-si-13.in
Warning: card &CELL ignored
Warning: card / ignored

     Current dimensions of program PWSCF are:
     Max number of different atomic species (ntypx) = 10
     Max number of k-points (npk) =  40000
     Max angular momentum in pseudopotentials (lmaxx) =  4

     IMPORTANT: XC functional enforced from input :
     Exchange-correlation= PBE
                           (   1   4   3   4   0   0   0)
     Any further DFT definition will be discarded
     Please, verify this is what you really want


     gamma-point specific algorithms are used
 
     K-points division:     npool     =       2
     R & G space division:  proc/nbgrp/npool/nimage =       2
     Subspace diagonalization in iterative solution of the eigenvalue problem:
     a serial algorithm will be used

     Message from routine divide_et_impera:
     suboptimal parallelization: some nodes have no k-points
 
     Parallelization info
     --------------------
     sticks:   dense  smooth     PW     G-vecs:    dense   smooth      PW
     Min        2072    2072    549               102435   102435   13890
     Max        2073    2073    550               102440   102440   13891
     Sum        4145    4145   1099               204875   204875   27781
 
     Using Slab Decomposition
 


     bravais-lattice index     =            0
     lattice parameter (alat)  =      20.3820  a.u.
     unit-cell volume          =    9226.1756 (a.u.)^3
     number of atoms/cell      =           64
     number of atomic types    =            1
     number of electrons       =       256.00
     number of Kohn-Sham states=          154
     kinetic-energy cutoff     =      30.0000  Ry
     charge density cutoff     =     120.0000  Ry
     scf convergence threshold =      1.0E-06
     mixing beta               =       0.5000
     number of iterations used =            8  plain     mixing
     Exchange-correlation= PBE
                           (   1   4   3   4   0   0   0)

     GPU acceleration is ACTIVE.
     GPU-aware MPI enabled

     Message from routine print_cuda_info:
     High GPU oversubscription detected. Are you sure this is what you want?

     celldm(1)=  20.381990  celldm(2)=   0.000000  celldm(3)=   0.000000
     celldm(4)=   0.000000  celldm(5)=   0.000000  celldm(6)=   0.000000

     crystal axes: (cart. coord. in units of alat)
               a(1) = (   1.000000   0.000000   0.000000 )  
               a(2) = (   0.000000   1.043271   0.000000 )  
               a(3) = (   0.000000   0.000000   1.044443 )  

     reciprocal axes: (cart. coord. in units 2 pi/alat)
               b(1) = (  1.000000  0.000000  0.000000 )  
               b(2) = (  0.000000  0.958523  0.000000 )  
               b(3) = (  0.000000  0.000000  0.957448 )  


     PseudoPot. # 1 for Si read from file:
     /home/ppiaggi/pseudos/Si_ONCV_PBE_sr.upf
     MD5 check sum: 8553c464762ac42b85b1eed164b4d029
     Pseudo is Norm-conserving, Zval =  4.0
     Generated using ONCVPSP code by D. R. Hamann
     Using radial grid of 1510 points,  4 beta functions with: 
                l(1) =   0
                l(2) =   0
                l(3) =   1
                l(4) =   1

     atomic species   valence    mass     pseudopotential
        Si             4.00    28.08500     Si( 1.00)

     No symmetry found



   Cartesian axes

     site n.     atom                  positions (alat units)
         1           Si  tau(   1) = (   0.0084746  -0.0062333  -0.0018018  )
         2           Si  tau(   2) = (   0.0087866   0.2640463   0.2629636  )
         3           Si  tau(   3) = (   0.2599243  -0.0019916   0.2553741  )
         4           Si  tau(   4) = (   0.2574756   0.2588807   0.0062737  )
         5           Si  tau(   5) = (   0.1272564   0.1285004   0.1240352  )
         6           Si  tau(   6) = (   0.5067684  -0.0049147   0.0041987  )
         7           Si  tau(   7) = (   0.5023024   0.2457994   0.2514627  )
         8           Si  tau(   8) = (   0.6326043   0.1320104   0.1305246  )
         9           Si  tau(   9) = (   0.7502478   0.0071196   0.2550905  )
        10           Si  tau(  10) = (   0.7471389   0.2618873   0.0092202  )
        11           Si  tau(  11) = (  -0.0002162   0.5033280  -0.0087523  )
        12           Si  tau(  12) = (   0.2469578   0.5173962   0.2683004  )
        13           Si  tau(  13) = (   0.1308956   0.6377034   0.1292891  )
        14           Si  tau(  14) = (   0.3802743   0.3876977   0.1346057  )
        15           Si  tau(  15) = (   0.5111210   0.5036275   0.0034462  )
        16           Si  tau(  16) = (   0.6206269   0.6328492   0.1231740  )
        17           Si  tau(  17) = (   0.8727728   0.3766719   0.1332032  )
        18           Si  tau(  18) = (   0.7620572   0.5182181   0.2656083  )
        19           Si  tau(  19) = (   0.0063169   0.7610161   0.2643609  )
        20           Si  tau(  20) = (   0.2545798   0.7580666   0.0005577  )
        21           Si  tau(  21) = (   0.3833074   0.8886808   0.1217395  )
        22           Si  tau(  22) = (   0.4983593   0.7602364   0.2630800  )
        23           Si  tau(  23) = (   0.7550503   0.7644988  -0.0090037  )
        24           Si  tau(  24) = (   0.8830752   0.8974463   0.1300438  )
        25           Si  tau(  25) = (   0.0021732   0.0031257   0.5116545  )
        26           Si  tau(  26) = (   0.2536874   0.2595101   0.5126678  )
        27           Si  tau(  27) = (   0.1281260   0.1361084   0.6451116  )
        28           Si  tau(  28) = (   0.3689313   0.1193586   0.3868522  )
        29           Si  tau(  29) = (   0.5016389  -0.0016232   0.5175649  )
        30           Si  tau(  30) = (   0.6335424   0.1188656   0.6509178  )
        31           Si  tau(  31) = (   0.8783729   0.1337897   0.3901491  )
        32           Si  tau(  32) = (   0.7604013   0.2459113   0.5258363  )
        33           Si  tau(  33) = (   0.1249203   0.3853940   0.3808564  )
        34           Si  tau(  34) = (  -0.0009009   0.5053493   0.5207351  )
        35           Si  tau(  35) = (   0.1328494   0.6425173   0.6562602  )
        36           Si  tau(  36) = (   0.6301072   0.3750461   0.3827788  )
        37           Si  tau(  37) = (   0.3832916   0.6344738   0.3944243  )
        38           Si  tau(  38) = (   0.3741989   0.3838085   0.6545956  )
        39           Si  tau(  39) = (   0.5089947   0.5115031   0.5153180  )
        40           Si  tau(  40) = (   0.6354353   0.6427562   0.6422921  )
        41           Si  tau(  41) = (   0.8849601   0.6435707   0.3930820  )
        42           Si  tau(  42) = (   0.8865995   0.3813254   0.6572094  )
        43           Si  tau(  43) = (   0.1310161   0.9009765   0.3841783  )
        44           Si  tau(  44) = (   0.2475003   0.7732351   0.5163563  )
        45           Si  tau(  45) = (   0.6306769   0.8954830   0.3856370  )
        46           Si  tau(  46) = (   0.3848524   0.8904857   0.6567774  )
        47           Si  tau(  47) = (   0.7487292   0.7576698   0.5213484  )
        48           Si  tau(  48) = (   0.8808930   0.9014440   0.6499140  )
        49           Si  tau(  49) = (   0.0059863   0.2524659   0.7880270  )
        50           Si  tau(  50) = (   0.2512421  -0.0083278   0.7827318  )
        51           Si  tau(  51) = (   0.3718597   0.1366551   0.9181776  )
        52           Si  tau(  52) = (   0.5044481   0.2633658   0.7822665  )
        53           Si  tau(  53) = (   0.7609574  -0.0015391   0.7742263  )
        54           Si  tau(  54) = (   0.8735252   0.1220130   0.9127543  )
        55           Si  tau(  55) = (   0.1238813   0.3761570   0.9152160  )
        56           Si  tau(  56) = (   0.2601511   0.5062243   0.7713822  )
        57           Si  tau(  57) = (   0.6308183   0.3904904   0.9102455  )
        58           Si  tau(  58) = (   0.3811785   0.6335172   0.9183501  )
        59           Si  tau(  59) = (   0.7506039   0.5012967   0.7797303  )
        60           Si  tau(  60) = (   0.8733166   0.6285836   0.9039451  )
        61           Si  tau(  61) = (  -0.0090400   0.7628741   0.7779116  )
        62           Si  tau(  62) = (   0.1280909   0.8859138   0.9081022  )
        63           Si  tau(  63) = (   0.5056958   0.7694125   0.7747177  )
        64           Si  tau(  64) = (   0.6321155   0.8967494   0.9177105  )

     number of k points=     1  Fermi-Dirac smearing, width (Ry)=  0.0100
                       cart. coord. in units 2pi/alat
        k(    1) = (   0.0000000   0.0000000   0.0000000), wk =   2.0000000

     Dense  grid:   102438 G-vectors     FFT dimensions: (  72,  75,  75)

     Estimated max dynamical RAM per process >     163.61 MB

     Estimated total dynamical RAM >     629.42 MB

     Initial potential from superposition of free atoms

     starting charge     255.9608, renormalised to     256.0000
     Starting wfcs are  256 randomized atomic wfcs

     total cpu time spent up to now is        5.1 secs

     Self-consistent Calculation

     iteration #  1     ecut=    30.00 Ry     beta= 0.50
     Davidson diagonalization with overlap
     ethr =  1.00E-02,  avg # of iterations =  3.0

     Threshold (ethr) on eigenvalues was too large:
     Diagonalizing with lowered threshold

     Davidson diagonalization with overlap
     ethr =  6.16E-04,  avg # of iterations =  4.0

     total cpu time spent up to now is        5.3 secs

     total energy              =    -503.59168526 Ry
     estimated scf accuracy    <       1.75122045 Ry

     iteration #  2     ecut=    30.00 Ry     beta= 0.50
     Davidson diagonalization with overlap
     ethr =  6.84E-04,  avg # of iterations =  1.0

     total cpu time spent up to now is        5.5 secs

     total energy              =    -503.58293734 Ry
     estimated scf accuracy    <       0.33317011 Ry

     iteration #  3     ecut=    30.00 Ry     beta= 0.50
     Davidson diagonalization with overlap
     ethr =  1.30E-04,  avg # of iterations =  5.0

     total cpu time spent up to now is        5.6 secs

     total energy              =    -503.58554828 Ry
     estimated scf accuracy    <       0.12576575 Ry

     iteration #  4     ecut=    30.00 Ry     beta= 0.50
     Davidson diagonalization with overlap
     ethr =  4.91E-05,  avg # of iterations = 14.0

     total cpu time spent up to now is        5.8 secs

     total energy              =    -503.60942636 Ry
     estimated scf accuracy    <       0.01908780 Ry

     iteration #  5     ecut=    30.00 Ry     beta= 0.50
     Davidson diagonalization with overlap
     ethr =  7.46E-06,  avg # of iterations = 19.0

     total cpu time spent up to now is        6.0 secs

     total energy              =    -503.61161512 Ry
     estimated scf accuracy    <       0.00281862 Ry

     iteration #  6     ecut=    30.00 Ry     beta= 0.50
     Davidson diagonalization with overlap
     ethr =  1.10E-06,  avg # of iterations =  4.0

     total cpu time spent up to now is        6.1 secs

     total energy              =    -503.61221003 Ry
     estimated scf accuracy    <       0.00046308 Ry

     iteration #  7     ecut=    30.00 Ry     beta= 0.50
     Davidson diagonalization with overlap
     ethr =  1.81E-07,  avg # of iterations =  4.0

     total cpu time spent up to now is        6.3 secs

     total energy              =    -503.61225396 Ry
     estimated scf accuracy    <       0.00023200 Ry

     iteration #  8     ecut=    30.00 Ry     beta= 0.50
     Davidson diagonalization with overlap
     ethr =  9.06E-08,  avg # of iterations =  4.0

     total cpu time spent up to now is        6.4 secs

     total energy              =    -503.61228959 Ry
     estimated scf accuracy    <       0.00001839 Ry

     iteration #  9     ecut=    30.00 Ry     beta= 0.50
     Davidson diagonalization with overlap
     ethr =  7.18E-09,  avg # of iterations =  4.0

     total cpu time spent up to now is        6.5 secs

     total energy              =    -503.61229409 Ry
     estimated scf accuracy    <       0.00000163 Ry

     iteration # 10     ecut=    30.00 Ry     beta= 0.50
     Davidson diagonalization with overlap
     ethr =  6.35E-10,  avg # of iterations =  4.0

     total cpu time spent up to now is        6.6 secs

     End of self-consistent calculation

          k = 0.0000 0.0000 0.0000 ( 12838 PWs)   bands (ev):

    -6.0397  -5.1548  -5.1301  -5.0553  -4.9512  -4.9103  -4.8392  -4.3130
    -4.2522  -4.2305  -4.1989  -4.1563  -4.0692  -4.0576  -4.0251  -4.0031
    -3.9695  -3.9055  -3.8076  -3.7796  -3.7207  -3.6491  -3.4495  -2.3163
    -2.2677  -2.2297  -2.1344  -2.1281  -2.0563  -2.0398  -2.0163  -1.9760
    -1.9362  -1.8998  -1.8953  -1.8295  -1.7687  -1.7502  -1.7277  -1.6098
    -1.5597  -1.2051  -1.0622  -1.0364  -1.0159   0.0021   0.0531   0.0672
     0.1108   0.1489   0.1730   0.2355   0.2597   0.3221   0.3410   0.3783
     0.4175   1.6384   1.6976   1.7288   1.7632   1.8175   1.8193   1.8470
     1.8708   1.9042   1.9250   1.9418   1.9496   1.9705   1.9912   2.0089
     2.0396   2.0435   2.0702   2.0786   2.0958   2.1218   2.1681   2.2009
     2.2119   2.2546   2.3197   2.3394   2.4063   2.4388   2.4729   2.7197
     2.7482   2.9302   2.9431   3.0515   3.0603   3.5760   3.5972   3.6566
     3.6767   3.7195   3.7727   3.8372   3.8723   3.9309   3.9645   3.9777
     3.9860   4.1058   4.1281   4.1719   4.2027   4.2337   4.2631   4.2768
     4.3292   4.3482   4.3664   4.4193   4.4611   4.4946   4.5117   4.5644
     4.5858   4.6498   4.7073   4.7848   5.1449   5.5670   5.5742   5.8803
     6.0692   6.1200   6.3394   6.3681   6.4463   6.4596   6.5063   6.5563
     6.7348   6.7492   6.7615   6.8346   6.8654   6.8848   6.9054   7.0247
     7.5642   7.5667   7.6498   7.6818   7.8925   7.9133   7.9548   7.9863
     8.0110   8.0351

     the Fermi energy is     5.9176 ev

!    total energy              =    -503.61229454 Ry
     estimated scf accuracy    <       0.00000051 Ry
     smearing contrib. (-TS)   =      -0.05982729 Ry
     internal energy E=F+TS    =    -503.55246725 Ry

     The total energy is F=E-TS. E is the sum of the following terms:
     one-electron contribution =     133.52465799 Ry
     hartree contribution      =      39.05282454 Ry
     xc contribution           =    -152.15386361 Ry
     ewald contribution        =    -523.97608617 Ry

     convergence has been achieved in  10 iterations

     Forces acting on atoms (cartesian axes, Ry/au):

     atom    1 type  1   force =    -0.01522051   -0.03579432   -0.01573666
     atom    2 type  1   force =    -0.04184140   -0.06700481   -0.04847251
     atom    3 type  1   force =    -0.03933149   -0.06124569   -0.04045353
     atom    4 type  1   force =    -0.02610415    0.01550343   -0.00598165
     atom    5 type  1   force =     0.01210865   -0.00733644    0.03277697
     atom    6 type  1   force =    -0.00663875   -0.01132363   -0.02610761
     atom    7 type  1   force =    -0.02380914    0.02549973    0.04443762
     atom    8 type  1   force =    -0.03171674   -0.04168345   -0.02293488
     atom    9 type  1   force =     0.03646746   -0.06586582    0.02554661
     atom   10 type  1   force =     0.01408620   -0.02372544   -0.07241160
     atom   11 type  1   force =    -0.00519647    0.01995736    0.03667229
     atom   12 type  1   force =     0.04322978   -0.00369203   -0.03387891
     atom   13 type  1   force =    -0.03427794   -0.01765174   -0.00576180
     atom   14 type  1   force =    -0.01178955   -0.00941939    0.01134435
     atom   15 type  1   force =    -0.04910218    0.00672960   -0.03134618
     atom   16 type  1   force =     0.06385339    0.04424770    0.04895576
     atom   17 type  1   force =     0.03729602    0.04968680    0.01015565
     atom   18 type  1   force =    -0.04097766   -0.02204628   -0.03173479
     atom   19 type  1   force =     0.01097206    0.04809189   -0.03163923
     atom   20 type  1   force =    -0.00270890    0.03241054   -0.02239169
     atom   21 type  1   force =    -0.00555920    0.04443013    0.02981484
     atom   22 type  1   force =     0.02438614    0.02427151   -0.02851018
     atom   23 type  1   force =     0.00385579   -0.00415692    0.03487323
     atom   24 type  1   force =    -0.01384856    0.01889773   -0.00216178
     atom   25 type  1   force =     0.01822642   -0.04251308    0.02029604
     atom   26 type  1   force =    -0.00508663    0.00035414    0.00940246
     atom   27 type  1   force =     0.00385658   -0.04624923    0.01102579
     atom   28 type  1   force =     0.04965243    0.03064359    0.01730457
     atom   29 type  1   force =     0.00681333   -0.05229173    0.01114106
     atom   30 type  1   force =    -0.03477985    0.02664449   -0.00318066
     atom   31 type  1   force =     0.01092546   -0.02537576   -0.02984618
     atom   32 type  1   force =    -0.02483533    0.04760749    0.00242435
     atom   33 type  1   force =     0.02093312    0.01752406    0.06848896
     atom   34 type  1   force =     0.03878210    0.03227598    0.00816490
     atom   35 type  1   force =    -0.02699250   -0.01275609   -0.03675454
     atom   36 type  1   force =     0.01658992    0.00516873    0.02436558
     atom   37 type  1   force =    -0.04532564    0.02687147    0.00582661
     atom   38 type  1   force =     0.05727756   -0.02579296   -0.07193483
     atom   39 type  1   force =     0.00189947   -0.03170741    0.02455569
     atom   40 type  1   force =    -0.05598226   -0.06286072    0.06408895
     atom   41 type  1   force =    -0.01950154   -0.02310479    0.02209933
     atom   42 type  1   force =    -0.02908415   -0.02719459   -0.00976398
     atom   43 type  1   force =    -0.00907335    0.03583053   -0.00114255
     atom   44 type  1   force =     0.03936049   -0.01129591    0.02582849
     atom   45 type  1   force =    -0.01290116    0.03056393    0.00433012
     atom   46 type  1   force =    -0.04849113    0.07446141   -0.05096629
     atom   47 type  1   force =     0.06413641    0.09955300   -0.04371081
     atom   48 type  1   force =    -0.01346340    0.01172163   -0.03242538
     atom   49 type  1   force =    -0.01494873   -0.01835331   -0.01181786
     atom   50 type  1   force =     0.00724087   -0.00314945   -0.00540078
     atom   51 type  1   force =     0.03624524   -0.05360185   -0.02400244
     atom   52 type  1   force =     0.00034975   -0.04355850    0.00349540
     atom   53 type  1   force =    -0.01907596   -0.05489361    0.03545199
     atom   54 type  1   force =     0.01571283    0.01524849    0.02455198
     atom   55 type  1   force =     0.05354984    0.01820512   -0.01264490
     atom   56 type  1   force =    -0.05286079    0.04139479    0.08737755
     atom   57 type  1   force =    -0.01346898   -0.05151984    0.02405231
     atom   58 type  1   force =     0.01604147   -0.00852767   -0.03679859
     atom   59 type  1   force =     0.01560538    0.04563254   -0.03878586
     atom   60 type  1   force =     0.00256053    0.01762415    0.02169407
     atom   61 type  1   force =     0.03871666    0.01085084    0.01007582
     atom   62 type  1   force =    -0.00757103    0.03741019    0.00984591
     atom   63 type  1   force =     0.03142172   -0.03133910    0.06111794
     atom   64 type  1   force =    -0.01058801    0.04171859   -0.04288454

     Total force =     0.466102     Total SCF correction =     0.001146


     Computing stress (Cartesian axis) and pressure

          total   stress  (Ry/bohr**3)                   (kbar)     P=      -21.00
  -0.00001945   0.00000907   0.00001561           -2.86        1.33        2.30
   0.00000907  -0.00020844  -0.00000694            1.33      -30.66       -1.02
   0.00001561  -0.00000694  -0.00020046            2.30       -1.02      -29.49

 
     init_run     :      1.11s CPU      5.00s WALL (       1 calls)
     electrons    :      1.44s CPU      1.56s WALL (       1 calls)
     forces       :      0.04s CPU      0.05s WALL (       1 calls)
     stress       :      0.17s CPU      0.18s WALL (       1 calls)

     Called by init_run:
     wfcinit      :      0.54s CPU      4.25s WALL (       1 calls)
                                        4.25s GPU  (       1 calls)
     potinit      :      0.22s CPU      0.31s WALL (       1 calls)
     hinit0       :      0.33s CPU      0.35s WALL (       1 calls)

     Called by electrons:
     c_bands      :      0.95s CPU      1.01s WALL (      11 calls)
     sum_band     :      0.26s CPU      0.29s WALL (      11 calls)
     v_of_rho     :      0.14s CPU      0.24s WALL (      11 calls)
     mix_rho      :      0.09s CPU      0.10s WALL (      11 calls)

     Called by c_bands:
     init_us_2    :      0.04s CPU      0.04s WALL (      23 calls)
     init_us_2:gp :      0.04s CPU      0.04s WALL (      23 calls)
     regterg      :      0.86s CPU      0.91s WALL (      11 calls)

     Called by *egterg:
     rdiaghg      :      0.38s CPU      1.14s WALL (      76 calls)
                                        1.13s GPU  (      76 calls)
     h_psi        :      0.87s CPU      3.85s WALL (      78 calls)
                                        3.84s GPU  (      78 calls)
     g_psi        :      0.00s CPU      0.00s WALL (      66 calls)
                                        0.00s GPU  (      66 calls)

     Called by h_psi:
     h_psi:calbec :      0.48s CPU      3.39s WALL (      78 calls)
                                        3.39s GPU  (      78 calls)
     vloc_psi     :      0.34s CPU      0.41s WALL (      78 calls)
                                        0.41s GPU  (      78 calls)
     add_vuspsi   :      0.03s CPU      0.05s WALL (      78 calls)
                                        0.05s GPU  (      78 calls)

     General routines
     calbec       :      0.49s CPU      3.39s WALL (      83 calls)
     fft          :      0.40s CPU      0.52s WALL (      95 calls)
                                        0.13s GPU  (      61 calls)
     ffts         :      0.04s CPU      0.04s WALL (      11 calls)
     fftw         :      0.37s CPU      0.51s WALL (    1225 calls)
                                        0.45s GPU  (    1225 calls)
 
     Parallel routines
 
     PWSCF        :      2.81s CPU      6.87s WALL

 
   This run was terminated on:  11:12:43  10May2023            

=------------------------------------------------------------------------------=
   JOB DONE.
=------------------------------------------------------------------------------=
