An instance of this daemon is already running

     Program PWSCF v.7.1 starts on 10May2023 at 11:16:40 

     This program is part of the open-source Quantum ESPRESSO suite
     for quantum simulation of materials; please cite
         "P. Giannozzi et al., J. Phys.:Condens. Matter 21 395502 (2009);
         "P. Giannozzi et al., J. Phys.:Condens. Matter 29 465901 (2017);
         "P. Giannozzi et al., J. Chem. Phys. 152 154105 (2020);
          URL http://www.quantum-espresso.org", 
     in publications or presentations arising from this work. More details at
     http://www.quantum-espresso.org/quote

     Parallel version (MPI & OpenMP), running on       4 processor cores
     Number of MPI processes:                 4
     Threads/MPI process:                     1

     MPI processes distributed on     1 nodes
     753590 MiB available memory on the printing compute node when the environment starts
 
     Reading input from pw-si-39.in
Warning: card &CELL ignored
Warning: card / ignored

     Current dimensions of program PWSCF are:
     Max number of different atomic species (ntypx) = 10
     Max number of k-points (npk) =  40000
     Max angular momentum in pseudopotentials (lmaxx) =  4

     IMPORTANT: XC functional enforced from input :
     Exchange-correlation= PBE
                           (   1   4   3   4   0   0   0)
     Any further DFT definition will be discarded
     Please, verify this is what you really want


     gamma-point specific algorithms are used
 
     K-points division:     npool     =       2
     R & G space division:  proc/nbgrp/npool/nimage =       2
     Subspace diagonalization in iterative solution of the eigenvalue problem:
     a serial algorithm will be used

     Message from routine divide_et_impera:
     suboptimal parallelization: some nodes have no k-points
 
     Parallelization info
     --------------------
     sticks:   dense  smooth     PW     G-vecs:    dense   smooth      PW
     Min        2157    2157    565               106691   106691   14431
     Max        2158    2158    566               106694   106694   14434
     Sum        4315    4315   1131               213385   213385   28865
 
     Using Slab Decomposition
 


     bravais-lattice index     =            0
     lattice parameter (alat)  =      21.3596  a.u.
     unit-cell volume          =    9613.9876 (a.u.)^3
     number of atoms/cell      =           64
     number of atomic types    =            1
     number of electrons       =       256.00
     number of Kohn-Sham states=          154
     kinetic-energy cutoff     =      30.0000  Ry
     charge density cutoff     =     120.0000  Ry
     scf convergence threshold =      1.0E-06
     mixing beta               =       0.5000
     number of iterations used =            8  plain     mixing
     Exchange-correlation= PBE
                           (   1   4   3   4   0   0   0)

     GPU acceleration is ACTIVE.
     GPU-aware MPI enabled

     Message from routine print_cuda_info:
     High GPU oversubscription detected. Are you sure this is what you want?

     celldm(1)=  21.359586  celldm(2)=   0.000000  celldm(3)=   0.000000
     celldm(4)=   0.000000  celldm(5)=   0.000000  celldm(6)=   0.000000

     crystal axes: (cart. coord. in units of alat)
               a(1) = (   1.000000   0.000000   0.000000 )  
               a(2) = (   0.000000   0.987569   0.000000 )  
               a(3) = (   0.000000   0.000000   0.998982 )  

     reciprocal axes: (cart. coord. in units 2 pi/alat)
               b(1) = (  1.000000  0.000000  0.000000 )  
               b(2) = (  0.000000  1.012588  0.000000 )  
               b(3) = (  0.000000  0.000000  1.001019 )  


     PseudoPot. # 1 for Si read from file:
     /home/ppiaggi/pseudos/Si_ONCV_PBE_sr.upf
     MD5 check sum: 8553c464762ac42b85b1eed164b4d029
     Pseudo is Norm-conserving, Zval =  4.0
     Generated using ONCVPSP code by D. R. Hamann
     Using radial grid of 1510 points,  4 beta functions with: 
                l(1) =   0
                l(2) =   0
                l(3) =   1
                l(4) =   1

     atomic species   valence    mass     pseudopotential
        Si             4.00    28.08500     Si( 1.00)

     No symmetry found



   Cartesian axes

     site n.     atom                  positions (alat units)
         1           Si  tau(   1) = (   0.0087128   0.0039630  -0.0054259  )
         2           Si  tau(   2) = (  -0.0055735   0.2437992   0.2581399  )
         3           Si  tau(   3) = (   0.2358604   0.0039665   0.2469727  )
         4           Si  tau(   4) = (   0.2425198   0.2498284  -0.0060179  )
         5           Si  tau(   5) = (   0.1141966   0.1286236   0.1312778  )
         6           Si  tau(   6) = (   0.4815371   0.0031063  -0.0065288  )
         7           Si  tau(   7) = (   0.4931381   0.2372979   0.2475834  )
         8           Si  tau(   8) = (   0.6038751   0.1210660   0.1195510  )
         9           Si  tau(   9) = (   0.7358177  -0.0059153   0.2575997  )
        10           Si  tau(  10) = (   0.7312765   0.2405037   0.0001847  )
        11           Si  tau(  11) = (   0.0001799   0.4771663  -0.0069688  )
        12           Si  tau(  12) = (   0.2426008   0.4780455   0.2531605  )
        13           Si  tau(  13) = (   0.1166129   0.6096598   0.1338372  )
        14           Si  tau(  14) = (   0.3615902   0.3674171   0.1279517  )
        15           Si  tau(  15) = (   0.4946325   0.4900657   0.0040209  )
        16           Si  tau(  16) = (   0.6032964   0.6156838   0.1259518  )
        17           Si  tau(  17) = (   0.8578810   0.3716228   0.1307327  )
        18           Si  tau(  18) = (   0.7219362   0.4827170   0.2591091  )
        19           Si  tau(  19) = (  -0.0040521   0.7343206   0.2550683  )
        20           Si  tau(  20) = (   0.2404674   0.7233747   0.0036247  )
        21           Si  tau(  21) = (   0.3732595   0.8584428   0.1312099  )
        22           Si  tau(  22) = (   0.4828801   0.7341987   0.2608440  )
        23           Si  tau(  23) = (   0.7278697   0.7342289  -0.0062207  )
        24           Si  tau(  24) = (   0.8458236   0.8439705   0.1321949  )
        25           Si  tau(  25) = (   0.0068674  -0.0061341   0.5074886  )
        26           Si  tau(  26) = (   0.2353205   0.2384212   0.5105672  )
        27           Si  tau(  27) = (   0.1225399   0.1246459   0.6315945  )
        28           Si  tau(  28) = (   0.3673212   0.1171875   0.3770604  )
        29           Si  tau(  29) = (   0.4784858  -0.0037032   0.5092827  )
        30           Si  tau(  30) = (   0.6083783   0.1211678   0.6276859  )
        31           Si  tau(  31) = (   0.8581861   0.1206202   0.3782410  )
        32           Si  tau(  32) = (   0.7242831   0.2418658   0.5085671  )
        33           Si  tau(  33) = (   0.1292362   0.3568488   0.3819537  )
        34           Si  tau(  34) = (   0.0072965   0.4806179   0.5060197  )
        35           Si  tau(  35) = (   0.1209561   0.6015622   0.6394196  )
        36           Si  tau(  36) = (   0.6133751   0.3665519   0.3846674  )
        37           Si  tau(  37) = (   0.3615223   0.6014443   0.3760717  )
        38           Si  tau(  38) = (   0.3724174   0.3644815   0.6417459  )
        39           Si  tau(  39) = (   0.4884171   0.4911081   0.5067245  )
        40           Si  tau(  40) = (   0.6125592   0.6095098   0.6335329  )
        41           Si  tau(  41) = (   0.8486098   0.6128121   0.3767087  )
        42           Si  tau(  42) = (   0.8569354   0.3646410   0.6431821  )
        43           Si  tau(  43) = (   0.1238577   0.8484686   0.3796068  )
        44           Si  tau(  44) = (   0.2426645   0.7244169   0.5118882  )
        45           Si  tau(  45) = (   0.6082764   0.8545020   0.3753248  )
        46           Si  tau(  46) = (   0.3660320   0.8563892   0.6374909  )
        47           Si  tau(  47) = (   0.7345512   0.7306479   0.5008972  )
        48           Si  tau(  48) = (   0.8509197   0.8589390   0.6355440  )
        49           Si  tau(  49) = (  -0.0037046   0.2409634   0.7627359  )
        50           Si  tau(  50) = (   0.2485132  -0.0015935   0.7675079  )
        51           Si  tau(  51) = (   0.3721233   0.1225988   0.8857090  )
        52           Si  tau(  52) = (   0.4850362   0.2403083   0.7548107  )
        53           Si  tau(  53) = (   0.7358370  -0.0006232   0.7711066  )
        54           Si  tau(  54) = (   0.8466241   0.1302401   0.8988125  )
        55           Si  tau(  55) = (   0.1194627   0.3645718   0.8874184  )
        56           Si  tau(  56) = (   0.2469348   0.4911474   0.7584524  )
        57           Si  tau(  57) = (   0.6093461   0.3709564   0.8902278  )
        58           Si  tau(  58) = (   0.3723790   0.6146831   0.8834624  )
        59           Si  tau(  59) = (   0.7254043   0.4771733   0.7545874  )
        60           Si  tau(  60) = (   0.8511650   0.6157248   0.8896037  )
        61           Si  tau(  61) = (   0.0038847   0.7374548   0.7722391  )
        62           Si  tau(  62) = (   0.1225066   0.8529966   0.8962376  )
        63           Si  tau(  63) = (   0.4845932   0.7203037   0.7665640  )
        64           Si  tau(  64) = (   0.6062400   0.8525243   0.8852001  )

     number of k points=     1  Fermi-Dirac smearing, width (Ry)=  0.0100
                       cart. coord. in units 2pi/alat
        k(    1) = (   0.0000000   0.0000000   0.0000000), wk =   2.0000000

     Dense  grid:   106693 G-vectors     FFT dimensions: (  75,  75,  75)

     Estimated max dynamical RAM per process >     170.34 MB

     Estimated total dynamical RAM >     655.31 MB

     Initial potential from superposition of free atoms

     starting charge     255.9608, renormalised to     256.0000
     Starting wfcs are  256 randomized atomic wfcs

     total cpu time spent up to now is        4.9 secs

     Self-consistent Calculation

     iteration #  1     ecut=    30.00 Ry     beta= 0.50
     Davidson diagonalization with overlap
     ethr =  1.00E-02,  avg # of iterations =  3.0

     Threshold (ethr) on eigenvalues was too large:
     Diagonalizing with lowered threshold

     Davidson diagonalization with overlap
     ethr =  5.74E-04,  avg # of iterations =  5.0

     total cpu time spent up to now is        5.2 secs

     total energy              =    -503.32843098 Ry
     estimated scf accuracy    <       1.63810669 Ry

     iteration #  2     ecut=    30.00 Ry     beta= 0.50
     Davidson diagonalization with overlap
     ethr =  6.40E-04,  avg # of iterations =  1.0

     total cpu time spent up to now is        5.4 secs

     total energy              =    -503.30599601 Ry
     estimated scf accuracy    <       0.35025303 Ry

     iteration #  3     ecut=    30.00 Ry     beta= 0.50
     Davidson diagonalization with overlap
     ethr =  1.37E-04,  avg # of iterations =  7.0

     total cpu time spent up to now is        5.5 secs

     total energy              =    -503.24734238 Ry
     estimated scf accuracy    <       0.65898790 Ry

     iteration #  4     ecut=    30.00 Ry     beta= 0.50
     Davidson diagonalization with overlap
     ethr =  1.37E-04,  avg # of iterations =  4.0

     total cpu time spent up to now is        5.7 secs

     total energy              =    -503.34810865 Ry
     estimated scf accuracy    <       0.02268216 Ry

     iteration #  5     ecut=    30.00 Ry     beta= 0.50
     Davidson diagonalization with overlap
     ethr =  8.86E-06,  avg # of iterations = 12.0

     total cpu time spent up to now is        5.9 secs

     total energy              =    -503.34941086 Ry
     estimated scf accuracy    <       0.01017081 Ry

     iteration #  6     ecut=    30.00 Ry     beta= 0.50
     Davidson diagonalization with overlap
     ethr =  3.97E-06,  avg # of iterations = 12.0

     total cpu time spent up to now is        6.0 secs

     total energy              =    -503.35069995 Ry
     estimated scf accuracy    <       0.00229252 Ry

     iteration #  7     ecut=    30.00 Ry     beta= 0.50
     Davidson diagonalization with overlap
     ethr =  8.96E-07,  avg # of iterations = 10.0

     total cpu time spent up to now is        6.2 secs

     total energy              =    -503.35109619 Ry
     estimated scf accuracy    <       0.00031708 Ry

     iteration #  8     ecut=    30.00 Ry     beta= 0.50
     Davidson diagonalization with overlap
     ethr =  1.24E-07,  avg # of iterations =  4.0

     total cpu time spent up to now is        6.3 secs

     total energy              =    -503.35112997 Ry
     estimated scf accuracy    <       0.00014631 Ry

     iteration #  9     ecut=    30.00 Ry     beta= 0.50
     Davidson diagonalization with overlap
     ethr =  5.72E-08,  avg # of iterations =  3.0

     total cpu time spent up to now is        6.5 secs

     total energy              =    -503.35114633 Ry
     estimated scf accuracy    <       0.00002991 Ry

     iteration # 10     ecut=    30.00 Ry     beta= 0.50
     Davidson diagonalization with overlap
     ethr =  1.17E-08,  avg # of iterations =  4.0

     total cpu time spent up to now is        6.6 secs

     total energy              =    -503.35115034 Ry
     estimated scf accuracy    <       0.00000297 Ry

     iteration # 11     ecut=    30.00 Ry     beta= 0.50
     Davidson diagonalization with overlap
     ethr =  1.16E-09,  avg # of iterations =  5.0

     total cpu time spent up to now is        6.7 secs

     End of self-consistent calculation

          k = 0.0000 0.0000 0.0000 ( 13353 PWs)   bands (ev):

    -6.2414  -5.3940  -5.3454  -5.2969  -5.1562  -5.1325  -5.0353  -4.6768
    -4.6356  -4.5142  -4.4462  -4.4039  -4.3573  -4.2953  -4.2731  -4.1816
    -4.1484  -4.1187  -4.0664  -4.0386  -3.9608  -3.8648  -3.5581  -2.7194
    -2.6199  -2.5331  -2.5110  -2.4717  -2.4172  -2.3396  -2.3016  -2.2596
    -2.1870  -2.1740  -2.1575  -2.1329  -2.1034  -1.9885  -1.9680  -1.9150
    -1.8143  -1.5925  -1.3466  -1.2593  -1.2140  -0.3625  -0.3466  -0.2853
    -0.2124  -0.2000  -0.1636  -0.1416  -0.0864  -0.0205  -0.0041   0.0555
     0.1009   1.2570   1.3187   1.3351   1.4042   1.4270   1.4914   1.5046
     1.5437   1.5512   1.5865   1.6304   1.6467   1.6666   1.6994   1.7060
     1.7472   1.7987   1.8157   1.8232   1.8542   1.8646   1.9081   1.9475
     1.9803   1.9953   2.0453   2.1472   2.2054   2.2375   2.2602   2.4457
     2.5077   2.5541   2.5871   2.6583   2.7434   3.2132   3.2732   3.3020
     3.3184   3.3765   3.4022   3.4323   3.5205   3.5480   3.6148   3.6534
     3.6817   3.7018   3.7367   3.7918   3.8098   3.8737   3.8971   3.9445
     3.9762   4.0327   4.0625   4.0700   4.1392   4.1557   4.2077   4.2545
     4.2831   4.3032   4.3294   4.4957   4.9841   5.1389   5.2954   5.5015
     5.6606   5.7781   5.8763   6.0016   6.0165   6.0958   6.1689   6.2062
     6.2293   6.2313   6.3035   6.3556   6.4165   6.4585   6.4814   6.5870
     7.0959   7.1645   7.2634   7.3000   7.3062   7.3494   7.3648   7.3917
     7.4150   7.4611

     the Fermi energy is     5.5405 ev

!    total energy              =    -503.35115110 Ry
     estimated scf accuracy    <       0.00000052 Ry
     smearing contrib. (-TS)   =      -0.06584515 Ry
     internal energy E=F+TS    =    -503.28530595 Ry

     The total energy is F=E-TS. E is the sum of the following terms:
     one-electron contribution =     121.29733193 Ry
     hartree contribution      =      41.46610794 Ry
     xc contribution           =    -150.88157828 Ry
     ewald contribution        =    -515.16716754 Ry

     convergence has been achieved in  11 iterations

     Forces acting on atoms (cartesian axes, Ry/au):

     atom    1 type  1   force =    -0.07856769    0.00866366    0.05134402
     atom    2 type  1   force =    -0.04039825    0.01350832   -0.00202733
     atom    3 type  1   force =     0.03083666   -0.04426055    0.02342896
     atom    4 type  1   force =     0.01858645   -0.03681058    0.07264842
     atom    5 type  1   force =     0.01183959   -0.00407777   -0.02967427
     atom    6 type  1   force =     0.05419099   -0.07458726    0.07253263
     atom    7 type  1   force =    -0.02397888    0.03341464    0.03117991
     atom    8 type  1   force =     0.03670561   -0.03112468    0.01713666
     atom    9 type  1   force =    -0.01696230   -0.00267851   -0.03003663
     atom   10 type  1   force =    -0.04386399    0.08275565    0.09602536
     atom   11 type  1   force =    -0.08693530    0.08394637    0.09010260
     atom   12 type  1   force =    -0.01636857    0.03179088    0.00419190
     atom   13 type  1   force =    -0.00416158   -0.03442736   -0.01931172
     atom   14 type  1   force =     0.03316287   -0.02274654   -0.01753064
     atom   15 type  1   force =    -0.04963230    0.01162326    0.03087198
     atom   16 type  1   force =     0.02135100   -0.00309502    0.03196889
     atom   17 type  1   force =     0.02278068   -0.02822496   -0.00479979
     atom   18 type  1   force =     0.04182061    0.04903910   -0.03984454
     atom   19 type  1   force =    -0.05108815   -0.01013810   -0.00200596
     atom   20 type  1   force =     0.03138983    0.02629330    0.05241243
     atom   21 type  1   force =    -0.05445154    0.01906426   -0.01972598
     atom   22 type  1   force =     0.01047305   -0.01254640   -0.02329798
     atom   23 type  1   force =    -0.00050736   -0.00318265    0.08015506
     atom   24 type  1   force =     0.05623477    0.03761963    0.00143885
     atom   25 type  1   force =    -0.06184927   -0.00957470   -0.00772785
     atom   26 type  1   force =     0.08389773    0.01703954   -0.01272720
     atom   27 type  1   force =    -0.02682755   -0.04828996    0.04436945
     atom   28 type  1   force =    -0.03155796    0.01082226    0.00477322
     atom   29 type  1   force =     0.04034447   -0.02245799   -0.01893329
     atom   30 type  1   force =    -0.00920325   -0.03103212    0.03681492
     atom   31 type  1   force =     0.02971455   -0.00587552    0.02694310
     atom   32 type  1   force =     0.06648131    0.00498351   -0.00613197
     atom   33 type  1   force =    -0.04250223    0.01170003   -0.00663090
     atom   34 type  1   force =    -0.06582625    0.01443766    0.00410385
     atom   35 type  1   force =    -0.01947755    0.03627152   -0.00761687
     atom   36 type  1   force =    -0.04426971   -0.02479120   -0.00199123
     atom   37 type  1   force =    -0.00032841    0.01963036    0.02651944
     atom   38 type  1   force =    -0.04757013    0.01594300   -0.05073848
     atom   39 type  1   force =     0.00299367   -0.01741587    0.00071422
     atom   40 type  1   force =    -0.00850095   -0.00145591   -0.00845323
     atom   41 type  1   force =     0.06679852   -0.02952329   -0.00097629
     atom   42 type  1   force =     0.03943939   -0.02887817   -0.04414469
     atom   43 type  1   force =    -0.00336619    0.03565246    0.00722972
     atom   44 type  1   force =     0.00450144    0.01050963   -0.01215264
     atom   45 type  1   force =     0.00056182    0.02467517    0.04184343
     atom   46 type  1   force =    -0.01301301   -0.01303421    0.00901525
     atom   47 type  1   force =    -0.01446858    0.02646278    0.02957807
     atom   48 type  1   force =     0.06446801    0.00806090    0.00786486
     atom   49 type  1   force =    -0.04147771    0.00515538    0.00118802
     atom   50 type  1   force =    -0.02113704   -0.01756867   -0.02345455
     atom   51 type  1   force =    -0.06009003    0.03376856   -0.05456011
     atom   52 type  1   force =     0.04725845    0.00385214    0.02946535
     atom   53 type  1   force =    -0.01969839   -0.00915023   -0.03914856
     atom   54 type  1   force =     0.12732606   -0.08989645   -0.09861054
     atom   55 type  1   force =     0.01711632   -0.00703685   -0.09527989
     atom   56 type  1   force =     0.01041277   -0.02332535    0.02489196
     atom   57 type  1   force =     0.00319848   -0.05337174   -0.05642137
     atom   58 type  1   force =    -0.06092871   -0.06550461    0.02799309
     atom   59 type  1   force =     0.03016634    0.05751122    0.02622543
     atom   60 type  1   force =     0.06738571   -0.05611130   -0.06626530
     atom   61 type  1   force =    -0.06902807   -0.02410298   -0.04223038
     atom   62 type  1   force =     0.01743825    0.02876151   -0.04773138
     atom   63 type  1   force =     0.05662951    0.08048340   -0.07277387
     atom   64 type  1   force =    -0.01746801    0.04285733   -0.04201562

     Total force =     0.557557     Total SCF correction =     0.001138


     Computing stress (Cartesian axis) and pressure

          total   stress  (Ry/bohr**3)                   (kbar)     P=      -44.70
  -0.00031992  -0.00007762  -0.00003746          -47.06      -11.42       -5.51
  -0.00007762  -0.00025925   0.00001319          -11.42      -38.14        1.94
  -0.00003746   0.00001319  -0.00033240           -5.51        1.94      -48.90

 
     init_run     :      0.96s CPU      4.86s WALL (       1 calls)
     electrons    :      1.69s CPU      1.81s WALL (       1 calls)
     forces       :      0.04s CPU      0.05s WALL (       1 calls)
     stress       :      0.18s CPU      0.18s WALL (       1 calls)

     Called by init_run:
     wfcinit      :      0.54s CPU      4.26s WALL (       1 calls)
                                        4.26s GPU  (       1 calls)
     potinit      :      0.21s CPU      0.30s WALL (       1 calls)
     hinit0       :      0.19s CPU      0.22s WALL (       1 calls)

     Called by electrons:
     c_bands      :      1.09s CPU      1.15s WALL (      12 calls)
     sum_band     :      0.32s CPU      0.35s WALL (      12 calls)
     v_of_rho     :      0.15s CPU      0.24s WALL (      12 calls)
     mix_rho      :      0.11s CPU      0.13s WALL (      12 calls)

     Called by c_bands:
     init_us_2    :      0.04s CPU      0.05s WALL (      25 calls)
     init_us_2:gp :      0.04s CPU      0.05s WALL (      25 calls)
     regterg      :      0.98s CPU      1.03s WALL (      12 calls)

     Called by *egterg:
     rdiaghg      :      0.38s CPU      1.14s WALL (      81 calls)
                                        1.12s GPU  (      81 calls)
     h_psi        :      0.97s CPU      3.97s WALL (      83 calls)
                                        3.96s GPU  (      83 calls)
     g_psi        :      0.00s CPU      0.00s WALL (      70 calls)
                                        0.00s GPU  (      70 calls)

     Called by h_psi:
     h_psi:calbec :      0.48s CPU      3.39s WALL (      83 calls)
                                        3.39s GPU  (      83 calls)
     vloc_psi     :      0.45s CPU      0.52s WALL (      83 calls)
                                        0.52s GPU  (      83 calls)
     add_vuspsi   :      0.03s CPU      0.05s WALL (      83 calls)
                                        0.05s GPU  (      83 calls)

     General routines
     calbec       :      0.49s CPU      3.39s WALL (      88 calls)
     fft          :      0.29s CPU      0.41s WALL (     103 calls)
                                        0.12s GPU  (      66 calls)
     ffts         :      0.05s CPU      0.05s WALL (      12 calls)
     fftw         :      0.48s CPU      0.65s WALL (    1334 calls)
                                        0.59s GPU  (    1334 calls)
 
     Parallel routines
 
     PWSCF        :      2.91s CPU      6.99s WALL

 
   This run was terminated on:  11:16:47  10May2023            

=------------------------------------------------------------------------------=
   JOB DONE.
=------------------------------------------------------------------------------=
