An instance of this daemon is already running
An instance of this daemon is already running

     Program PWSCF v.7.1 starts on 10May2023 at 11:15:25 

     This program is part of the open-source Quantum ESPRESSO suite
     for quantum simulation of materials; please cite
         "P. Giannozzi et al., J. Phys.:Condens. Matter 21 395502 (2009);
         "P. Giannozzi et al., J. Phys.:Condens. Matter 29 465901 (2017);
         "P. Giannozzi et al., J. Chem. Phys. 152 154105 (2020);
          URL http://www.quantum-espresso.org", 
     in publications or presentations arising from this work. More details at
     http://www.quantum-espresso.org/quote

     Parallel version (MPI & OpenMP), running on       4 processor cores
     Number of MPI processes:                 4
     Threads/MPI process:                     1

     MPI processes distributed on     1 nodes
     753557 MiB available memory on the printing compute node when the environment starts
 
     Reading input from pw-si-31.in
Warning: card &CELL ignored
Warning: card / ignored

     Current dimensions of program PWSCF are:
     Max number of different atomic species (ntypx) = 10
     Max number of k-points (npk) =  40000
     Max angular momentum in pseudopotentials (lmaxx) =  4

     IMPORTANT: XC functional enforced from input :
     Exchange-correlation= PBE
                           (   1   4   3   4   0   0   0)
     Any further DFT definition will be discarded
     Please, verify this is what you really want


     gamma-point specific algorithms are used
 
     K-points division:     npool     =       2
     R & G space division:  proc/nbgrp/npool/nimage =       2
     Subspace diagonalization in iterative solution of the eigenvalue problem:
     a serial algorithm will be used

     Message from routine divide_et_impera:
     suboptimal parallelization: some nodes have no k-points
 
     Parallelization info
     --------------------
     sticks:   dense  smooth     PW     G-vecs:    dense   smooth      PW
     Min        2057    2057    543               100321   100321   13623
     Max        2058    2058    546               100322   100322   13626
     Sum        4115    4115   1089               200643   200643   27249
 
     Using Slab Decomposition
 


     bravais-lattice index     =            0
     lattice parameter (alat)  =      21.1148  a.u.
     unit-cell volume          =    9041.9854 (a.u.)^3
     number of atoms/cell      =           64
     number of atomic types    =            1
     number of electrons       =       256.00
     number of Kohn-Sham states=          154
     kinetic-energy cutoff     =      30.0000  Ry
     charge density cutoff     =     120.0000  Ry
     scf convergence threshold =      1.0E-06
     mixing beta               =       0.5000
     number of iterations used =            8  plain     mixing
     Exchange-correlation= PBE
                           (   1   4   3   4   0   0   0)

     GPU acceleration is ACTIVE.
     GPU-aware MPI enabled

     Message from routine print_cuda_info:
     High GPU oversubscription detected. Are you sure this is what you want?

     celldm(1)=  21.114843  celldm(2)=   0.000000  celldm(3)=   0.000000
     celldm(4)=   0.000000  celldm(5)=   0.000000  celldm(6)=   0.000000

     crystal axes: (cart. coord. in units of alat)
               a(1) = (   1.000000   0.000000   0.000000 )  
               a(2) = (   0.000000   0.966274   0.000000 )  
               a(3) = (   0.000000   0.000000   0.994031 )  

     reciprocal axes: (cart. coord. in units 2 pi/alat)
               b(1) = (  1.000000  0.000000  0.000000 )  
               b(2) = (  0.000000  1.034903  0.000000 )  
               b(3) = (  0.000000  0.000000  1.006005 )  


     PseudoPot. # 1 for Si read from file:
     /home/ppiaggi/pseudos/Si_ONCV_PBE_sr.upf
     MD5 check sum: 8553c464762ac42b85b1eed164b4d029
     Pseudo is Norm-conserving, Zval =  4.0
     Generated using ONCVPSP code by D. R. Hamann
     Using radial grid of 1510 points,  4 beta functions with: 
                l(1) =   0
                l(2) =   0
                l(3) =   1
                l(4) =   1

     atomic species   valence    mass     pseudopotential
        Si             4.00    28.08500     Si( 1.00)

     No symmetry found



   Cartesian axes

     site n.     atom                  positions (alat units)
         1           Si  tau(   1) = (   0.0015172  -0.0086855  -0.0018214  )
         2           Si  tau(   2) = (  -0.0034643   0.2478413   0.2542691  )
         3           Si  tau(   3) = (   0.2452133   0.0007736   0.2551365  )
         4           Si  tau(   4) = (   0.2484929   0.2418651  -0.0031242  )
         5           Si  tau(   5) = (   0.1263963   0.1227743   0.1175664  )
         6           Si  tau(   6) = (   0.4835618  -0.0087585  -0.0050464  )
         7           Si  tau(   7) = (   0.4996004   0.2510760   0.2417552  )
         8           Si  tau(   8) = (   0.6205337   0.1229850   0.1222466  )
         9           Si  tau(   9) = (   0.7299648   0.0003197   0.2475960  )
        10           Si  tau(  10) = (   0.7295458   0.2506779   0.0001903  )
        11           Si  tau(  11) = (  -0.0088769   0.4896842  -0.0084845  )
        12           Si  tau(  12) = (   0.2463968   0.4776927   0.2449201  )
        13           Si  tau(  13) = (   0.1265389   0.6053847   0.1260254  )
        14           Si  tau(  14) = (   0.3608299   0.3674093   0.1302904  )
        15           Si  tau(  15) = (   0.4953776   0.4778066  -0.0011827  )
        16           Si  tau(  16) = (   0.6214556   0.6141900   0.1264070  )
        17           Si  tau(  17) = (   0.8684082   0.3638242   0.1253347  )
        18           Si  tau(  18) = (   0.7404847   0.4889604   0.2520511  )
        19           Si  tau(  19) = (   0.0087578   0.7369808   0.2412392  )
        20           Si  tau(  20) = (   0.2437758   0.7271405  -0.0078828  )
        21           Si  tau(  21) = (   0.3774536   0.8439516   0.1279791  )
        22           Si  tau(  22) = (   0.4889185   0.7348703   0.2420955  )
        23           Si  tau(  23) = (   0.7288934   0.7278076  -0.0015842  )
        24           Si  tau(  24) = (   0.8587709   0.8539623   0.1166021  )
        25           Si  tau(  25) = (   0.0048941   0.0023081   0.4997886  )
        26           Si  tau(  26) = (   0.2397009   0.2448548   0.4916453  )
        27           Si  tau(  27) = (   0.1265374   0.1146373   0.6101609  )
        28           Si  tau(  28) = (   0.3700478   0.1300565   0.3738710  )
        29           Si  tau(  29) = (   0.4922675   0.0039161   0.4962254  )
        30           Si  tau(  30) = (   0.6074870   0.1239941   0.6119154  )
        31           Si  tau(  31) = (   0.8527317   0.1155637   0.3634946  )
        32           Si  tau(  32) = (   0.7418853   0.2378769   0.5026350  )
        33           Si  tau(  33) = (   0.1251429   0.3642818   0.3744196  )
        34           Si  tau(  34) = (   0.0074753   0.4852237   0.4979563  )
        35           Si  tau(  35) = (   0.1314004   0.6099903   0.6107957  )
        36           Si  tau(  36) = (   0.6209173   0.3568190   0.3797565  )
        37           Si  tau(  37) = (   0.3760049   0.6149637   0.3776677  )
        38           Si  tau(  38) = (   0.3606157   0.3657492   0.6167865  )
        39           Si  tau(  39) = (   0.4924912   0.4796022   0.4939723  )
        40           Si  tau(  40) = (   0.6069824   0.6119876   0.6213796  )
        41           Si  tau(  41) = (   0.8656901   0.6134581   0.3773281  )
        42           Si  tau(  42) = (   0.8646379   0.3713860   0.6275312  )
        43           Si  tau(  43) = (   0.1268754   0.8571105   0.3729858  )
        44           Si  tau(  44) = (   0.2508588   0.7316628   0.4998105  )
        45           Si  tau(  45) = (   0.6185031   0.8578508   0.3716756  )
        46           Si  tau(  46) = (   0.3617941   0.8546996   0.6221700  )
        47           Si  tau(  47) = (   0.7430457   0.7337820   0.4887963  )
        48           Si  tau(  48) = (   0.8679607   0.8484113   0.6166406  )
        49           Si  tau(  49) = (  -0.0074298   0.2442356   0.7494219  )
        50           Si  tau(  50) = (   0.2415204  -0.0069143   0.7395259  )
        51           Si  tau(  51) = (   0.3757853   0.1248520   0.8746727  )
        52           Si  tau(  52) = (   0.4833329   0.2471950   0.7422573  )
        53           Si  tau(  53) = (   0.7361890  -0.0020154   0.7495869  )
        54           Si  tau(  54) = (   0.8594674   0.1128011   0.8631859  )
        55           Si  tau(  55) = (   0.1177894   0.3734395   0.8741423  )
        56           Si  tau(  56) = (   0.2435842   0.4888286   0.7517505  )
        57           Si  tau(  57) = (   0.6074547   0.3675665   0.8603608  )
        58           Si  tau(  58) = (   0.3720383   0.6023369   0.8746421  )
        59           Si  tau(  59) = (   0.7307879   0.4777231   0.7474202  )
        60           Si  tau(  60) = (   0.8611773   0.6131464   0.8735814  )
        61           Si  tau(  61) = (   0.0078620   0.7369747   0.7394314  )
        62           Si  tau(  62) = (   0.1157642   0.8555399   0.8671921  )
        63           Si  tau(  63) = (   0.4883992   0.7317599   0.7402180  )
        64           Si  tau(  64) = (   0.6200418   0.8491453   0.8606936  )

     number of k points=     1  Fermi-Dirac smearing, width (Ry)=  0.0100
                       cart. coord. in units 2pi/alat
        k(    1) = (   0.0000000   0.0000000   0.0000000), wk =   2.0000000

     Dense  grid:   100322 G-vectors     FFT dimensions: (  75,  72,  75)

     Estimated max dynamical RAM per process >     160.66 MB

     Estimated total dynamical RAM >     618.16 MB

     Initial potential from superposition of free atoms

     starting charge     255.9608, renormalised to     256.0000
     Starting wfcs are  256 randomized atomic wfcs

     total cpu time spent up to now is        5.1 secs

     Self-consistent Calculation

     iteration #  1     ecut=    30.00 Ry     beta= 0.50
     Davidson diagonalization with overlap
     ethr =  1.00E-02,  avg # of iterations =  3.0

     Threshold (ethr) on eigenvalues was too large:
     Diagonalizing with lowered threshold

     Davidson diagonalization with overlap
     ethr =  6.38E-04,  avg # of iterations =  4.0

     total cpu time spent up to now is        5.4 secs

     total energy              =    -503.56917311 Ry
     estimated scf accuracy    <       1.81266608 Ry

     iteration #  2     ecut=    30.00 Ry     beta= 0.50
     Davidson diagonalization with overlap
     ethr =  7.08E-04,  avg # of iterations =  1.0

     total cpu time spent up to now is        5.5 secs

     total energy              =    -503.56091429 Ry
     estimated scf accuracy    <       0.33730174 Ry

     iteration #  3     ecut=    30.00 Ry     beta= 0.50
     Davidson diagonalization with overlap
     ethr =  1.32E-04,  avg # of iterations = 17.0

     total cpu time spent up to now is        5.7 secs

     total energy              =    -503.56859591 Ry
     estimated scf accuracy    <       0.09850650 Ry

     iteration #  4     ecut=    30.00 Ry     beta= 0.50
     Davidson diagonalization with overlap
     ethr =  3.85E-05,  avg # of iterations =  6.0

     total cpu time spent up to now is        5.9 secs

     total energy              =    -503.58773907 Ry
     estimated scf accuracy    <       0.01931708 Ry

     iteration #  5     ecut=    30.00 Ry     beta= 0.50
     Davidson diagonalization with overlap
     ethr =  7.55E-06,  avg # of iterations = 14.0

     total cpu time spent up to now is        6.0 secs

     total energy              =    -503.58998231 Ry
     estimated scf accuracy    <       0.00282092 Ry

     iteration #  6     ecut=    30.00 Ry     beta= 0.50
     Davidson diagonalization with overlap
     ethr =  1.10E-06,  avg # of iterations =  4.0

     total cpu time spent up to now is        6.2 secs

     total energy              =    -503.59056610 Ry
     estimated scf accuracy    <       0.00060197 Ry

     iteration #  7     ecut=    30.00 Ry     beta= 0.50
     Davidson diagonalization with overlap
     ethr =  2.35E-07,  avg # of iterations =  4.0

     total cpu time spent up to now is        6.3 secs

     total energy              =    -503.59061925 Ry
     estimated scf accuracy    <       0.00027862 Ry

     iteration #  8     ecut=    30.00 Ry     beta= 0.50
     Davidson diagonalization with overlap
     ethr =  1.09E-07,  avg # of iterations =  3.0

     total cpu time spent up to now is        6.4 secs

     total energy              =    -503.59066303 Ry
     estimated scf accuracy    <       0.00001904 Ry

     iteration #  9     ecut=    30.00 Ry     beta= 0.50
     Davidson diagonalization with overlap
     ethr =  7.44E-09,  avg # of iterations =  5.0

     total cpu time spent up to now is        6.6 secs

     total energy              =    -503.59066827 Ry
     estimated scf accuracy    <       0.00000266 Ry

     iteration # 10     ecut=    30.00 Ry     beta= 0.50
     Davidson diagonalization with overlap
     ethr =  1.04E-09,  avg # of iterations =  4.0

     total cpu time spent up to now is        6.7 secs

     End of self-consistent calculation

          k = 0.0000 0.0000 0.0000 ( 12544 PWs)   bands (ev):

    -5.9634  -5.1008  -5.0307  -4.9779  -4.9009  -4.7801  -4.7311  -4.2934
    -4.2168  -4.1261  -4.0865  -4.0583  -3.9942  -3.9610  -3.9181  -3.8759
    -3.8470  -3.8058  -3.7340  -3.6715  -3.6208  -3.5727  -3.3490  -2.2049
    -2.1710  -2.1193  -2.0394  -1.9638  -1.9469  -1.9330  -1.8918  -1.7968
    -1.7844  -1.7327  -1.7278  -1.6974  -1.6451  -1.5818  -1.5663  -1.4914
    -1.4290  -1.0476  -1.0114  -0.9652  -0.8254   0.1277   0.2064   0.2381
     0.3198   0.3298   0.3711   0.3780   0.4179   0.4483   0.4746   0.5180
     0.5903   1.7897   1.8578   1.8927   1.9290   1.9417   1.9511   1.9763
     2.0004   2.0239   2.0497   2.0730   2.0855   2.0877   2.1198   2.1343
     2.1687   2.1856   2.1972   2.2052   2.2450   2.2730   2.2936   2.3172
     2.3588   2.3880   2.4372   2.4602   2.5813   2.5957   2.6324   2.8439
     2.9423   3.0731   3.1062   3.1351   3.1924   3.5905   3.7614   3.8157
     3.8763   3.9102   3.9737   3.9915   4.0261   4.0662   4.0740   4.1286
     4.1984   4.2539   4.3050   4.3606   4.3815   4.4140   4.4479   4.4821
     4.4900   4.5195   4.5869   4.6008   4.6149   4.6684   4.7241   4.7654
     4.8095   4.8492   4.8790   4.9349   5.2860   5.7215   5.9075   5.9952
     6.2107   6.3422   6.4658   6.5563   6.6036   6.6580   6.7260   6.8008
     6.9144   6.9633   6.9854   7.0337   7.0884   7.1109   7.1216   7.1739
     7.7319   7.8996   7.9286   8.0192   8.0516   8.0958   8.1226   8.1569
     8.1811   8.2085

     the Fermi energy is     6.0940 ev

!    total energy              =    -503.59066853 Ry
     estimated scf accuracy    <       0.00000094 Ry
     smearing contrib. (-TS)   =      -0.06238598 Ry
     internal energy E=F+TS    =    -503.52828255 Ry

     The total energy is F=E-TS. E is the sum of the following terms:
     one-electron contribution =     138.52038249 Ry
     hartree contribution      =      38.31697966 Ry
     xc contribution           =    -152.82950762 Ry
     ewald contribution        =    -527.53613708 Ry

     convergence has been achieved in  10 iterations

     Forces acting on atoms (cartesian axes, Ry/au):

     atom    1 type  1   force =    -0.06529410    0.07331060    0.02417263
     atom    2 type  1   force =    -0.02125923   -0.03788903   -0.03348976
     atom    3 type  1   force =     0.04345510    0.03966696   -0.05339124
     atom    4 type  1   force =    -0.01592435    0.03045186    0.00898147
     atom    5 type  1   force =    -0.02763623   -0.01102414    0.03649868
     atom    6 type  1   force =     0.07048047    0.03440414    0.01193244
     atom    7 type  1   force =    -0.01902417   -0.02663147    0.02568536
     atom    8 type  1   force =    -0.05296174   -0.00730455   -0.02242361
     atom    9 type  1   force =     0.04487139    0.01231909   -0.04649925
     atom   10 type  1   force =     0.05109865   -0.02185199   -0.02601486
     atom   11 type  1   force =    -0.01387784    0.00981368    0.06155485
     atom   12 type  1   force =    -0.02224490    0.07773604    0.06342864
     atom   13 type  1   force =    -0.02032346   -0.00140366   -0.03491015
     atom   14 type  1   force =     0.06446763   -0.04502417   -0.06485814
     atom   15 type  1   force =    -0.01347786    0.04049502    0.04167102
     atom   16 type  1   force =    -0.04332594   -0.04959974    0.00865396
     atom   17 type  1   force =    -0.00427400    0.02199961   -0.00952770
     atom   18 type  1   force =     0.01962144   -0.01042374    0.00764077
     atom   19 type  1   force =    -0.06054644   -0.00960344    0.02138477
     atom   20 type  1   force =     0.00978614    0.00652332    0.03413368
     atom   21 type  1   force =    -0.10961186    0.03895609   -0.04822098
     atom   22 type  1   force =     0.07585863   -0.05151908    0.07061527
     atom   23 type  1   force =     0.05240661    0.02439693   -0.01282455
     atom   24 type  1   force =     0.02540998   -0.02929057    0.02027686
     atom   25 type  1   force =    -0.08769873   -0.01642977   -0.04895902
     atom   26 type  1   force =     0.02921459   -0.01630987    0.02330026
     atom   27 type  1   force =    -0.01001313    0.05970675    0.06501321
     atom   28 type  1   force =     0.01333504   -0.00573660   -0.02651362
     atom   29 type  1   force =    -0.03070794   -0.00459200   -0.01379519
     atom   30 type  1   force =     0.02709266    0.00312953    0.07117491
     atom   31 type  1   force =     0.07646556    0.03413789    0.04972287
     atom   32 type  1   force =     0.02607041    0.01232619   -0.01363878
     atom   33 type  1   force =    -0.02733230    0.01056660   -0.02152544
     atom   34 type  1   force =    -0.06412057    0.01494065    0.00153968
     atom   35 type  1   force =    -0.02234544   -0.00762079    0.05929108
     atom   36 type  1   force =     0.00187871    0.03057744   -0.02795766
     atom   37 type  1   force =    -0.01703372   -0.03652302   -0.03560695
     atom   38 type  1   force =    -0.00678274    0.00940291    0.01670990
     atom   39 type  1   force =     0.00247455    0.02138145    0.01453445
     atom   40 type  1   force =     0.04204534   -0.02633389   -0.02688287
     atom   41 type  1   force =     0.05916223   -0.02199097   -0.03920206
     atom   42 type  1   force =     0.02872492   -0.02987789   -0.02353583
     atom   43 type  1   force =    -0.02309417   -0.05057666    0.02090353
     atom   44 type  1   force =    -0.00649582    0.01330003   -0.03993815
     atom   45 type  1   force =    -0.04288546   -0.05114055    0.00973028
     atom   46 type  1   force =     0.05633215   -0.02940281   -0.02319018
     atom   47 type  1   force =    -0.02429970   -0.00808672    0.04162974
     atom   48 type  1   force =     0.01303287    0.01257058    0.01862041
     atom   49 type  1   force =     0.00533249   -0.01571054   -0.01875483
     atom   50 type  1   force =    -0.00255422    0.07940181    0.04746361
     atom   51 type  1   force =    -0.04221293   -0.02198286   -0.04216068
     atom   52 type  1   force =     0.01733398   -0.01711660   -0.02118240
     atom   53 type  1   force =     0.02043519    0.02738645   -0.08962439
     atom   54 type  1   force =     0.03846476    0.05176420    0.05214654
     atom   55 type  1   force =     0.00712035   -0.04794316   -0.02076320
     atom   56 type  1   force =     0.00475545   -0.00065736   -0.03430959
     atom   57 type  1   force =     0.00067919   -0.04371300    0.03494340
     atom   58 type  1   force =     0.00396626    0.02127921   -0.02220867
     atom   59 type  1   force =     0.03665392    0.08494946   -0.02103871
     atom   60 type  1   force =     0.01402517   -0.00938201   -0.04448803
     atom   61 type  1   force =    -0.06220025   -0.04579407   -0.01300384
     atom   62 type  1   force =     0.04926901   -0.04896943   -0.00970075
     atom   63 type  1   force =    -0.00850355   -0.00545039    0.02627315
     atom   64 type  1   force =    -0.06325805   -0.03398795    0.04051367

     Total force =     0.518694     Total SCF correction =     0.001791


     Computing stress (Cartesian axis) and pressure

          total   stress  (Ry/bohr**3)                   (kbar)     P=       -3.07
  -0.00008239  -0.00000411  -0.00007123          -12.12       -0.61      -10.48
  -0.00000411   0.00005913  -0.00000033           -0.61        8.70       -0.05
  -0.00007123  -0.00000033  -0.00003931          -10.48       -0.05       -5.78

 
     init_run     :      1.23s CPU      5.06s WALL (       1 calls)
     electrons    :      1.43s CPU      1.54s WALL (       1 calls)
     forces       :      0.04s CPU      0.05s WALL (       1 calls)
     stress       :      0.17s CPU      0.17s WALL (       1 calls)

     Called by init_run:
     wfcinit      :      0.58s CPU      4.24s WALL (       1 calls)
                                        4.24s GPU  (       1 calls)
     potinit      :      0.21s CPU      0.30s WALL (       1 calls)
     hinit0       :      0.41s CPU      0.45s WALL (       1 calls)

     Called by electrons:
     c_bands      :      0.94s CPU      0.98s WALL (      11 calls)
     sum_band     :      0.26s CPU      0.29s WALL (      11 calls)
     v_of_rho     :      0.13s CPU      0.24s WALL (      11 calls)
     mix_rho      :      0.09s CPU      0.10s WALL (      11 calls)

     Called by c_bands:
     init_us_2    :      0.04s CPU      0.04s WALL (      23 calls)
     init_us_2:gp :      0.04s CPU      0.04s WALL (      23 calls)
     regterg      :      0.84s CPU      0.88s WALL (      11 calls)

     Called by *egterg:
     rdiaghg      :      0.36s CPU      1.11s WALL (      75 calls)
                                        1.09s GPU  (      75 calls)
     h_psi        :      0.91s CPU      3.84s WALL (      77 calls)
                                        3.84s GPU  (      77 calls)
     g_psi        :      0.00s CPU      0.00s WALL (      65 calls)
                                        0.00s GPU  (      65 calls)

     Called by h_psi:
     h_psi:calbec :      0.51s CPU      3.37s WALL (      77 calls)
                                        3.37s GPU  (      77 calls)
     vloc_psi     :      0.35s CPU      0.42s WALL (      77 calls)
                                        0.42s GPU  (      77 calls)
     add_vuspsi   :      0.03s CPU      0.04s WALL (      77 calls)
                                        0.04s GPU  (      77 calls)

     General routines
     calbec       :      0.52s CPU      3.38s WALL (      82 calls)
     fft          :      0.49s CPU      0.62s WALL (      95 calls)
                                        0.13s GPU  (      61 calls)
     ffts         :      0.04s CPU      0.04s WALL (      11 calls)
     fftw         :      0.39s CPU      0.52s WALL (    1225 calls)
                                        0.47s GPU  (    1225 calls)
 
     Parallel routines
 
     PWSCF        :      2.91s CPU      6.90s WALL

 
   This run was terminated on:  11:15:32  10May2023            

=------------------------------------------------------------------------------=
   JOB DONE.
=------------------------------------------------------------------------------=
