An instance of this daemon is already running
An instance of this daemon is already running

     Program PWSCF v.7.1 starts on 10May2023 at 11:25: 5 

     This program is part of the open-source Quantum ESPRESSO suite
     for quantum simulation of materials; please cite
         "P. Giannozzi et al., J. Phys.:Condens. Matter 21 395502 (2009);
         "P. Giannozzi et al., J. Phys.:Condens. Matter 29 465901 (2017);
         "P. Giannozzi et al., J. Chem. Phys. 152 154105 (2020);
          URL http://www.quantum-espresso.org", 
     in publications or presentations arising from this work. More details at
     http://www.quantum-espresso.org/quote

     Parallel version (MPI & OpenMP), running on       4 processor cores
     Number of MPI processes:                 4
     Threads/MPI process:                     1

     MPI processes distributed on     1 nodes
     753549 MiB available memory on the printing compute node when the environment starts
 
     Reading input from pw-si-93.in
Warning: card &CELL ignored
Warning: card / ignored

     Current dimensions of program PWSCF are:
     Max number of different atomic species (ntypx) = 10
     Max number of k-points (npk) =  40000
     Max angular momentum in pseudopotentials (lmaxx) =  4

     IMPORTANT: XC functional enforced from input :
     Exchange-correlation= PBE
                           (   1   4   3   4   0   0   0)
     Any further DFT definition will be discarded
     Please, verify this is what you really want


     gamma-point specific algorithms are used
 
     K-points division:     npool     =       2
     R & G space division:  proc/nbgrp/npool/nimage =       2
     Subspace diagonalization in iterative solution of the eigenvalue problem:
     a serial algorithm will be used

     Message from routine divide_et_impera:
     suboptimal parallelization: some nodes have no k-points
 
     Parallelization info
     --------------------
     sticks:   dense  smooth     PW     G-vecs:    dense   smooth      PW
     Min        1999    1999    528                96567    96567   13097
     Max        2002    2002    529                96574    96574   13100
     Sum        4001    4001   1057               193141   193141   26197
 
     Using Slab Decomposition
 


     bravais-lattice index     =            0
     lattice parameter (alat)  =      20.5340  a.u.
     unit-cell volume          =    8700.0005 (a.u.)^3
     number of atoms/cell      =           64
     number of atomic types    =            1
     number of electrons       =       256.00
     number of Kohn-Sham states=          154
     kinetic-energy cutoff     =      30.0000  Ry
     charge density cutoff     =     120.0000  Ry
     scf convergence threshold =      1.0E-06
     mixing beta               =       0.5000
     number of iterations used =            8  plain     mixing
     Exchange-correlation= PBE
                           (   1   4   3   4   0   0   0)

     GPU acceleration is ACTIVE.
     GPU-aware MPI enabled

     Message from routine print_cuda_info:
     High GPU oversubscription detected. Are you sure this is what you want?

     celldm(1)=  20.533991  celldm(2)=   0.000000  celldm(3)=   0.000000
     celldm(4)=   0.000000  celldm(5)=   0.000000  celldm(6)=   0.000000

     crystal axes: (cart. coord. in units of alat)
               a(1) = (   1.000000   0.000000   0.000000 )  
               a(2) = (   0.000000   0.994097   0.000000 )  
               a(3) = (   0.000000   0.000000   1.010812 )  

     reciprocal axes: (cart. coord. in units 2 pi/alat)
               b(1) = (  1.000000  0.000000  0.000000 )  
               b(2) = (  0.000000  1.005938  0.000000 )  
               b(3) = (  0.000000  0.000000  0.989304 )  


     PseudoPot. # 1 for Si read from file:
     /home/ppiaggi/pseudos/Si_ONCV_PBE_sr.upf
     MD5 check sum: 8553c464762ac42b85b1eed164b4d029
     Pseudo is Norm-conserving, Zval =  4.0
     Generated using ONCVPSP code by D. R. Hamann
     Using radial grid of 1510 points,  4 beta functions with: 
                l(1) =   0
                l(2) =   0
                l(3) =   1
                l(4) =   1

     atomic species   valence    mass     pseudopotential
        Si             4.00    28.08500     Si( 1.00)

     No symmetry found



   Cartesian axes

     site n.     atom                  positions (alat units)
         1           Si  tau(   1) = (  -0.0045394   0.0090677  -0.0043219  )
         2           Si  tau(   2) = (  -0.0002257   0.2595463   0.2515542  )
         3           Si  tau(   3) = (   0.2496854  -0.0076218   0.2643140  )
         4           Si  tau(   4) = (   0.2464263   0.2567425   0.0023892  )
         5           Si  tau(   5) = (   0.1205121   0.1295342   0.1255897  )
         6           Si  tau(   6) = (   0.5038123   0.0033432  -0.0057248  )
         7           Si  tau(   7) = (   0.4935492   0.2570372   0.2573586  )
         8           Si  tau(   8) = (   0.6309957   0.1216708   0.1210686  )
         9           Si  tau(   9) = (   0.7512303  -0.0065364   0.2618751  )
        10           Si  tau(  10) = (   0.7494628   0.2510111  -0.0045157  )
        11           Si  tau(  11) = (   0.0007655   0.5061965   0.0063781  )
        12           Si  tau(  12) = (   0.2468334   0.5026558   0.2588827  )
        13           Si  tau(  13) = (   0.1302840   0.6187064   0.1199415  )
        14           Si  tau(  14) = (   0.3792312   0.3742436   0.1215415  )
        15           Si  tau(  15) = (   0.5007786   0.4930348   0.0068868  )
        16           Si  tau(  16) = (   0.6230938   0.6219641   0.1362707  )
        17           Si  tau(  17) = (   0.8798930   0.3681294   0.1339196  )
        18           Si  tau(  18) = (   0.7516970   0.5074050   0.2532487  )
        19           Si  tau(  19) = (  -0.0038580   0.7486675   0.2560670  )
        20           Si  tau(  20) = (   0.2466152   0.7509360  -0.0042008  )
        21           Si  tau(  21) = (   0.3745909   0.8793223   0.1373198  )
        22           Si  tau(  22) = (   0.5016477   0.7536623   0.2646532  )
        23           Si  tau(  23) = (   0.7460538   0.7459099   0.0016907  )
        24           Si  tau(  24) = (   0.8630064   0.8730496   0.1312629  )
        25           Si  tau(  25) = (   0.0012276  -0.0068059   0.5220452  )
        26           Si  tau(  26) = (   0.2408532   0.2430268   0.5062081  )
        27           Si  tau(  27) = (   0.1301888   0.1196402   0.6459837  )
        28           Si  tau(  28) = (   0.3687744   0.1339962   0.3892664  )
        29           Si  tau(  29) = (   0.4893917   0.0017105   0.5059660  )
        30           Si  tau(  30) = (   0.6271529   0.1283298   0.6502567  )
        31           Si  tau(  31) = (   0.8726516   0.1167192   0.3793749  )
        32           Si  tau(  32) = (   0.7513872   0.2527578   0.5152260  )
        33           Si  tau(  33) = (   0.1233173   0.3758932   0.3913856  )
        34           Si  tau(  34) = (   0.0047233   0.5002382   0.5144204  )
        35           Si  tau(  35) = (   0.1322071   0.6305892   0.6435740  )
        36           Si  tau(  36) = (   0.6188532   0.3786280   0.3823716  )
        37           Si  tau(  37) = (   0.3691073   0.6193043   0.3767592  )
        38           Si  tau(  38) = (   0.3680079   0.3731056   0.6322703  )
        39           Si  tau(  39) = (   0.4956031   0.5041045   0.5134184  )
        40           Si  tau(  40) = (   0.6138768   0.6223966   0.6410171  )
        41           Si  tau(  41) = (   0.8714221   0.6279199   0.3937313  )
        42           Si  tau(  42) = (   0.8737909   0.3735583   0.6477976  )
        43           Si  tau(  43) = (   0.1255575   0.8792161   0.3765221  )
        44           Si  tau(  44) = (   0.2579624   0.7451423   0.5073178  )
        45           Si  tau(  45) = (   0.6278518   0.8746890   0.3866442  )
        46           Si  tau(  46) = (   0.3761189   0.8804415   0.6488748  )
        47           Si  tau(  47) = (   0.7494094   0.7563535   0.5109644  )
        48           Si  tau(  48) = (   0.8789318   0.8733801   0.6500989  )
        49           Si  tau(  49) = (  -0.0033284   0.2519291   0.7644419  )
        50           Si  tau(  50) = (   0.2434201  -0.0028003   0.7683896  )
        51           Si  tau(  51) = (   0.3681936   0.1237671   0.9022893  )
        52           Si  tau(  52) = (   0.5011768   0.2538112   0.7688396  )
        53           Si  tau(  53) = (   0.7432859  -0.0043788   0.7711835  )
        54           Si  tau(  54) = (   0.8760981   0.1343815   0.8922470  )
        55           Si  tau(  55) = (   0.1283445   0.3699430   0.8988168  )
        56           Si  tau(  56) = (   0.2424606   0.5087182   0.7634736  )
        57           Si  tau(  57) = (   0.6296973   0.3854912   0.8887969  )
        58           Si  tau(  58) = (   0.3745369   0.6343175   0.8903902  )
        59           Si  tau(  59) = (   0.7394763   0.5038327   0.7609023  )
        60           Si  tau(  60) = (   0.8795777   0.6200541   0.8898175  )
        61           Si  tau(  61) = (  -0.0056274   0.7444202   0.7691681  )
        62           Si  tau(  62) = (   0.1323599   0.8757616   0.9060086  )
        63           Si  tau(  63) = (   0.5006960   0.7459603   0.7755094  )
        64           Si  tau(  64) = (   0.6271443   0.8818150   0.8931289  )

     number of k points=     1  Fermi-Dirac smearing, width (Ry)=  0.0100
                       cart. coord. in units 2pi/alat
        k(    1) = (   0.0000000   0.0000000   0.0000000), wk =   2.0000000

     Dense  grid:    96571 G-vectors     FFT dimensions: (  72,  72,  75)

     Estimated max dynamical RAM per process >     154.68 MB

     Estimated total dynamical RAM >     595.16 MB

     Initial potential from superposition of free atoms

     starting charge     255.9608, renormalised to     256.0000
     Starting wfcs are  256 randomized atomic wfcs

     total cpu time spent up to now is        5.2 secs

     Self-consistent Calculation

     iteration #  1     ecut=    30.00 Ry     beta= 0.50
     Davidson diagonalization with overlap
     ethr =  1.00E-02,  avg # of iterations =  3.0

     Threshold (ethr) on eigenvalues was too large:
     Diagonalizing with lowered threshold

     Davidson diagonalization with overlap
     ethr =  6.82E-04,  avg # of iterations =  4.0

     total cpu time spent up to now is        5.4 secs

     total energy              =    -503.56091353 Ry
     estimated scf accuracy    <       1.93461508 Ry

     iteration #  2     ecut=    30.00 Ry     beta= 0.50
     Davidson diagonalization with overlap
     ethr =  7.56E-04,  avg # of iterations =  1.0

     total cpu time spent up to now is        5.5 secs

     total energy              =    -503.55314642 Ry
     estimated scf accuracy    <       0.34747297 Ry

     iteration #  3     ecut=    30.00 Ry     beta= 0.50
     Davidson diagonalization with overlap
     ethr =  1.36E-04,  avg # of iterations = 13.0

     total cpu time spent up to now is        5.7 secs

     total energy              =    -503.56906420 Ry
     estimated scf accuracy    <       0.05276421 Ry

     iteration #  4     ecut=    30.00 Ry     beta= 0.50
     Davidson diagonalization with overlap
     ethr =  2.06E-05,  avg # of iterations = 11.0

     total cpu time spent up to now is        5.9 secs

     total energy              =    -503.58023592 Ry
     estimated scf accuracy    <       0.02003201 Ry

     iteration #  5     ecut=    30.00 Ry     beta= 0.50
     Davidson diagonalization with overlap
     ethr =  7.83E-06,  avg # of iterations =  6.0

     total cpu time spent up to now is        6.0 secs

     total energy              =    -503.58301645 Ry
     estimated scf accuracy    <       0.00232423 Ry

     iteration #  6     ecut=    30.00 Ry     beta= 0.50
     Davidson diagonalization with overlap
     c_bands:  1 eigenvalues not converged
     ethr =  9.08E-07,  avg # of iterations = 20.0

     total cpu time spent up to now is        6.2 secs

     total energy              =    -503.58342563 Ry
     estimated scf accuracy    <       0.00063213 Ry

     iteration #  7     ecut=    30.00 Ry     beta= 0.50
     Davidson diagonalization with overlap
     ethr =  2.47E-07,  avg # of iterations =  3.0

     total cpu time spent up to now is        6.3 secs

     total energy              =    -503.58348905 Ry
     estimated scf accuracy    <       0.00015805 Ry

     iteration #  8     ecut=    30.00 Ry     beta= 0.50
     Davidson diagonalization with overlap
     ethr =  6.17E-08,  avg # of iterations =  4.0

     total cpu time spent up to now is        6.4 secs

     total energy              =    -503.58352177 Ry
     estimated scf accuracy    <       0.00001687 Ry

     iteration #  9     ecut=    30.00 Ry     beta= 0.50
     Davidson diagonalization with overlap
     ethr =  6.59E-09,  avg # of iterations =  4.0

     total cpu time spent up to now is        6.6 secs

     total energy              =    -503.58352516 Ry
     estimated scf accuracy    <       0.00000269 Ry

     iteration # 10     ecut=    30.00 Ry     beta= 0.50
     Davidson diagonalization with overlap
     ethr =  1.05E-09,  avg # of iterations =  4.0

     total cpu time spent up to now is        6.7 secs

     End of self-consistent calculation

          k = 0.0000 0.0000 0.0000 ( 12049 PWs)   bands (ev):

    -5.8108  -4.8557  -4.8118  -4.7754  -4.7205  -4.6717  -4.6313  -4.0476
    -3.9724  -3.9053  -3.8636  -3.8218  -3.7453  -3.7250  -3.7129  -3.6635
    -3.6474  -3.6198  -3.5305  -3.4500  -3.4008  -3.3180  -3.3052  -1.9428
    -1.8899  -1.7918  -1.7560  -1.7346  -1.6791  -1.5882  -1.5736  -1.5314
    -1.5071  -1.4251  -1.3894  -1.3720  -1.3356  -1.3314  -1.3161  -1.2845
    -1.2218  -0.8227  -0.7768  -0.6996  -0.6209   0.4729   0.5448   0.5688
     0.6260   0.6431   0.6749   0.7283   0.7456   0.7921   0.8260   0.8722
     0.9053   2.0819   2.0941   2.1633   2.1763   2.1883   2.2072   2.2229
     2.2654   2.2895   2.3121   2.3311   2.3408   2.3620   2.3831   2.3995
     2.4159   2.4367   2.4413   2.5136   2.5210   2.5456   2.5618   2.6265
     2.6528   2.6664   2.7435   2.7896   2.8335   2.9181   2.9342   3.2460
     3.3005   3.3218   3.3485   3.4047   3.4494   4.0817   4.0999   4.1384
     4.1786   4.2429   4.2654   4.2974   4.3153   4.3683   4.3777   4.4239
     4.4755   4.5388   4.6008   4.7085   4.7249   4.7750   4.8378   4.8921
     4.9105   4.9572   4.9649   4.9958   5.0142   5.0208   5.0985   5.1213
     5.1344   5.1702   5.2117   5.2966   5.3501   6.1625   6.2420   6.4393
     6.6414   6.7217   6.7953   6.8201   6.9137   6.9873   7.1385   7.1884
     7.2570   7.3003   7.3392   7.4389   7.5882   7.6229   7.6395   7.6768
     8.2973   8.3481   8.4180   8.4232   8.4497   8.5000   8.5509   8.5720
     8.5829   8.6344

     the Fermi energy is     6.4846 ev

!    total energy              =    -503.58352571 Ry
     estimated scf accuracy    <       0.00000028 Ry
     smearing contrib. (-TS)   =      -0.06767090 Ry
     internal energy E=F+TS    =    -503.51585480 Ry

     The total energy is F=E-TS. E is the sum of the following terms:
     one-electron contribution =     148.53116227 Ry
     hartree contribution      =      36.85151138 Ry
     xc contribution           =    -154.12144724 Ry
     ewald contribution        =    -534.77708122 Ry

     convergence has been achieved in  10 iterations

     Forces acting on atoms (cartesian axes, Ry/au):

     atom    1 type  1   force =    -0.00295681   -0.02770971    0.06427584
     atom    2 type  1   force =     0.03079074   -0.07432361    0.06844204
     atom    3 type  1   force =     0.01591507    0.11339058   -0.05016940
     atom    4 type  1   force =     0.03333817   -0.05419044    0.05419771
     atom    5 type  1   force =     0.02128309   -0.01149864    0.03081625
     atom    6 type  1   force =    -0.04151234    0.00965532    0.08065015
     atom    7 type  1   force =     0.02675031   -0.04247521   -0.01642434
     atom    8 type  1   force =    -0.01907456    0.01896664    0.04964256
     atom    9 type  1   force =    -0.03309060    0.04368520   -0.03279626
     atom   10 type  1   force =     0.00017358    0.02859477    0.04626008
     atom   11 type  1   force =    -0.00911318   -0.07896050   -0.00429894
     atom   12 type  1   force =    -0.00365386   -0.05350217   -0.04160866
     atom   13 type  1   force =    -0.00989783    0.05240208    0.05694164
     atom   14 type  1   force =    -0.05116211    0.00270031    0.05897422
     atom   15 type  1   force =     0.00513905    0.06925256   -0.02312658
     atom   16 type  1   force =    -0.01685977    0.02955068   -0.02741195
     atom   17 type  1   force =    -0.06225725    0.07702444   -0.05226389
     atom   18 type  1   force =     0.01353849   -0.04974022    0.03747702
     atom   19 type  1   force =     0.01048514   -0.00705897   -0.01331471
     atom   20 type  1   force =     0.06250374   -0.02580965    0.10048349
     atom   21 type  1   force =     0.02817960   -0.03777269   -0.04448898
     atom   22 type  1   force =    -0.01557319   -0.02433424   -0.02558042
     atom   23 type  1   force =     0.00110506   -0.00605630    0.01028050
     atom   24 type  1   force =     0.05961182   -0.02034206   -0.02820465
     atom   25 type  1   force =     0.00754703    0.03762744   -0.04503016
     atom   26 type  1   force =    -0.00012206    0.02855702    0.05227313
     atom   27 type  1   force =    -0.05033740    0.03035067   -0.02975661
     atom   28 type  1   force =     0.02168536   -0.03943563   -0.05327579
     atom   29 type  1   force =     0.04371029    0.02521459    0.03897768
     atom   30 type  1   force =    -0.01778520   -0.01123753   -0.05347780
     atom   31 type  1   force =     0.03545898    0.04782097    0.04737676
     atom   32 type  1   force =    -0.01172590   -0.01925941   -0.02523052
     atom   33 type  1   force =    -0.00420173    0.00411756   -0.04224543
     atom   34 type  1   force =    -0.03026881    0.01556145    0.03228439
     atom   35 type  1   force =    -0.04913436    0.01932637   -0.04665002
     atom   36 type  1   force =     0.03539529    0.01239579    0.01698400
     atom   37 type  1   force =     0.05075881    0.03117428    0.03435124
     atom   38 type  1   force =     0.00313397    0.00791762    0.02564980
     atom   39 type  1   force =    -0.02220685   -0.03317859   -0.03211152
     atom   40 type  1   force =     0.02911761    0.04706579   -0.02211280
     atom   41 type  1   force =     0.02544301   -0.01333884   -0.02924566
     atom   42 type  1   force =    -0.00574348    0.03683547   -0.04673831
     atom   43 type  1   force =    -0.04240068   -0.08114515    0.07966145
     atom   44 type  1   force =    -0.02511283    0.04558937    0.01304362
     atom   45 type  1   force =    -0.03660347    0.00586456    0.01766158
     atom   46 type  1   force =     0.00787835   -0.05472210   -0.03576304
     atom   47 type  1   force =    -0.00477403   -0.02296852    0.05448284
     atom   48 type  1   force =    -0.04165910   -0.01592145   -0.02060926
     atom   49 type  1   force =     0.04812519   -0.01186373    0.01495448
     atom   50 type  1   force =     0.03592703    0.01684916    0.03502080
     atom   51 type  1   force =     0.01024506    0.02133807   -0.06874067
     atom   52 type  1   force =    -0.03498667    0.00042031    0.00648140
     atom   53 type  1   force =     0.06634540    0.06767648   -0.03532485
     atom   54 type  1   force =    -0.02104213   -0.03566039   -0.05123948
     atom   55 type  1   force =    -0.05777559    0.07565985   -0.07425678
     atom   56 type  1   force =     0.05030633   -0.06298430    0.03615451
     atom   57 type  1   force =    -0.02992675   -0.04325735    0.01034034
     atom   58 type  1   force =    -0.00778703   -0.07750794    0.01731908
     atom   59 type  1   force =     0.06188556    0.00638214   -0.00130478
     atom   60 type  1   force =    -0.05949421    0.00409448   -0.00292830
     atom   61 type  1   force =     0.06497190    0.02496855    0.00952791
     atom   62 type  1   force =    -0.09376500    0.02019870   -0.08652882
     atom   63 type  1   force =     0.02011256    0.05713355   -0.04360927
     atom   64 type  1   force =    -0.01485685   -0.09910751    0.00488217

     Total force =     0.569877     Total SCF correction =     0.000760


     Computing stress (Cartesian axis) and pressure

          total   stress  (Ry/bohr**3)                   (kbar)     P=       32.34
   0.00024194  -0.00008672  -0.00001826           35.59      -12.76       -2.69
  -0.00008672   0.00024482  -0.00008587          -12.76       36.01      -12.63
  -0.00001826  -0.00008587   0.00017280           -2.69      -12.63       25.42

 
     init_run     :      1.19s CPU      5.09s WALL (       1 calls)
     electrons    :      1.42s CPU      1.51s WALL (       1 calls)
     forces       :      0.04s CPU      0.05s WALL (       1 calls)
     stress       :      0.16s CPU      0.16s WALL (       1 calls)

     Called by init_run:
     wfcinit      :      0.54s CPU      4.26s WALL (       1 calls)
                                        4.26s GPU  (       1 calls)
     potinit      :      0.21s CPU      0.30s WALL (       1 calls)
     hinit0       :      0.42s CPU      0.45s WALL (       1 calls)

     Called by electrons:
     c_bands      :      0.96s CPU      1.00s WALL (      11 calls)
     sum_band     :      0.25s CPU      0.28s WALL (      11 calls)
     v_of_rho     :      0.13s CPU      0.23s WALL (      11 calls)
     mix_rho      :      0.08s CPU      0.10s WALL (      11 calls)

     Called by c_bands:
     init_us_2    :      0.04s CPU      0.04s WALL (      23 calls)
     init_us_2:gp :      0.04s CPU      0.04s WALL (      23 calls)
     regterg      :      0.85s CPU      0.89s WALL (      11 calls)

     Called by *egterg:
     rdiaghg      :      0.42s CPU      1.18s WALL (      83 calls)
                                        1.16s GPU  (      83 calls)
     h_psi        :      0.81s CPU      3.80s WALL (      85 calls)
                                        3.79s GPU  (      85 calls)
     g_psi        :      0.00s CPU      0.00s WALL (      73 calls)
                                        0.00s GPU  (      73 calls)

     Called by h_psi:
     h_psi:calbec :      0.48s CPU      3.39s WALL (      85 calls)
                                        3.39s GPU  (      85 calls)
     vloc_psi     :      0.29s CPU      0.35s WALL (      85 calls)
                                        0.35s GPU  (      85 calls)
     add_vuspsi   :      0.04s CPU      0.05s WALL (      85 calls)
                                        0.05s GPU  (      85 calls)

     General routines
     calbec       :      0.48s CPU      3.40s WALL (      90 calls)
     fft          :      0.50s CPU      0.62s WALL (      95 calls)
                                        0.13s GPU  (      61 calls)
     ffts         :      0.03s CPU      0.04s WALL (      11 calls)
     fftw         :      0.33s CPU      0.44s WALL (    1239 calls)
                                        0.39s GPU  (    1239 calls)
 
     Parallel routines
 
     PWSCF        :      2.86s CPU      6.90s WALL

 
   This run was terminated on:  11:25:12  10May2023            

=------------------------------------------------------------------------------=
   JOB DONE.
=------------------------------------------------------------------------------=
