An instance of this daemon is already running

     Program PWSCF v.7.1 starts on 10May2023 at 11:21:30 

     This program is part of the open-source Quantum ESPRESSO suite
     for quantum simulation of materials; please cite
         "P. Giannozzi et al., J. Phys.:Condens. Matter 21 395502 (2009);
         "P. Giannozzi et al., J. Phys.:Condens. Matter 29 465901 (2017);
         "P. Giannozzi et al., J. Chem. Phys. 152 154105 (2020);
          URL http://www.quantum-espresso.org", 
     in publications or presentations arising from this work. More details at
     http://www.quantum-espresso.org/quote

     Parallel version (MPI & OpenMP), running on       4 processor cores
     Number of MPI processes:                 4
     Threads/MPI process:                     1

     MPI processes distributed on     1 nodes
     753554 MiB available memory on the printing compute node when the environment starts
 
     Reading input from pw-si-70.in
Warning: card &CELL ignored
Warning: card / ignored

     Current dimensions of program PWSCF are:
     Max number of different atomic species (ntypx) = 10
     Max number of k-points (npk) =  40000
     Max angular momentum in pseudopotentials (lmaxx) =  4

     IMPORTANT: XC functional enforced from input :
     Exchange-correlation= PBE
                           (   1   4   3   4   0   0   0)
     Any further DFT definition will be discarded
     Please, verify this is what you really want


     gamma-point specific algorithms are used
 
     K-points division:     npool     =       2
     R & G space division:  proc/nbgrp/npool/nimage =       2
     Subspace diagonalization in iterative solution of the eigenvalue problem:
     a serial algorithm will be used

     Message from routine divide_et_impera:
     suboptimal parallelization: some nodes have no k-points
 
     Parallelization info
     --------------------
     sticks:   dense  smooth     PW     G-vecs:    dense   smooth      PW
     Min        1995    1995    523                97226    97226   13175
     Max        1998    1998    526                97227    97227   13178
     Sum        3993    3993   1049               194453   194453   26353
 
     Using Slab Decomposition
 


     bravais-lattice index     =            0
     lattice parameter (alat)  =      20.4141  a.u.
     unit-cell volume          =    8755.2230 (a.u.)^3
     number of atoms/cell      =           64
     number of atomic types    =            1
     number of electrons       =       256.00
     number of Kohn-Sham states=          154
     kinetic-energy cutoff     =      30.0000  Ry
     charge density cutoff     =     120.0000  Ry
     scf convergence threshold =      1.0E-06
     mixing beta               =       0.5000
     number of iterations used =            8  plain     mixing
     Exchange-correlation= PBE
                           (   1   4   3   4   0   0   0)

     GPU acceleration is ACTIVE.
     GPU-aware MPI enabled

     Message from routine print_cuda_info:
     High GPU oversubscription detected. Are you sure this is what you want?

     celldm(1)=  20.414077  celldm(2)=   0.000000  celldm(3)=   0.000000
     celldm(4)=   0.000000  celldm(5)=   0.000000  celldm(6)=   0.000000

     crystal axes: (cart. coord. in units of alat)
               a(1) = (   1.000000   0.000000   0.000000 )  
               a(2) = (   0.000000   1.001706   0.000000 )  
               a(3) = (   0.000000   0.000000   1.027396 )  

     reciprocal axes: (cart. coord. in units 2 pi/alat)
               b(1) = (  1.000000  0.000000  0.000000 )  
               b(2) = (  0.000000  0.998297  0.000000 )  
               b(3) = (  0.000000  0.000000  0.973335 )  


     PseudoPot. # 1 for Si read from file:
     /home/ppiaggi/pseudos/Si_ONCV_PBE_sr.upf
     MD5 check sum: 8553c464762ac42b85b1eed164b4d029
     Pseudo is Norm-conserving, Zval =  4.0
     Generated using ONCVPSP code by D. R. Hamann
     Using radial grid of 1510 points,  4 beta functions with: 
                l(1) =   0
                l(2) =   0
                l(3) =   1
                l(4) =   1

     atomic species   valence    mass     pseudopotential
        Si             4.00    28.08500     Si( 1.00)

     No symmetry found



   Cartesian axes

     site n.     atom                  positions (alat units)
         1           Si  tau(   1) = (   0.0069470   0.0021318   0.0076928  )
         2           Si  tau(   2) = (   0.0087218   0.2646351   0.2687346  )
         3           Si  tau(   3) = (   0.2475591   0.0047789   0.2636855  )
         4           Si  tau(   4) = (   0.2400162   0.2585476   0.0054767  )
         5           Si  tau(   5) = (   0.1192799   0.1337236   0.1237086  )
         6           Si  tau(   6) = (   0.4954768  -0.0092198   0.0025084  )
         7           Si  tau(   7) = (   0.5010394   0.2504876   0.2607120  )
         8           Si  tau(   8) = (   0.6148920   0.1195968   0.1251827  )
         9           Si  tau(   9) = (   0.7436330  -0.0021699   0.2605904  )
        10           Si  tau(  10) = (   0.7440516   0.2551809  -0.0043128  )
        11           Si  tau(  11) = (  -0.0023303   0.5217840   0.0068950  )
        12           Si  tau(  12) = (   0.2516940   0.5173703   0.2621589  )
        13           Si  tau(  13) = (   0.1233049   0.6379108   0.1261410  )
        14           Si  tau(  14) = (   0.3695134   0.3800566   0.1213322  )
        15           Si  tau(  15) = (   0.4921052   0.5192311   0.0007075  )
        16           Si  tau(  16) = (   0.6278117   0.6461346   0.1337514  )
        17           Si  tau(  17) = (   0.8750813   0.3842784   0.1367879  )
        18           Si  tau(  18) = (   0.7450916   0.5121180   0.2643338  )
        19           Si  tau(  19) = (   0.0069989   0.7647647   0.2670532  )
        20           Si  tau(  20) = (   0.2404990   0.7606469   0.0077168  )
        21           Si  tau(  21) = (   0.3729043   0.8976953   0.1332221  )
        22           Si  tau(  22) = (   0.5004008   0.7769395   0.2601075  )
        23           Si  tau(  23) = (   0.7502660   0.7782288  -0.0024760  )
        24           Si  tau(  24) = (   0.8647068   0.9049783   0.1252273  )
        25           Si  tau(  25) = (   0.0017084  -0.0088880   0.5128922  )
        26           Si  tau(  26) = (   0.2485353   0.2597092   0.5143601  )
        27           Si  tau(  27) = (   0.1179647   0.1283958   0.6442283  )
        28           Si  tau(  28) = (   0.3761197   0.1250174   0.3841875  )
        29           Si  tau(  29) = (   0.5040688   0.0000253   0.5243934  )
        30           Si  tau(  30) = (   0.6141892   0.1217355   0.6461016  )
        31           Si  tau(  31) = (   0.8746312   0.1249400   0.3922370  )
        32           Si  tau(  32) = (   0.7428182   0.2561561   0.5173300  )
        33           Si  tau(  33) = (   0.1206943   0.3927940   0.3937213  )
        34           Si  tau(  34) = (   0.0048207   0.5090200   0.5218786  )
        35           Si  tau(  35) = (   0.1209880   0.6484006   0.6508421  )
        36           Si  tau(  36) = (   0.6131236   0.3782639   0.3876768  )
        37           Si  tau(  37) = (   0.3681903   0.6477893   0.3875616  )
        38           Si  tau(  38) = (   0.3772972   0.3835530   0.6579295  )
        39           Si  tau(  39) = (   0.4877050   0.5036413   0.5194813  )
        40           Si  tau(  40) = (   0.6225676   0.6490920   0.6600787  )
        41           Si  tau(  41) = (   0.8689840   0.6489808   0.3944465  )
        42           Si  tau(  42) = (   0.8596026   0.3911190   0.6560596  )
        43           Si  tau(  43) = (   0.1326912   0.8988838   0.3993611  )
        44           Si  tau(  44) = (   0.2421019   0.7703830   0.5215668  )
        45           Si  tau(  45) = (   0.6232651   0.8973764   0.3831118  )
        46           Si  tau(  46) = (   0.3681554   0.9051417   0.6540466  )
        47           Si  tau(  47) = (   0.7458527   0.7710696   0.5143403  )
        48           Si  tau(  48) = (   0.8651117   0.8953194   0.6473336  )
        49           Si  tau(  49) = (  -0.0012703   0.2645409   0.7834266  )
        50           Si  tau(  50) = (   0.2430708  -0.0046100   0.7827502  )
        51           Si  tau(  51) = (   0.3715995   0.1217800   0.9129294  )
        52           Si  tau(  52) = (   0.4900482   0.2627242   0.7876637  )
        53           Si  tau(  53) = (   0.7347999  -0.0059216   0.7728074  )
        54           Si  tau(  54) = (   0.8630320   0.1318206   0.9193650  )
        55           Si  tau(  55) = (   0.1275442   0.3779960   0.9164943  )
        56           Si  tau(  56) = (   0.2473983   0.5082150   0.7838586  )
        57           Si  tau(  57) = (   0.6157912   0.3900681   0.9086615  )
        58           Si  tau(  58) = (   0.3743792   0.6392333   0.9079659  )
        59           Si  tau(  59) = (   0.7405470   0.5121308   0.7733035  )
        60           Si  tau(  60) = (   0.8659893   0.6487923   0.9058234  )
        61           Si  tau(  61) = (   0.0044085   0.7600478   0.7740984  )
        62           Si  tau(  62) = (   0.1304777   0.8970691   0.9094043  )
        63           Si  tau(  63) = (   0.5030281   0.7700274   0.7905747  )
        64           Si  tau(  64) = (   0.6207389   0.8986706   0.9200310  )

     number of k points=     1  Fermi-Dirac smearing, width (Ry)=  0.0100
                       cart. coord. in units 2pi/alat
        k(    1) = (   0.0000000   0.0000000   0.0000000), wk =   2.0000000

     Dense  grid:    97227 G-vectors     FFT dimensions: (  72,  72,  75)

     Estimated max dynamical RAM per process >     155.56 MB

     Estimated total dynamical RAM >     598.52 MB

     Initial potential from superposition of free atoms

     starting charge     255.9608, renormalised to     256.0000
     Starting wfcs are  256 randomized atomic wfcs

     total cpu time spent up to now is        5.1 secs

     Self-consistent Calculation

     iteration #  1     ecut=    30.00 Ry     beta= 0.50
     Davidson diagonalization with overlap
     ethr =  1.00E-02,  avg # of iterations =  3.0

     Threshold (ethr) on eigenvalues was too large:
     Diagonalizing with lowered threshold

     Davidson diagonalization with overlap
     ethr =  6.71E-04,  avg # of iterations =  4.0

     total cpu time spent up to now is        5.4 secs

     total energy              =    -503.37701539 Ry
     estimated scf accuracy    <       1.90914022 Ry

     iteration #  2     ecut=    30.00 Ry     beta= 0.50
     Davidson diagonalization with overlap
     ethr =  7.46E-04,  avg # of iterations =  2.0

     total cpu time spent up to now is        5.5 secs

     total energy              =    -503.35429028 Ry
     estimated scf accuracy    <       0.39278464 Ry

     iteration #  3     ecut=    30.00 Ry     beta= 0.50
     Davidson diagonalization with overlap
     ethr =  1.53E-04,  avg # of iterations = 10.0

     total cpu time spent up to now is        5.6 secs

     total energy              =    -503.28766793 Ry
     estimated scf accuracy    <       0.81864587 Ry

     iteration #  4     ecut=    30.00 Ry     beta= 0.50
     Davidson diagonalization with overlap
     ethr =  1.53E-04,  avg # of iterations =  3.0

     total cpu time spent up to now is        5.8 secs

     total energy              =    -503.41186805 Ry
     estimated scf accuracy    <       0.03200452 Ry

     iteration #  5     ecut=    30.00 Ry     beta= 0.50
     Davidson diagonalization with overlap
     ethr =  1.25E-05,  avg # of iterations = 16.0

     total cpu time spent up to now is        6.0 secs

     total energy              =    -503.41443866 Ry
     estimated scf accuracy    <       0.01014824 Ry

     iteration #  6     ecut=    30.00 Ry     beta= 0.50
     Davidson diagonalization with overlap
     ethr =  3.96E-06,  avg # of iterations =  6.0

     total cpu time spent up to now is        6.1 secs

     total energy              =    -503.41573643 Ry
     estimated scf accuracy    <       0.00255085 Ry

     iteration #  7     ecut=    30.00 Ry     beta= 0.50
     Davidson diagonalization with overlap
     ethr =  9.96E-07,  avg # of iterations =  4.0

     total cpu time spent up to now is        6.2 secs

     total energy              =    -503.41619441 Ry
     estimated scf accuracy    <       0.00044406 Ry

     iteration #  8     ecut=    30.00 Ry     beta= 0.50
     Davidson diagonalization with overlap
     ethr =  1.73E-07,  avg # of iterations =  3.0

     total cpu time spent up to now is        6.3 secs

     total energy              =    -503.41623319 Ry
     estimated scf accuracy    <       0.00011341 Ry

     iteration #  9     ecut=    30.00 Ry     beta= 0.50
     Davidson diagonalization with overlap
     ethr =  4.43E-08,  avg # of iterations =  4.0

     total cpu time spent up to now is        6.4 secs

     total energy              =    -503.41624592 Ry
     estimated scf accuracy    <       0.00001956 Ry

     iteration # 10     ecut=    30.00 Ry     beta= 0.50
     Davidson diagonalization with overlap
     ethr =  7.64E-09,  avg # of iterations =  4.0

     total cpu time spent up to now is        6.5 secs

     total energy              =    -503.41624992 Ry
     estimated scf accuracy    <       0.00000302 Ry

     iteration # 11     ecut=    30.00 Ry     beta= 0.50
     Davidson diagonalization with overlap
     ethr =  1.18E-09,  avg # of iterations =  3.0

     total cpu time spent up to now is        6.6 secs

     End of self-consistent calculation

          k = 0.0000 0.0000 0.0000 ( 12157 PWs)   bands (ev):

    -5.9420  -5.0709  -4.9911  -4.8490  -4.7758  -4.7097  -4.5878  -4.3124
    -4.0963  -4.0557  -3.9116  -3.8698  -3.8167  -3.7841  -3.7346  -3.7181
    -3.6723  -3.5990  -3.4725  -3.4663  -3.3927  -3.3175  -3.2213  -2.0963
    -2.0871  -1.8766  -1.8258  -1.7555  -1.7104  -1.6495  -1.6246  -1.6071
    -1.5826  -1.4983  -1.4484  -1.4463  -1.3657  -1.3472  -1.2855  -1.2380
    -1.2077  -0.9458  -0.8832  -0.7973  -0.5691   0.3511   0.4137   0.4598
     0.5391   0.5709   0.5924   0.6270   0.6422   0.7162   0.7831   0.7948
     0.8510   1.8915   1.9395   1.9452   2.0047   2.0780   2.1634   2.1842
     2.1986   2.2174   2.2639   2.2774   2.3194   2.3630   2.3727   2.3966
     2.4044   2.4213   2.4443   2.4890   2.5152   2.5610   2.5635   2.5913
     2.6634   2.6916   2.7144   2.7838   2.7854   2.8445   2.9065   2.9612
     3.1917   3.2371   3.3012   3.4021   3.4553   3.8446   3.9533   4.0309
     4.0630   4.1624   4.1725   4.2283   4.2820   4.3367   4.3676   4.3753
     4.4500   4.5017   4.5835   4.6255   4.6780   4.7388   4.7674   4.7922
     4.8170   4.8588   4.8947   4.9580   4.9669   4.9999   5.0396   5.1006
     5.1556   5.2553   5.2746   5.3623   5.4154   5.9769   6.2352   6.3306
     6.3955   6.5504   6.6228   6.8026   6.8753   7.0483   7.0899   7.1397
     7.2057   7.2675   7.3171   7.3599   7.3831   7.4837   7.5109   7.5539
     8.0419   8.1517   8.2534   8.3221   8.3465   8.3940   8.4347   8.4725
     8.5472   8.5499

     the Fermi energy is     6.3540 ev

!    total energy              =    -503.41625064 Ry
     estimated scf accuracy    <       0.00000027 Ry
     smearing contrib. (-TS)   =      -0.06946373 Ry
     internal energy E=F+TS    =    -503.34678691 Ry

     The total energy is F=E-TS. E is the sum of the following terms:
     one-electron contribution =     143.69857421 Ry
     hartree contribution      =      38.54796706 Ry
     xc contribution           =    -153.86442885 Ry
     ewald contribution        =    -531.72889933 Ry

     convergence has been achieved in  11 iterations

     Forces acting on atoms (cartesian axes, Ry/au):

     atom    1 type  1   force =    -0.05935004    0.05038299   -0.01312697
     atom    2 type  1   force =    -0.05016766   -0.04426502   -0.03049575
     atom    3 type  1   force =    -0.00663630    0.05361475   -0.03990516
     atom    4 type  1   force =     0.06527893   -0.06004678    0.01287585
     atom    5 type  1   force =     0.01718171    0.00963067    0.08457536
     atom    6 type  1   force =    -0.06260658    0.12132058    0.05361188
     atom    7 type  1   force =    -0.02764459   -0.00078835   -0.04636972
     atom    8 type  1   force =     0.03089074    0.03972532    0.01944929
     atom    9 type  1   force =     0.02857999    0.10818719   -0.01970416
     atom   10 type  1   force =    -0.04071414    0.04643878    0.08920185
     atom   11 type  1   force =    -0.03243347   -0.05383352   -0.02136678
     atom   12 type  1   force =    -0.01258035   -0.02833102   -0.02713424
     atom   13 type  1   force =    -0.00729784    0.00217456    0.07222693
     atom   14 type  1   force =     0.02215203    0.02975409    0.06248327
     atom   15 type  1   force =     0.03737407   -0.02437731    0.05705942
     atom   16 type  1   force =    -0.01443446   -0.00297831   -0.01246463
     atom   17 type  1   force =    -0.00984344    0.00810804   -0.00799140
     atom   18 type  1   force =     0.00526184   -0.00081488    0.00408553
     atom   19 type  1   force =    -0.02536622    0.02285943   -0.02026508
     atom   20 type  1   force =     0.05921512    0.03232141   -0.01284425
     atom   21 type  1   force =    -0.04706543   -0.08101542    0.01820902
     atom   22 type  1   force =    -0.01370701   -0.04625583   -0.00725514
     atom   23 type  1   force =    -0.00260063   -0.04521601    0.05722128
     atom   24 type  1   force =     0.06026978   -0.08254096    0.02727100
     atom   25 type  1   force =    -0.06947770    0.09933397    0.06586643
     atom   26 type  1   force =     0.01247876   -0.01749955    0.02041723
     atom   27 type  1   force =     0.00638083    0.01540334    0.01489263
     atom   28 type  1   force =    -0.00204119    0.02617906    0.04513669
     atom   29 type  1   force =    -0.05119025    0.02080342   -0.05100550
     atom   30 type  1   force =     0.03039316    0.08506645    0.04188141
     atom   31 type  1   force =     0.00267655    0.02570527   -0.01304999
     atom   32 type  1   force =     0.00585931   -0.01422173    0.01790302
     atom   33 type  1   force =     0.05613380   -0.00423022   -0.01231779
     atom   34 type  1   force =    -0.06917048    0.04389813    0.03282182
     atom   35 type  1   force =     0.04068655   -0.08053101   -0.02708310
     atom   36 type  1   force =     0.02883321    0.03247199    0.01538564
     atom   37 type  1   force =     0.02511804   -0.00613401    0.02293640
     atom   38 type  1   force =    -0.05562129    0.00294511   -0.03097585
     atom   39 type  1   force =     0.02894980    0.05129402    0.00045643
     atom   40 type  1   force =    -0.01736292   -0.01950103   -0.06883216
     atom   41 type  1   force =     0.03653465   -0.05331581   -0.01455270
     atom   42 type  1   force =     0.06468010   -0.04054074   -0.05088023
     atom   43 type  1   force =     0.00113203   -0.08106950   -0.07298836
     atom   44 type  1   force =     0.05280330   -0.01087684    0.02429790
     atom   45 type  1   force =    -0.02418864   -0.06050435    0.06378077
     atom   46 type  1   force =     0.03982630   -0.10872480   -0.02732452
     atom   47 type  1   force =    -0.02457367   -0.00632953    0.03283755
     atom   48 type  1   force =     0.04993973   -0.06438875   -0.00634264
     atom   49 type  1   force =    -0.03273017   -0.03507077   -0.01195032
     atom   50 type  1   force =     0.01816581    0.13611551   -0.03828807
     atom   51 type  1   force =    -0.02305832    0.03639583   -0.02323715
     atom   52 type  1   force =     0.02993418   -0.06258574   -0.01123462
     atom   53 type  1   force =     0.02146188    0.08167843    0.03614686
     atom   54 type  1   force =     0.06911660   -0.05263366   -0.10196188
     atom   55 type  1   force =    -0.05979599    0.08379719   -0.05745107
     atom   56 type  1   force =    -0.00191114    0.01555359   -0.01554616
     atom   57 type  1   force =     0.01819367    0.00137778   -0.01541746
     atom   58 type  1   force =    -0.04132705    0.02568627   -0.02606489
     atom   59 type  1   force =    -0.00805166    0.03367551    0.05650442
     atom   60 type  1   force =     0.03156436   -0.04377666   -0.03303264
     atom   61 type  1   force =    -0.06294762    0.07099270    0.04548767
     atom   62 type  1   force =    -0.05930843   -0.11222714    0.01164327
     atom   63 type  1   force =    -0.03486369    0.01360027   -0.02474548
     atom   64 type  1   force =     0.05300158   -0.08186640   -0.11346097

     Total force =     0.640795     Total SCF correction =     0.000697


     Computing stress (Cartesian axis) and pressure

          total   stress  (Ry/bohr**3)                   (kbar)     P=       29.17
   0.00027689  -0.00004686  -0.00017485           40.73       -6.89      -25.72
  -0.00004686   0.00017376   0.00005650           -6.89       25.56        8.31
  -0.00017485   0.00005650   0.00014433          -25.72        8.31       21.23

 
     init_run     :      1.22s CPU      5.05s WALL (       1 calls)
     electrons    :      1.40s CPU      1.51s WALL (       1 calls)
     forces       :      0.05s CPU      0.05s WALL (       1 calls)
     stress       :      0.17s CPU      0.17s WALL (       1 calls)

     Called by init_run:
     wfcinit      :      0.56s CPU      4.21s WALL (       1 calls)
                                        4.21s GPU  (       1 calls)
     potinit      :      0.21s CPU      0.31s WALL (       1 calls)
     hinit0       :      0.43s CPU      0.46s WALL (       1 calls)

     Called by electrons:
     c_bands      :      0.90s CPU      0.95s WALL (      12 calls)
     sum_band     :      0.26s CPU      0.29s WALL (      12 calls)
     v_of_rho     :      0.14s CPU      0.24s WALL (      12 calls)
     mix_rho      :      0.09s CPU      0.11s WALL (      12 calls)

     Called by c_bands:
     init_us_2    :      0.04s CPU      0.05s WALL (      25 calls)
     init_us_2:gp :      0.04s CPU      0.05s WALL (      25 calls)
     regterg      :      0.79s CPU      0.84s WALL (      12 calls)

     Called by *egterg:
     rdiaghg      :      0.37s CPU      1.12s WALL (      73 calls)
                                        1.10s GPU  (      73 calls)
     h_psi        :      0.84s CPU      3.77s WALL (      75 calls)
                                        3.76s GPU  (      75 calls)
     g_psi        :      0.00s CPU      0.00s WALL (      62 calls)
                                        0.00s GPU  (      62 calls)

     Called by h_psi:
     h_psi:calbec :      0.50s CPU      3.36s WALL (      75 calls)
                                        3.36s GPU  (      75 calls)
     vloc_psi     :      0.29s CPU      0.36s WALL (      75 calls)
                                        0.36s GPU  (      75 calls)
     add_vuspsi   :      0.03s CPU      0.04s WALL (      75 calls)
                                        0.04s GPU  (      75 calls)

     General routines
     calbec       :      0.51s CPU      3.37s WALL (      80 calls)
     fft          :      0.50s CPU      0.64s WALL (     103 calls)
                                        0.14s GPU  (      66 calls)
     ffts         :      0.03s CPU      0.04s WALL (      12 calls)
     fftw         :      0.34s CPU      0.46s WALL (    1314 calls)
                                        0.41s GPU  (    1314 calls)
 
     Parallel routines
 
     PWSCF        :      2.87s CPU      6.87s WALL

 
   This run was terminated on:  11:21:37  10May2023            

=------------------------------------------------------------------------------=
   JOB DONE.
=------------------------------------------------------------------------------=
