An instance of this daemon is already running

     Program PWSCF v.7.1 starts on 10May2023 at 11:13: 4 

     This program is part of the open-source Quantum ESPRESSO suite
     for quantum simulation of materials; please cite
         "P. Giannozzi et al., J. Phys.:Condens. Matter 21 395502 (2009);
         "P. Giannozzi et al., J. Phys.:Condens. Matter 29 465901 (2017);
         "P. Giannozzi et al., J. Chem. Phys. 152 154105 (2020);
          URL http://www.quantum-espresso.org", 
     in publications or presentations arising from this work. More details at
     http://www.quantum-espresso.org/quote

     Parallel version (MPI & OpenMP), running on       4 processor cores
     Number of MPI processes:                 4
     Threads/MPI process:                     1

     MPI processes distributed on     1 nodes
     753575 MiB available memory on the printing compute node when the environment starts
 
     Reading input from pw-si-16.in
Warning: card &CELL ignored
Warning: card / ignored

     Current dimensions of program PWSCF are:
     Max number of different atomic species (ntypx) = 10
     Max number of k-points (npk) =  40000
     Max angular momentum in pseudopotentials (lmaxx) =  4

     IMPORTANT: XC functional enforced from input :
     Exchange-correlation= PBE
                           (   1   4   3   4   0   0   0)
     Any further DFT definition will be discarded
     Please, verify this is what you really want


     gamma-point specific algorithms are used
 
     K-points division:     npool     =       2
     R & G space division:  proc/nbgrp/npool/nimage =       2
     Subspace diagonalization in iterative solution of the eigenvalue problem:
     a serial algorithm will be used

     Message from routine divide_et_impera:
     suboptimal parallelization: some nodes have no k-points
 
     Parallelization info
     --------------------
     sticks:   dense  smooth     PW     G-vecs:    dense   smooth      PW
     Min        2016    2016    536                98068    98068   13332
     Max        2017    2017    537                98069    98069   13333
     Sum        4033    4033   1073               196137   196137   26665
 
     Using Slab Decomposition
 


     bravais-lattice index     =            0
     lattice parameter (alat)  =      20.5107  a.u.
     unit-cell volume          =    8835.5687 (a.u.)^3
     number of atoms/cell      =           64
     number of atomic types    =            1
     number of electrons       =       256.00
     number of Kohn-Sham states=          154
     kinetic-energy cutoff     =      30.0000  Ry
     charge density cutoff     =     120.0000  Ry
     scf convergence threshold =      1.0E-06
     mixing beta               =       0.5000
     number of iterations used =            8  plain     mixing
     Exchange-correlation= PBE
                           (   1   4   3   4   0   0   0)

     GPU acceleration is ACTIVE.
     GPU-aware MPI enabled

     Message from routine print_cuda_info:
     High GPU oversubscription detected. Are you sure this is what you want?

     celldm(1)=  20.510742  celldm(2)=   0.000000  celldm(3)=   0.000000
     celldm(4)=   0.000000  celldm(5)=   0.000000  celldm(6)=   0.000000

     crystal axes: (cart. coord. in units of alat)
               a(1) = (   1.000000   0.000000   0.000000 )  
               a(2) = (   0.000000   1.004187   0.000000 )  
               a(3) = (   0.000000   0.000000   1.019708 )  

     reciprocal axes: (cart. coord. in units 2 pi/alat)
               b(1) = (  1.000000  0.000000  0.000000 )  
               b(2) = (  0.000000  0.995830  0.000000 )  
               b(3) = (  0.000000  0.000000  0.980673 )  


     PseudoPot. # 1 for Si read from file:
     /home/ppiaggi/pseudos/Si_ONCV_PBE_sr.upf
     MD5 check sum: 8553c464762ac42b85b1eed164b4d029
     Pseudo is Norm-conserving, Zval =  4.0
     Generated using ONCVPSP code by D. R. Hamann
     Using radial grid of 1510 points,  4 beta functions with: 
                l(1) =   0
                l(2) =   0
                l(3) =   1
                l(4) =   1

     atomic species   valence    mass     pseudopotential
        Si             4.00    28.08500     Si( 1.00)

     No symmetry found



   Cartesian axes

     site n.     atom                  positions (alat units)
         1           Si  tau(   1) = (   0.0062725   0.0068937  -0.0007131  )
         2           Si  tau(   2) = (   0.0036863   0.2564554   0.2508807  )
         3           Si  tau(   3) = (   0.2584021   0.0065660   0.2491554  )
         4           Si  tau(   4) = (   0.2601130   0.2568979   0.0039989  )
         5           Si  tau(   5) = (   0.1358295   0.1340633   0.1275138  )
         6           Si  tau(   6) = (   0.5111701   0.0092261   0.0081886  )
         7           Si  tau(   7) = (   0.5132404   0.2496429   0.2441412  )
         8           Si  tau(   8) = (   0.6369984   0.1319685   0.1296570  )
         9           Si  tau(   9) = (   0.7672648   0.0006576   0.2415482  )
        10           Si  tau(  10) = (   0.7690576   0.2530817   0.0085480  )
        11           Si  tau(  11) = (  -0.0081610   0.5056911  -0.0004103  )
        12           Si  tau(  12) = (   0.2500314   0.5023521   0.2564763  )
        13           Si  tau(  13) = (   0.1285387   0.6308396   0.1180743  )
        14           Si  tau(  14) = (   0.3850025   0.3843648   0.1228438  )
        15           Si  tau(  15) = (   0.5104454   0.5154713   0.0032976  )
        16           Si  tau(  16) = (   0.6437156   0.6356977   0.1248126  )
        17           Si  tau(  17) = (   0.8908065   0.3850417   0.1160010  )
        18           Si  tau(  18) = (   0.7610704   0.5136377   0.2480473  )
        19           Si  tau(  19) = (  -0.0079603   0.7651525   0.2459069  )
        20           Si  tau(  20) = (   0.2565120   0.7668382  -0.0076215  )
        21           Si  tau(  21) = (   0.3833100   0.8990642   0.1237248  )
        22           Si  tau(  22) = (   0.5171068   0.7642921   0.2567340  )
        23           Si  tau(  23) = (   0.7595124   0.7604034   0.0061262  )
        24           Si  tau(  24) = (   0.8954224   0.8960411   0.1241736  )
        25           Si  tau(  25) = (  -0.0051606   0.0016835   0.4977638  )
        26           Si  tau(  26) = (   0.2556249   0.2569844   0.4935510  )
        27           Si  tau(  27) = (   0.1337120   0.1325818   0.6226228  )
        28           Si  tau(  28) = (   0.3735506   0.1182592   0.3784504  )
        29           Si  tau(  29) = (   0.5064228   0.0012685   0.4950702  )
        30           Si  tau(  30) = (   0.6412896   0.1361010   0.6266487  )
        31           Si  tau(  31) = (   0.8950956   0.1230405   0.3655775  )
        32           Si  tau(  32) = (   0.7700688   0.2546758   0.4971000  )
        33           Si  tau(  33) = (   0.1291908   0.3896863   0.3743582  )
        34           Si  tau(  34) = (  -0.0059597   0.5115553   0.5006542  )
        35           Si  tau(  35) = (   0.1359333   0.6278659   0.6209098  )
        36           Si  tau(  36) = (   0.6268810   0.3861101   0.3717446  )
        37           Si  tau(  37) = (   0.3746316   0.6444009   0.3722886  )
        38           Si  tau(  38) = (   0.3884684   0.3872241   0.6259904  )
        39           Si  tau(  39) = (   0.5116950   0.5133274   0.4937584  )
        40           Si  tau(  40) = (   0.6437359   0.6373844   0.6118076  )
        41           Si  tau(  41) = (   0.8863017   0.6323282   0.3798229  )
        42           Si  tau(  42) = (   0.8912060   0.3842350   0.6208798  )
        43           Si  tau(  43) = (   0.1211934   0.8979096   0.3717374  )
        44           Si  tau(  44) = (   0.2586170   0.7673555   0.4954159  )
        45           Si  tau(  45) = (   0.6368535   0.8958229   0.3806487  )
        46           Si  tau(  46) = (   0.3793679   0.8949266   0.6144194  )
        47           Si  tau(  47) = (   0.7536266   0.7699700   0.4980786  )
        48           Si  tau(  48) = (   0.8977551   0.8926904   0.6182650  )
        49           Si  tau(  49) = (  -0.0054609   0.2579810   0.7429349  )
        50           Si  tau(  50) = (   0.2629746   0.0033856   0.7469462  )
        51           Si  tau(  51) = (   0.3884639   0.1274027   0.8719290  )
        52           Si  tau(  52) = (   0.5005150   0.2623268   0.7510399  )
        53           Si  tau(  53) = (   0.7704865  -0.0054813   0.7398285  )
        54           Si  tau(  54) = (   0.8814047   0.1357723   0.8699487  )
        55           Si  tau(  55) = (   0.1188041   0.3730908   0.8752405  )
        56           Si  tau(  56) = (   0.2451857   0.5036393   0.7497938  )
        57           Si  tau(  57) = (   0.6288230   0.3892017   0.8660503  )
        58           Si  tau(  58) = (   0.3805333   0.6352722   0.8602462  )
        59           Si  tau(  59) = (   0.7620155   0.5089585   0.7386454  )
        60           Si  tau(  60) = (   0.8828157   0.6343711   0.8763976  )
        61           Si  tau(  61) = (   0.0074729   0.7713264   0.7442134  )
        62           Si  tau(  62) = (   0.1303429   0.8819054   0.8627140  )
        63           Si  tau(  63) = (   0.4999677   0.7689487   0.7474130  )
        64           Si  tau(  64) = (   0.6284407   0.8951084   0.8653223  )

     number of k points=     1  Fermi-Dirac smearing, width (Ry)=  0.0100
                       cart. coord. in units 2pi/alat
        k(    1) = (   0.0000000   0.0000000   0.0000000), wk =   2.0000000

     Dense  grid:    98069 G-vectors     FFT dimensions: (  72,  72,  75)

     Estimated max dynamical RAM per process >     156.83 MB

     Estimated total dynamical RAM >     603.39 MB

     Initial potential from superposition of free atoms

     starting charge     255.9608, renormalised to     256.0000
     Starting wfcs are  256 randomized atomic wfcs

     total cpu time spent up to now is        5.1 secs

     Self-consistent Calculation

     iteration #  1     ecut=    30.00 Ry     beta= 0.50
     Davidson diagonalization with overlap
     ethr =  1.00E-02,  avg # of iterations =  3.0

     Threshold (ethr) on eigenvalues was too large:
     Diagonalizing with lowered threshold

     Davidson diagonalization with overlap
     ethr =  6.61E-04,  avg # of iterations =  4.0

     total cpu time spent up to now is        5.4 secs

     total energy              =    -503.37335306 Ry
     estimated scf accuracy    <       1.88601692 Ry

     iteration #  2     ecut=    30.00 Ry     beta= 0.50
     Davidson diagonalization with overlap
     ethr =  7.37E-04,  avg # of iterations =  2.0

     total cpu time spent up to now is        5.5 secs

     total energy              =    -503.33250986 Ry
     estimated scf accuracy    <       0.43564752 Ry

     iteration #  3     ecut=    30.00 Ry     beta= 0.50
     Davidson diagonalization with overlap
     ethr =  1.70E-04,  avg # of iterations = 16.0

     total cpu time spent up to now is        5.7 secs

     total energy              =    -503.18552381 Ry
     estimated scf accuracy    <       1.53170575 Ry

     iteration #  4     ecut=    30.00 Ry     beta= 0.50
     Davidson diagonalization with overlap
     ethr =  1.70E-04,  avg # of iterations =  5.0

     total cpu time spent up to now is        5.8 secs

     total energy              =    -503.41260101 Ry
     estimated scf accuracy    <       0.05963578 Ry

     iteration #  5     ecut=    30.00 Ry     beta= 0.50
     Davidson diagonalization with overlap
     ethr =  2.33E-05,  avg # of iterations = 14.0

     total cpu time spent up to now is        6.0 secs

     total energy              =    -503.41470952 Ry
     estimated scf accuracy    <       0.02840698 Ry

     iteration #  6     ecut=    30.00 Ry     beta= 0.50
     Davidson diagonalization with overlap
     ethr =  1.11E-05,  avg # of iterations =  3.0

     total cpu time spent up to now is        6.1 secs

     total energy              =    -503.41693372 Ry
     estimated scf accuracy    <       0.00488839 Ry

     iteration #  7     ecut=    30.00 Ry     beta= 0.50
     Davidson diagonalization with overlap
     ethr =  1.91E-06,  avg # of iterations =  9.0

     total cpu time spent up to now is        6.3 secs

     total energy              =    -503.41796678 Ry
     estimated scf accuracy    <       0.00055981 Ry

     iteration #  8     ecut=    30.00 Ry     beta= 0.50
     Davidson diagonalization with overlap
     ethr =  2.19E-07,  avg # of iterations =  3.0

     total cpu time spent up to now is        6.4 secs

     total energy              =    -503.41798836 Ry
     estimated scf accuracy    <       0.00029540 Ry

     iteration #  9     ecut=    30.00 Ry     beta= 0.50
     Davidson diagonalization with overlap
     ethr =  1.15E-07,  avg # of iterations =  3.0

     total cpu time spent up to now is        6.5 secs

     total energy              =    -503.41799986 Ry
     estimated scf accuracy    <       0.00007526 Ry

     iteration # 10     ecut=    30.00 Ry     beta= 0.50
     Davidson diagonalization with overlap
     ethr =  2.94E-08,  avg # of iterations =  4.0

     total cpu time spent up to now is        6.6 secs

     total energy              =    -503.41800916 Ry
     estimated scf accuracy    <       0.00000845 Ry

     iteration # 11     ecut=    30.00 Ry     beta= 0.50
     Davidson diagonalization with overlap
     ethr =  3.30E-09,  avg # of iterations =  5.0

     total cpu time spent up to now is        6.7 secs

     total energy              =    -503.41801152 Ry
     estimated scf accuracy    <       0.00000228 Ry

     iteration # 12     ecut=    30.00 Ry     beta= 0.50
     Davidson diagonalization with overlap
     ethr =  8.92E-10,  avg # of iterations =  2.0

     total cpu time spent up to now is        6.8 secs

     total energy              =    -503.41801147 Ry
     estimated scf accuracy    <       0.00000118 Ry

     iteration # 13     ecut=    30.00 Ry     beta= 0.50
     Davidson diagonalization with overlap
     ethr =  4.61E-10,  avg # of iterations =  3.0

     total cpu time spent up to now is        6.9 secs

     End of self-consistent calculation

          k = 0.0000 0.0000 0.0000 ( 12255 PWs)   bands (ev):

    -5.9668  -5.0593  -5.0495  -4.9881  -4.8087  -4.6951  -4.6323  -4.3021
    -4.1899  -4.1496  -3.9931  -3.9116  -3.8923  -3.8750  -3.8027  -3.7447
    -3.6887  -3.6297  -3.5956  -3.5556  -3.5002  -3.4279  -3.0928  -2.1651
    -1.9574  -1.9353  -1.9110  -1.8849  -1.8575  -1.8066  -1.7132  -1.6808
    -1.6435  -1.6249  -1.5323  -1.4892  -1.4388  -1.4063  -1.3529  -1.2609
    -1.2209  -1.0814  -0.9044  -0.7918  -0.6802   0.2135   0.3212   0.3892
     0.4391   0.4691   0.5642   0.5851   0.6250   0.6583   0.6873   0.6950
     0.8180   1.8714   1.8935   1.9326   1.9546   2.0078   2.0608   2.0768
     2.1151   2.1649   2.1778   2.2222   2.2340   2.2464   2.2890   2.3099
     2.3232   2.3438   2.3470   2.4004   2.4083   2.4236   2.4459   2.4822
     2.5100   2.5596   2.5924   2.7508   2.8327   2.8482   2.8804   3.0499
     3.1136   3.2247   3.2560   3.2987   3.3212   3.8913   3.9486   3.9793
     4.0114   4.0745   4.0943   4.1160   4.1874   4.2583   4.2660   4.2855
     4.3140   4.3932   4.5023   4.6028   4.6172   4.6558   4.6904   4.7245
     4.7349   4.7566   4.8001   4.8278   4.8543   4.8894   4.8970   4.9922
     5.0087   5.0446   5.0981   5.1550   5.8180   5.8251   6.0902   6.3682
     6.3740   6.4499   6.5875   6.7249   6.7962   6.8996   6.9807   7.0166
     7.0594   7.1345   7.2373   7.2874   7.3077   7.3319   7.3936   7.4838
     7.9596   8.0856   8.1719   8.1908   8.2359   8.2748   8.3095   8.3406
     8.3866   8.4430

     the Fermi energy is     6.3042 ev

!    total energy              =    -503.41801163 Ry
     estimated scf accuracy    <       0.00000009 Ry
     smearing contrib. (-TS)   =      -0.06953387 Ry
     internal energy E=F+TS    =    -503.34847775 Ry

     The total energy is F=E-TS. E is the sum of the following terms:
     one-electron contribution =     140.91121865 Ry
     hartree contribution      =      39.08081034 Ry
     xc contribution           =    -153.55935813 Ry
     ewald contribution        =    -529.78114861 Ry

     convergence has been achieved in  13 iterations

     Forces acting on atoms (cartesian axes, Ry/au):

     atom    1 type  1   force =     0.05363806    0.04798372   -0.08519141
     atom    2 type  1   force =     0.04642256    0.03182778   -0.02416264
     atom    3 type  1   force =    -0.04297400   -0.00474656   -0.00367594
     atom    4 type  1   force =    -0.00807219   -0.00339540   -0.07644671
     atom    5 type  1   force =    -0.01526896   -0.00565875   -0.01675165
     atom    6 type  1   force =     0.01597630    0.02244231   -0.09594464
     atom    7 type  1   force =    -0.06272449    0.02689593    0.05115725
     atom    8 type  1   force =     0.03694830   -0.01826313   -0.03280944
     atom    9 type  1   force =    -0.03914128    0.03507944    0.04302138
     atom   10 type  1   force =    -0.04221451    0.00168939   -0.08753857
     atom   11 type  1   force =     0.09577725    0.06068323   -0.10188683
     atom   12 type  1   force =     0.04575717    0.05775906   -0.06195831
     atom   13 type  1   force =    -0.00276599    0.01768885    0.01080106
     atom   14 type  1   force =     0.00469197    0.00193787    0.01454747
     atom   15 type  1   force =    -0.00801378   -0.00234480   -0.06901239
     atom   16 type  1   force =    -0.04851471    0.01194050    0.01043636
     atom   17 type  1   force =    -0.06470898   -0.04179309    0.09390826
     atom   18 type  1   force =     0.01154116   -0.04593252    0.01761764
     atom   19 type  1   force =     0.08519324   -0.04659309    0.03102183
     atom   20 type  1   force =     0.00225833   -0.02084267   -0.02713305
     atom   21 type  1   force =     0.00590998   -0.08133061    0.00387931
     atom   22 type  1   force =    -0.02967890    0.00247041   -0.03495514
     atom   23 type  1   force =     0.02439062    0.04062653   -0.08445276
     atom   24 type  1   force =    -0.06549289   -0.05252523   -0.04629962
     atom   25 type  1   force =     0.12102607    0.09929423   -0.02562983
     atom   26 type  1   force =     0.01174545    0.02151920    0.03099851
     atom   27 type  1   force =    -0.02368534   -0.00894341    0.00033073
     atom   28 type  1   force =     0.05215038    0.06422383   -0.02359765
     atom   29 type  1   force =     0.02261908    0.07418393    0.04117058
     atom   30 type  1   force =    -0.02071226   -0.01863065   -0.01076005
     atom   31 type  1   force =    -0.07256301    0.02553881    0.00698518
     atom   32 type  1   force =    -0.03098833    0.00997772   -0.02046831
     atom   33 type  1   force =    -0.04676181   -0.04548540    0.03127403
     atom   34 type  1   force =     0.10409230   -0.00250149    0.00574821
     atom   35 type  1   force =    -0.02991544    0.05229926   -0.01310321
     atom   36 type  1   force =     0.04949257   -0.02922112   -0.01686956
     atom   37 type  1   force =     0.03910456   -0.03910351   -0.01695208
     atom   38 type  1   force =    -0.04215256    0.00722433   -0.03690601
     atom   39 type  1   force =    -0.03697069    0.01801256    0.01796346
     atom   40 type  1   force =    -0.05480835    0.00334575    0.05039172
     atom   41 type  1   force =    -0.06693332    0.05807884   -0.04852306
     atom   42 type  1   force =    -0.06699192   -0.00736885   -0.00482896
     atom   43 type  1   force =     0.02608873   -0.06469730   -0.02114514
     atom   44 type  1   force =    -0.05542697   -0.00089034    0.01012897
     atom   45 type  1   force =     0.01320080   -0.02009202   -0.06412363
     atom   46 type  1   force =     0.01310695   -0.04646615    0.02631402
     atom   47 type  1   force =     0.07204096   -0.00911938    0.00487716
     atom   48 type  1   force =    -0.09795557   -0.10091598    0.03062588
     atom   49 type  1   force =     0.06985793   -0.03130625    0.02146178
     atom   50 type  1   force =    -0.03082532    0.02858296    0.01289606
     atom   51 type  1   force =    -0.01386402    0.00785681    0.07051537
     atom   52 type  1   force =     0.04440943   -0.02961794    0.00014614
     atom   53 type  1   force =    -0.04813014    0.06778018    0.04684003
     atom   54 type  1   force =    -0.01804621   -0.04028487    0.05919850
     atom   55 type  1   force =     0.02299168    0.02318428    0.05078319
     atom   56 type  1   force =     0.03053371   -0.02202893    0.01838535
     atom   57 type  1   force =     0.02127858    0.00185106    0.07154673
     atom   58 type  1   force =    -0.00883902   -0.00613099    0.08498537
     atom   59 type  1   force =    -0.00784621    0.00846458    0.03452612
     atom   60 type  1   force =    -0.01508159    0.02023537    0.01209245
     atom   61 type  1   force =     0.00132108   -0.10271094    0.00355049
     atom   62 type  1   force =     0.03267753    0.04489893    0.09191215
     atom   63 type  1   force =     0.02958713   -0.02095600   -0.03612200
     atom   64 type  1   force =     0.01223891   -0.02568028    0.07520985

     Total force =     0.619149     Total SCF correction =     0.000526


     Computing stress (Cartesian axis) and pressure

          total   stress  (Ry/bohr**3)                   (kbar)     P=       20.90
   0.00015161   0.00009601  -0.00006490           22.30       14.12       -9.55
   0.00009601   0.00017098  -0.00012768           14.12       25.15      -18.78
  -0.00006490  -0.00012768   0.00010366           -9.55      -18.78       15.25

 
     init_run     :      1.21s CPU      5.07s WALL (       1 calls)
     electrons    :      1.67s CPU      1.79s WALL (       1 calls)
     forces       :      0.04s CPU      0.04s WALL (       1 calls)
     stress       :      0.16s CPU      0.17s WALL (       1 calls)

     Called by init_run:
     wfcinit      :      0.56s CPU      4.24s WALL (       1 calls)
                                        4.24s GPU  (       1 calls)
     potinit      :      0.20s CPU      0.30s WALL (       1 calls)
     hinit0       :      0.43s CPU      0.46s WALL (       1 calls)

     Called by electrons:
     c_bands      :      1.06s CPU      1.11s WALL (      14 calls)
     sum_band     :      0.32s CPU      0.35s WALL (      14 calls)
     v_of_rho     :      0.15s CPU      0.26s WALL (      14 calls)
     mix_rho      :      0.12s CPU      0.14s WALL (      14 calls)

     Called by c_bands:
     init_us_2    :      0.05s CPU      0.05s WALL (      29 calls)
     init_us_2:gp :      0.05s CPU      0.05s WALL (      29 calls)
     regterg      :      0.93s CPU      0.98s WALL (      14 calls)

     Called by *egterg:
     rdiaghg      :      0.42s CPU      1.16s WALL (      89 calls)
                                        1.15s GPU  (      89 calls)
     h_psi        :      0.90s CPU      3.86s WALL (      91 calls)
                                        3.86s GPU  (      91 calls)
     g_psi        :      0.00s CPU      0.00s WALL (      76 calls)
                                        0.00s GPU  (      76 calls)

     Called by h_psi:
     h_psi:calbec :      0.51s CPU      3.39s WALL (      91 calls)
                                        3.39s GPU  (      91 calls)
     vloc_psi     :      0.34s CPU      0.41s WALL (      91 calls)
                                        0.40s GPU  (      91 calls)
     add_vuspsi   :      0.04s CPU      0.05s WALL (      91 calls)
                                        0.05s GPU  (      91 calls)

     General routines
     calbec       :      0.51s CPU      3.39s WALL (      96 calls)
     fft          :      0.52s CPU      0.65s WALL (     119 calls)
                                        0.13s GPU  (      76 calls)
     ffts         :      0.04s CPU      0.05s WALL (      14 calls)
     fftw         :      0.40s CPU      0.53s WALL (    1538 calls)
                                        0.47s GPU  (    1538 calls)
 
     Parallel routines
 
     PWSCF        :      3.13s CPU      7.16s WALL

 
   This run was terminated on:  11:13:12  10May2023            

=------------------------------------------------------------------------------=
   JOB DONE.
=------------------------------------------------------------------------------=
