-0.3474385695012016 -0.1479289346052162 -0.38881867510988516 0.7688385209812177 0.12082667907178546 0.14923068413577525 -0.6052515681237705 0.042208772157566014 -0.4305235110478392 0.4463157408850894 -0.02079662503037709 -0.13133632035385767 0.13618156426130096 -0.02487593730607329 0.46384500801810435 -0.9045184630157518 0.09330044862705866 0.5457346437050601 0.3640597229976504 -0.4761965876049218 0.03866142112593987 -1.0396291628103773 0.2900587460301521 0.49656126730420286 0.5311765433852271 -0.52384838515493 0.9430487578804662 1.118109258595152 0.36678483523829736 -0.7798523555932182 -0.23633323148223812 -0.32779354157676455 0.2842989607282394 0.6042084715712368 -0.4533754759453482 -0.8670829438771133 -0.5316054033925296 -0.19239436400744286 0.5471829461158124 -0.6955602811123569 0.42328097055281294 0.3555257173847103 -0.0003476131474058529 0.09066995298274708 0.23248326160852864 0.5203820238728845 -0.16788172357805925 -0.7417946294895483 -0.49757608172196244 0.6572199907712617 -0.1654764565706763 -0.2717944005033255 -1.025364682471563 -0.3455135845643469 -0.40032307620505897 -0.5656784338168387 -0.309267457748119 0.4447836205112792 0.20202417378772303 -0.3143279029901619 0.5003019652935577 0.1510227430391915 -0.12596837117372497 -0.07187904552848912 0.47261606934251504 0.7243070142277461 0.04909984285044447 0.36947163804184113 0.49609255519790046 -0.35940808315825196 -0.29275789012887 -0.41471919702573096 -0.18825025993208225 0.009968938287253799 -0.0527243269769092 0.031289554141900947 0.014053135658956441 -0.1916106917638829 -0.10288989208770667 0.12544360901850654 -0.040667652922691255 0.6742116402332518 0.24090979510932706 0.494554007066187 -0.32534687980848487 -0.17016666295749402 -0.4115215160240397 0.4126826262116764 0.4472482800016878 0.4434456184261459 -0.5501317443314914 -0.41351694918751364 -0.12011628326832217 0.45290290718430387 -0.43335429562841493 0.6999746081299687 -0.702466778424203 0.03740852255544525 0.3212500840312919 0.006172961579931304 0.11135730612876951 -0.7794841736205221 -0.021691883151136834 0.2418544184107835 0.5923703412857282 -0.1857956277440026 0.6224982710193602 -0.47693963641853343 -0.1987879262386125 0.6692689515159956 0.13636796924049416 -0.09020509753118658 -0.7163540779292565 0.621374184717246 0.43616271161148756 -0.05389006515023621 -0.39692227805362607 -0.048113824788091335 -0.11075952464377055 0.729621227351808 0.3518809215432714 0.5871355752493501 0.6867357408421916 -0.19876195809668348 -0.9114082481570498 -0.5563309311636676 0.28255472434362305 0.47024859755160303 0.4946139137698449 -0.05658483837357997 -0.4726176120044119 -0.6075128533541214 -0.4255509975339123 0.313170392346951 -0.8387838398221038 0.5248750266472316 0.16728702741685383 0.2954436644911493 0.5543349837795615 -0.5384085423572921 -0.16449943736938766 0.08433861144808057 0.12028211942222511 0.4002976222837622 0.744863241112543 0.8014845891510132 -0.2855356613488179 0.15440014415185668 -0.04482409829322603 -0.01652113758347477 0.3082001928258692 0.47069442683977003 -0.1448011876095119 -0.583782085396085 -0.20244300649269653 -0.33051196894919205 0.027736289573003843 0.1849672183054363 -0.5688869134518073 -0.7909294393429862 -0.1689235345790123 0.9988982607499184 -0.5489780903430223 -0.8605687969076792 0.07978415930817873 0.6919921041451244 0.8276229381092779 0.0029431417887239636 0.42424410579703065 0.3916126929152546 -0.24048093510202456 -0.34320756213898956 -0.4009553104724191 -0.44137048106467214 -0.9887015227225747 0.35114764292167266 0.35328294409712063 0.06772799947459303 0.35819169425264763 0.18176722331089987 -0.2034123123845013 -0.4498623205857672 -0.7880624022078364 0.05359001741131416 0.03966672246200266 0.48660261342959427 0.12345640338514866 -0.1341388227996593 -0.4692003587927468 0.6241792582662089 -0.5819236920311075 -0.35913323223031046
0.2445731028935272 -0.6566070397776111 1.6258874776610965 -0.05527074754784675 -0.18787719286337967 -0.7096411846854552 -0.3351900911511517 -0.27880708437573276 0.09773714424217361 -0.16376050232083408 0.381022318993918 1.8224709400492227 -0.009823413848325017 -0.4370985931621956 0.597174704652907 0.9551869359048969 -1.5473685582185865 1.5604565017507963 0.7912816804760825 0.7671549626312077 -0.25200410525027567 -0.16752793978306635 -0.18628336601369852 0.384227456194777 -0.11919917077069148 -0.8364801313895917 -0.4008025869446388 -0.7263770093828974 0.21986711550641488 1.0384513404521922 1.1363864596377846 -1.495457214061276 1.7914629217034823 0.26012904835025524 -0.6119125250837139 -0.49678778149271224 -0.045044184723832106 0.6253809918837939 0.5521179215235845 -0.22012422582254346 0.332653183661911 0.6644152229681202 -0.06466041629286284 0.5350897623967042 1.3498391869774238 0.08766947559352643 -0.1260051379489314 -0.1529497848585753 0.315367914218902 0.4067143244433834 0.533325728517746 0.32335093242437857 0.30003822584036716 -0.2977499440268227 0.5645972849375179 -0.679884522248313 0.44369630098437135 -0.26290583976444404 -0.25523238237958623 1.2845881882884134 0.5917332219223616 0.7325836524142415 0.3426851139766163 -0.10671569359170009 0.48396748979959237 -0.3505840571087188 -0.44454270814506663 -0.023808415273507383 1.0995093841057775 -0.5840731342739425 1.15670305970795 0.30344750863223224 0.17751718978529427 -0.5303782158536479 0.039181298185151876 0.4721229317561804 -0.13163842497530878 0.45439826078290774 0.20498068531288569 0.19335852769292505 -0.11170929015154955 -0.40965463801863 -0.6836087651774356 0.3945458074016495 -0.021739705669936753 -0.7731469185485845 -0.21679259034614917 -0.3938444104592507 0.21930481524504167 0.40556195600649503 -0.19164720142877317 0.10577132740055976 0.4701501243005258 0.4019891510535722 -0.08988216697412907 -0.19765715506827894 -0.27574592895190575 0.6177088200505167 0.07921260307542487 0.5907150650704924 -0.03251288502604077 0.4409159100257568 -0.16037795900184634 0.6359202008522209 -1.0561467008494263 -0.45683463813854225 -0.6106837948829353 -0.2875660615152854 -0.13807003953326544 -0.03357140819754218 0.23281673368854744 -0.67774690708002 0.2035969175914816 0.11740582631569457 -0.25824417262271654 0.1244190244087341 0.08784868148386805 -0.023890433464352403 -0.17586936976922615 0.09455411852850167 -0.2617750685941104 0.4604596364856392 -0.6784855850182573 0.12723901035603247 -0.6224741026496441 -0.18320318442647804 0.21493599675338465 0.3795932998568753 -0.07487129538759364 -0.4443179937287703 0.04621352244158493 0.3802491882733193 0.3093402199675833 0.7047486324798443 0.06838568766324997 0.012546726316759037 0.13953351145266937 -0.4595551223934989 0.0635638407945744 0.25847094392154196 0.08011068940966204 0.045355545316663824 -0.0926486739756727 -0.11251147433787073 -0.2012237893736147 0.09158372304626808 -0.08304611788890214 -0.15618423263547296 -0.43647227243210635 0.6281714101447374 -0.13543337324136678 -0.05496684315418275 -2.715006519671485 0.37938632605239175 -0.46254762936291954 0.08271958778741884 -0.09038507475247659 -0.05546049496114965 0.18580514082569935 -0.056937593727308396 -0.22759739427113707 -2.091091827920573 -0.6027552840644781 0.7591418625187443 -1.5841569306915297 0.7358507532012875 -0.950210565736228 0.07143938688790923 -0.027378906233585108 -0.7898824861357105 -0.9713715160845594 0.0037206433846968174 -0.47827840983461495 -0.7790285741403421 0.3621239394275183 0.7970152405257499 -0.05377873638335254 -1.3003012281482962 0.7237192600450763 -2.2054485829972985 0.04972050715357889 0.40713624247215047 -0.30435690782037905 0.07720174329298317 0.7763559124041856 -1.8264198973946415 0.6189758596883985 0.7612702217156567 -0.30671049565422015 -0.5278585347555876 0.20815574060675762 -0.8455317000688986
-0.7620217551697006 0.31183213315150166 0.36985601796445333 -0.9931472171987541 -0.08417894594176471 -0.011460949451748003 0.18275915491052397 0.8439278459168885 -0.44641395702585057 -0.4735370384948877 0.0546426270455446 0.5914825393641361 0.6201215432570675 0.34859042371745774 -0.07675925643892587 -0.008483097770346679 0.17781158109726153 -0.1744930582469898 0.6357394522999826 0.5792541156187444 -0.2945288659863637 -0.4989745047313858 -0.2607306864899961 0.318033119755891 0.19090338128421316 0.6584060406595629 -0.2711688511041846 0.3834517543710171 0.5974354145134614 -0.07075418789542653 -0.42572994631393785 -0.5082878117125117 0.04757415023453742 -0.2600632281093263 -0.20362211440246222 -0.7907731162707801 0.6974798667325729 0.17286117907052165 0.2168830931774265 -0.5429108011030198 -0.19594480036286255 0.08369506432681069 0.2547238181742839 -0.11686255221771487 -0.04338659451575108 -0.22998414933575875 0.9019460743028854 -0.31988071448759103 0.6116824113507788 0.2454933007149514 0.2769443201353811 1.0849800801413507 -0.03262447090324059 -0.6066139956889359 -1.24317620100053 0.2738533399148832 0.3445910727500775 -0.7324183304809708 -0.22611798151213314 0.34819704493378095 -0.029106944668285353 -0.06732150806479374 -0.010234533243814632 -0.2072442845360818 -0.957608657972512 -0.1541918847957925 -0.34549995771759207 -0.5281516405159743 0.17512889205877583 1.1908444814763492 -0.6055112495430605 0.3790299711542376 -1.123356108816388 0.3213634696807046 0.2928882450591472 0.10073505052823296 0.43372119204953047 0.5053562398880135 0.12323477429264583 0.22673298938831274 0.6256643274521676 -0.4089912934030182 -0.26985373183718686 0.07524744778008977 0.8990427846131612 0.747802526246525 -0.26046894818817723 -0.3298753638064577 0.24457567399668845 -0.4393925314026949 0.6226674496073727 0.2832998300397637 0.18207035637361546 0.47117805134440793 0.21085874136021748 -0.1472563340182238 -0.053137503254927845 -0.019414142860553662 0.27523325098154533 -0.7078010461529229 -0.4272949768082125 0.2116794374893 -0.09859897802183665 0.2724724004069565 -0.30463921494748825 -0.873808949747037 -0.9397700871291943 0.9169551461172079 0.6428801771098219 0.4743628768302927 0.7541865753959979 0.4454328240595038 -0.6155961445828881 -0.8529369913940341 -0.2363874817589413 0.20888053458792413 -0.39999397500041434 -0.4711171161994854 0.2980757027973577 -0.24452142371998536 0.9459327642964805 0.515640652533157 -0.37056564243696827 0.2777231072829346 0.45715834002654815 -0.1760046097955098 -0.19085581587572936 -1.0309295781538503 -0.18704981186607786 0.05073917822608036 -0.1757647258705618 0.3112562060433736 -0.08551951913005917 -0.37457399226541294 0.7058603774867844 -0.564989121059298 -1.3388376936605977 0.1872724693998452 -0.2763933327279175 -0.23358240820997836 -0.10030207675587241 1.345723107926521 -0.24515982863493266 0.16159254813523785 -0.14456284634646072 -0.5673661059319067 0.3472879028559503 -0.17760229329993282 1.093912092523658 -0.3696575288004021 0.1578744758537023 -0.46765075491743974 -0.18252775562600823 -0.007418403951258192 0.20598007311167754 -0.09351333596881313 -0.09156084022813264 -0.1822775872884151 0.500416379384235 0.7418409093464514 0.19040021639554952 -0.7750477351157233 -0.3519994493990067 -0.19141708769583807 -0.03111626178883028 -0.5081880529098538 0.564303407846183 0.5715040393596802 -0.4513365911384485 -0.31417106569732345 0.04230158898168843 0.347193286259615 -0.4161240477930575 -0.17994611094176108 1.1248195807357917 0.26183137575334264 0.03705885252551037 -0.039130133232242285 -0.3808857934160537 -0.3944303648697078 -0.39528551378115145 0.24895863355573253 -0.3731989662947573 -0.10701214178619635 -0.683293547929862 -0.26850981621478276 0.06823193569420508 -0.10738109508984087 -0.553070515244841 0.22929020859252772 0.34192226766866274 0.11956401030927793
-0.5804306524253487 -0.6431812532900084 -0.5576018274562913 0.08557351229644618 -0.4937286829514142 -0.50123424729984 0.4034382247952729 -0.6738863956833491 0.5867000303738282 -0.4235910455940641 -0.1396522964187208 0.28155816475830864 0.32020313082401625 0.9926234834848001 -0.32111407267405984 0.24176468691045458 -0.46004131800129805 0.22931232007971478 -0.8155680638272729 -0.2300132028014813 0.7701657244330736 -0.05297320976292167 0.024831971442015297 -0.9867510838644231 0.27207927873359594 -0.8458926829527431 0.017036643767312596 -0.03751136668189669 -0.2173312364584386 0.10613153895345592 -0.027352680981339993 -0.6789437556015985 -0.6747700838398831 0.41805108961244125 0.23766532003010035 0.477474682986397 -0.07526261728874135 0.121483595929494 -0.1588260411336942 0.4283789539010106 -0.14477444813663454 -0.6076231536797406 -0.8177504161905723 -0.27461772888473346 0.34793324974943307 0.4493704685510132 0.7104857920739376 0.14763068663850704 -0.1251139935932297 0.27736675238478037 -0.22376927877429847 -0.030557046851250602 -0.4310937817290124 -0.14037297663482923 -0.44174586212621986 0.37410887970353635 -0.11875334148252453 -0.18877399364603617 0.5082518162682537 0.23691327235542425 0.27548907574609327 0.3074157492513609 0.06590817265703487 -0.4188707573002593 0.30635928296238857 -0.3596381968911871 -0.34852408925589656 -0.2085511762729634 -0.16934211017366965 0.2878285711480527 0.33625838451466605 0.2656085834075877 0.32988667666036736 -0.03992486121939576 -0.5514692321959922 -0.5389806128106782 -0.5389438460354717 0.0177084730233566 -0.643390283977021 0.008580542580159417 -0.22415263025564622 0.49332013465908586 -0.06836203351416613 -0.8769904327988122 0.2231758681646737 -0.47522033973458155 -0.0008170965846566573 -0.601577718816609 0.6496095254138554 -0.1780833467014094 0.2630048272361535 -0.39689348169821964 0.5766444459100392 -0.2791672959286289 -0.2317150159839364 0.17351861014886244 -0.12584830065609295 0.3884870028020793 0.19986136180844935 0.7366287690178926 0.5882622326546256 -0.10479842196432919 0.20739777939481058 -0.8353429324613548 -0.16710165087892512 0.2987750428572274 -0.026974214595998705 -0.2363283463862317 -0.20574301740020692 -0.17195563653711676 -0.01677876212023562 0.5558349653638556 0.31206224688443673 0.36868616602606824 -0.031731526775326 0.5008938332412858 0.5312351645373045 -0.10788477419913678 -0.4975125754738787 -0.855295721434198 0.34589642182506236 0.148702322436131 -0.23082387162823476 -0.545716388872615 -0.623567592824139 0.5907508034044342 -0.17758532401906835 0.4801555722526698 0.6372309492438444 0.089026246731737 0.19055808212965247 -0.6246921933468855 -0.4544957055927205 0.9086024032771384 -0.20814417064253185 -0.11187384075387186 0.7168150767260751 -0.26149173302573675 0.33041735235285674 -0.004159016473696063 0.6783074075691802 -0.0029709097028658513 0.42377256547725084 -0.09515344267539742 -0.2968842535924177 -0.2132642654779166 -0.9124274334501834 0.4981723205450646 -0.2773970914020835 -0.07390276082673723 0.05010488707619113 -0.11552455013258169 0.320184618881255 0.5065104080971149 -0.3960874408571565 -0.3907439171570561 0.2650239145487113 -0.4671771577151309 -0.05057617028565483 0.20765951769662944 -0.06689316227812352 0.6165330545748607 0.5759515336080726 0.8830286685730923 0.9310008255769966 -0.3891588320581233 0.33359292186736095 0.34955613006483666 0.18747198700516102 -0.24537143042510648 -0.22936991279052754 0.008128285534089228 -0.48350443412024474 -0.6492526562950689 0.43826304578394204 -0.2175747199278124 0.1540766993741669 -0.22063356135879422 0.2309642538608409 0.3512617999020337 -0.04628499910946868 0.6632057760410514 0.6038510882318182 -0.4128536045719019 -0.22954346225391434 0.15071626754236622 -0.1958902929758433 0.20022388735419067 0.6044771518515912 -0.0201294237600234 0.24024902159687656 0.37021674373798175
1.1102005452710364 -1.2162570080121826 0.7636137822471688 1.0218160458883563 -0.059342860734691354 0.05705792135525658 -0.4150020183734724 -1.1077777947621565 -0.7297839781819173 -0.22338746995484754 -0.4318463436243207 0.7572011938526056 0.4463576498666183 -0.3411385954251028 -0.23053899339796427 0.14911472738320125 -0.4398139352108296 0.2400980978413091 -0.36968786781770524 -0.9712997823063595 -0.1147269939319508 -0.7963909766781897 0.5743361094918367 -0.9075173977430757 0.9532838053449131 -1.5273846588974922 0.712239798650567 -1.3095181187608738 -0.7616977961713784 -0.7054405163405464 -0.018773938173393474 0.16705357124980905 0.3450281602874961 0.13015438423061457 -0.5320692304028256 -0.47127781014706577 0.7066857016015571 0.35972895683278044 -0.7381403205664125 -0.5074809995405003 -0.05475832668780247 0.2363476296599413 0.3799496547550295 0.39789595482080503 0.09529639601116492 -0.17545130839520107 -0.40230411119082976 0.19441705086442646 -0.009628781339015676 1.0911031623199532 0.44270694048790854 0.3376141272116121 0.3643538571993015 0.40094091229471596 0.3295282648796841 0.3858364525531097 0.2587365388781028 -0.12379013257548359 -0.2503657983159043 0.8784001686621452 -0.7995056110477714 1.4946686567217098 -0.438279243733858 0.3889873394772656 -0.380888364519215 0.27672371948414276 0.45709072001340634 0.4221255167921311 0.07205079521966301 -1.1857547256582674 1.3563726172205672 -0.6140817648208908 0.03729487979571641 -0.49816023636020657 -0.8271118028008143 0.09731136955866466 -0.3032238226572004 0.11389524205927481 0.03530253195603598 0.02452909548961582 0.17744057091108795 0.1375956710000082 0.7849333696605514 -0.18722001889535497 0.559340664524269 -0.9375851636627336 0.2990105559068012 0.38846463420457616 -0.47123153029016257 -0.0272781189896627 -0.5350095439780721 -0.9788397994371465 0.4391403061825727 -0.1928031694100873 -0.47546073788016174 0.6730870397105053 0.044191092694917444 -0.3109826406670128 0.008576171704785229 -0.10512623761739315 0.4905744535931486 -0.028294218959002887 0.1435925120133914 -0.39395831032929574 -0.2205209470403299 -0.2980037119088416 0.7254354714052346 0.011730401063050766 -0.026094640204522804 0.3090926227331515 0.9850785812580067 0.05853681989362822 -0.444385356631596 0.5903574246207575 -0.015742607546237405 0.2929941745093922 -0.6714302208333727 -0.16236542174552038 -0.8156660228577178 0.9982166613018615 -0.4963141842904033 -1.0431222635653004 0.09125076518688155 -0.26178123924169755 0.3289903900983431 -0.8797885643692396 0.6517245148743293 0.7505402368926622 0.5536065902539692 0.3613063286222294 0.20381777535303608 -0.5382640463596279 0.17256164555223186 0.9008561836728163 0.3880221473505189 -0.26765852395808093 0.794974041726005 0.27140693525691967 0.2863219046955391 1.163325964341106 -0.4181649894824862 -0.9761946485048154 1.1133668588141599 0.3055257313174996 1.2152702186188813 -0.3232141497361982 0.6114605251479598 0.21613207394401487 -0.9935825049639597 -0.3349512356674683 0.17256164555223186 -0.7812770038548866 0.5468337903065098 0.08765713429835226 0.4878174596733018 -0.8483889670120357 -0.47755155897091955 -0.9824714826524629 -0.5660561288712316 -0.5668642265948237 -0.14918131895507858 -0.44329495178089456 0.1140777903837261 -0.23784889679581617 -0.8720415734339692 0.1555892793639514 0.34735937952383406 -0.047820976138020874 0.5178124633734954 -0.00882762559395899 0.2219723347748758 -0.005481849050177655 0.09723037980908417 -0.8456620549991759 -1.1456879395443689 0.4167444549858758 -0.28812270534970374 0.29568097731293597 0.4707245087467571 -0.2879566120854847 -0.3319499869472993 -0.49047675167301985 0.3351903482614679 -0.1566264623792141 1.6712473938531347 0.044065365750330564 0.2846589151708194 0.1238623805743157 0.5762335836248657 -0.4881398760097271 1.0045485170571604 -0.6908047687052425
1.861573305367323 -0.05632258585112881 1.3429530013805515 1.9278113505599508 -0.008995004409758704 -0.3153913112576697 0.3397450575116859 0.04394812344617592 -0.5440775677176114 -0.11405259357274553 -0.5915961821238651 0.5816591255158111 -0.4385301834023996 0.6678779847057401 0.0279679459678357 -0.5208841603202835 0.6667443853219291 2.0215018355365766 -0.12272441031513057 0.6753375263075788 0.2824300258403007 -0.031789376596454935 -0.46153255783484387 -0.42083842254959136 -0.21218285948827975 -0.12662760202427872 -0.19096611620134854 0.42544223987018986 -0.21523964403673254 1.2695708889439747 1.1082711894588075 -0.3701763774183496 0.8367130733360042 0.1531719281717104 -0.44186670397480027 0.3082770688103917 0.729879108998885 0.40037501248891694 0.025686091912194474 0.06867930764426881 0.10303258831315804 0.5876816775608074 -0.15806936547332778 -0.108974921939522 0.8241308657956193 0.3466518119338482 0.49654815467808033 0.3219517380840068 -0.9677868840570947 -0.5395313431078257 -0.46443867573804526 -1.0035966946668522 -0.026894510397998846 0.22139126546042517 0.5246456842452448 0.10177891841171503 -0.03248177467778922 0.4979648325199489 -0.8036993374141449 1.402925525279442 -0.09277594358215634 0.08634201503135452 -0.21218697325333777 0.5684595961064016 -0.05031828863857785 -0.020069517056365435 -0.7165011450300822 0.2555424574208373 1.1291120374635586 -1.3069925241255425 -0.5894881346419267 0.6411125436864378 1.6647371035384426 0.5991894210900907 -0.1741567579534936 0.5841240421165359 0.5819499172833527 -0.4947162436756641 -0.06187231202476441 -0.8085949749435494 -0.05567929584017507 0.3174222256447695 0.21224070930940866 0.820721068783122 -0.4567215095994457 0.22632624086819733 -0.6743224547795031 -0.427450014328838 0.9043641968260747 -0.05116906667464736 -1.5146828950601074 0.15316395775191038 0.4139512085114548 0.3337862688250896 0.047769811185111276 0.30477008409839773 0.318123108366536 0.06912770803559708 -0.503487562110391 1.1614027791764643 -0.4060252687961588 0.2610767569755052 -0.04252578917735257 -0.6873821161769388 0.8121125011785046 -0.05815732506702242 0.17247911314075456 -0.5919060000548 -0.626682741414353 -0.09402832793201871 0.2689918980575238 -0.16803316155425901 -0.7787200417609879 0.2668614819780823 0.45078817483414624 0.1104633335595904 0.15177119116944182 0.15465314070292718 -0.4602287514217558 -0.06711761958410377 -1.0101630350304602 0.7864307801416843 -0.24790679525245046 -1.5620498143798454 0.22108093330885792 -0.034950033712623674 -0.26770686069751315 -0.358846297117511 0.5069819484168946 0.80934008063969 0.046728000184158236 -0.771627910800897 -0.12247861285291164 -0.2903899041173257 -0.33676874849218136 -0.09375501966597401 -0.379214833471534 0.3597976052871868 -0.09897101664927471 -0.29842383016539575 -0.28695285341131865 -1.6014236881917774 -0.08548429501674955 0.1254171266559453 0.9930533719333672 0.36630275339555624 0.4857094121913635 0.30203468744510564 0.2781933620511338 -0.05292692990601852 -0.2750355331484425 0.3774019486325113 -0.9896548877747795 0.3742070958442975 0.34179268406933394 -0.4269347652553164 -0.6391603050560735 -0.9933310510747859 0.2388624256619951 -1.1337953018718407 1.3225145310205417 -0.749806186940115 0.04604665784641747 -0.11023887625361013 -1.067849333998335 -0.08213620448012307 0.6709018591337285 -0.2355107355809428 -0.2910699609034858 -0.0037412122099871052 -1.3453145596341929 -0.45254835205836247 -0.13930931125700524 -0.8094465243105672 -0.15787010497832812 -0.1552537504014036 -0.21309765799306524 -1.3715714364481928 0.1801443429954962 -1.3714829904994446 1.6572526222359394 -0.03821302073461161 0.4517978470455832 -0.47313414662951414 -0.09068435116045026 -1.6769899527638668 -0.4664577630506031 0.011875925501979547 -0.3869104023435788 1.4220717591905896 -0.6085958020056551 -1.4767503816803922
1.1121898077869232 -0.5778883456194693 -0.3403101859865365 -0.09139886072897162 -0.5786301088815002 0.05585618773767155 0.2717833447597319 -0.5612491944008915 -0.1372557711620862 0.4377843063753105 -0.11459303945724782 -0.33312523820232304 0.022776888685199483 -0.4037575558079047 -0.09791017948492815 -0.4219925907586926 -0.029709868359606897 -1.0475659011589507 0.0351544364139459 -0.3787258096502574 -0.14639861400361884 -0.09366554527596126 -0.4328922683903319 0.3351741503115518 -0.5628049689237856 -0.6140735372907747 0.18405447668317979 0.5603151126223963 0.6016980464445573 -0.9324876945351683 1.2184216197636693 0.5723265352609755 -0.43874615606794765 0.1823907158275117 -0.25983182882481054 0.4249563013727068 -0.4851800220504547 0.20444512452438982 -0.48363144661641233 -0.5726497229283491 0.22381710129309842 0.00822984410896002 0.6110285798168638 -0.0032172213857170396 -0.7224789598800718 0.10805858077283972 -0.34070562165274226 -0.13136151716483827 -1.371758612758334 -0.6551415109756781 0.11527515312593695 -0.737695262609194 -0.35918799672764595 -0.49208523381072033 1.412111562654084 0.18909538154119693 0.17778355607280352 0.4668570553715508 0.05558570768510427 -0.43869216290156066 -0.6597265592431992 0.4957660250964172 0.06847747604610788 0.3415718263077795 0.3982939615901721 -0.6833043465631393 -0.23037701389880325 0.1592425598458225 -0.46940296172185614 -1.0044891245741345 0.4016343388173148 -0.6330734754320453 0.6320126382676986 -0.32889680194327225 0.3620702033714474 0.2325346836717544 0.03278207952702741 0.244568732018153 -0.011683349875199233 0.18589975742203468 -0.009769420681938012 -0.15500641027728787 -0.2884137542275614 -0.32605573295005136 0.47297036735814035 -0.31992056658659096 -0.3316244852870805 0.332985113080033 -0.8081308908229372 0.19465050703147121 -0.11568524408016206 0.3128757439246676 -0.6289093167520265 -0.4087930613492831 0.34803609387588447 -0.037483341657438676 1.0782098512970526 -0.10165036325365073 -0.7781361442330598 0.16326299385912527 0.6874787896558031 1.0087856950669594 0.019710848165366054 -0.6970206677079673 0.37458453378837425 0.8647802638858655 -0.37507201494775405 -0.3487305488397478 -0.2673448493724041 -0.9177136215497872 0.15753123358167062 -0.0031532009170010212 -0.6278037423926737 0.37191547159664334 -0.5781192306833528 0.7170575317541844 0.18037677072127645 0.1485377718338087 0.023453088816617673 0.34440543910183263 -0.3691651625450158 0.11371346506577189 0.06627224086467295 -0.6992359301917312 0.5898198069497326 0.23245189414996095 0.07884570665430937 0.2800016189044662 -0.5624496424668958 -0.03069074421563746 0.30681308267035545 -0.06788252277458633 0.14599572213824533 1.117356182479211 0.24529172622710657 -0.3839929715864677 0.4054984497584114 0.4465126873872439 -0.1630894443957385 0.24756740963516072 0.3115914778956053 -0.3889760266233559 -0.03946643352573848 0.606380282411575 0.5892773041827013 -0.5072449722702941 -0.03602809726815085 -0.36479582983272657 -1.3855440965782009 0.294907332371705 0.33990755123147914 -0.34988883081390715 1.1797005490443877 -0.5639406251901256 0.1283227303385145 -0.44847778153341467 -0.16716515712700888 -0.016186894172507606 -0.18389044030148974 -1.3339392279177156 -0.03871824250580429 0.5514000695209537 0.14489863241932466 0.014524675978736275 0.4958773538633009 0.03931216733606133 0.7378109622514519 -0.22574645710532734 0.3987361913339133 0.5221823103064168 1.2810336381679357 -0.25620220249202325 -0.022093489464929693 0.5186997510744551 -0.2798486382663697 -0.567016693012288 -0.591878232140658 -0.3648999595107586 0.6900293239917987 0.703454339148453 -0.3534842614746493 -0.03538377881593261 -0.550101148203872 0.7255038627493248 1.512162442631099 0.4603778754051104 0.16279608152503575 0.32529751462778816 0.33063203946682407 0.1402287377474811 0.13518243357282525 0.32171365393127177