An instance of this daemon is already running
An instance of this daemon is already running
An instance of this daemon is already running

     Program PWSCF v.7.1 starts on 10May2023 at 11:16:47 

     This program is part of the open-source Quantum ESPRESSO suite
     for quantum simulation of materials; please cite
         "P. Giannozzi et al., J. Phys.:Condens. Matter 21 395502 (2009);
         "P. Giannozzi et al., J. Phys.:Condens. Matter 29 465901 (2017);
         "P. Giannozzi et al., J. Chem. Phys. 152 154105 (2020);
          URL http://www.quantum-espresso.org", 
     in publications or presentations arising from this work. More details at
     http://www.quantum-espresso.org/quote

     Parallel version (MPI & OpenMP), running on       4 processor cores
     Number of MPI processes:                 4
     Threads/MPI process:                     1

     MPI processes distributed on     1 nodes
     150151 MiB available memory on the printing compute node when the environment starts
 
     Reading input from pw-si-48.in
Warning: card &CELL ignored
Warning: card / ignored

     Current dimensions of program PWSCF are:
     Max number of different atomic species (ntypx) = 10
     Max number of k-points (npk) =  40000
     Max angular momentum in pseudopotentials (lmaxx) =  4

     IMPORTANT: XC functional enforced from input :
     Exchange-correlation= PBE
                           (   1   4   3   4   0   0   0)
     Any further DFT definition will be discarded
     Please, verify this is what you really want


     gamma-point specific algorithms are used
 
     K-points division:     npool     =       2
     R & G space division:  proc/nbgrp/npool/nimage =       2
     Subspace diagonalization in iterative solution of the eigenvalue problem:
     a serial algorithm will be used

     Message from routine divide_et_impera:
     suboptimal parallelization: some nodes have no k-points
 
     Parallelization info
     --------------------
     sticks:   dense  smooth     PW     G-vecs:    dense   smooth      PW
     Min        2075    2075    549               100839   100839   13705
     Max        2076    2076    552               100844   100844   13708
     Sum        4151    4151   1101               201683   201683   27413
 
     Using Slab Decomposition
 


     bravais-lattice index     =            0
     lattice parameter (alat)  =      21.1679  a.u.
     unit-cell volume          =    9086.7025 (a.u.)^3
     number of atoms/cell      =           64
     number of atomic types    =            1
     number of electrons       =       256.00
     number of Kohn-Sham states=          154
     kinetic-energy cutoff     =      30.0000  Ry
     charge density cutoff     =     120.0000  Ry
     scf convergence threshold =      1.0E-06
     mixing beta               =       0.5000
     number of iterations used =            8  plain     mixing
     Exchange-correlation= PBE
                           (   1   4   3   4   0   0   0)

     GPU acceleration is ACTIVE.
     GPU-aware MPI enabled

     Message from routine print_cuda_info:
     High GPU oversubscription detected. Are you sure this is what you want?

     celldm(1)=  21.167919  celldm(2)=   0.000000  celldm(3)=   0.000000
     celldm(4)=   0.000000  celldm(5)=   0.000000  celldm(6)=   0.000000

     crystal axes: (cart. coord. in units of alat)
               a(1) = (   1.000000   0.000000   0.000000 )  
               a(2) = (   0.000000   0.972222   0.000000 )  
               a(3) = (   0.000000   0.000000   0.985386 )  

     reciprocal axes: (cart. coord. in units 2 pi/alat)
               b(1) = (  1.000000  0.000000  0.000000 )  
               b(2) = (  0.000000  1.028572  0.000000 )  
               b(3) = (  0.000000  0.000000  1.014831 )  


     PseudoPot. # 1 for Si read from file:
     /home/ppiaggi/pseudos/Si_ONCV_PBE_sr.upf
     MD5 check sum: 8553c464762ac42b85b1eed164b4d029
     Pseudo is Norm-conserving, Zval =  4.0
     Generated using ONCVPSP code by D. R. Hamann
     Using radial grid of 1510 points,  4 beta functions with: 
                l(1) =   0
                l(2) =   0
                l(3) =   1
                l(4) =   1

     atomic species   valence    mass     pseudopotential
        Si             4.00    28.08500     Si( 1.00)

     No symmetry found



   Cartesian axes

     site n.     atom                  positions (alat units)
         1           Si  tau(   1) = (  -0.0016428   0.0022325  -0.0026551  )
         2           Si  tau(   2) = (   0.0017479   0.2416947   0.2434972  )
         3           Si  tau(   3) = (   0.2441912  -0.0043089   0.2460765  )
         4           Si  tau(   4) = (   0.2457016   0.2403814  -0.0028960  )
         5           Si  tau(   5) = (   0.1200448   0.1182938   0.1223988  )
         6           Si  tau(   6) = (   0.4935069   0.0003333  -0.0015494  )
         7           Si  tau(   7) = (   0.4928418   0.2436526   0.2433143  )
         8           Si  tau(   8) = (   0.6180204   0.1202545   0.1195912  )
         9           Si  tau(   9) = (   0.7449828  -0.0021553   0.2392677  )
        10           Si  tau(  10) = (   0.7403863   0.2473067  -0.0016457  )
        11           Si  tau(  11) = (   0.0042119   0.4843264  -0.0027623  )
        12           Si  tau(  12) = (   0.2500690   0.4909985   0.2391822  )
        13           Si  tau(  13) = (   0.1200465   0.6075131   0.1178332  )
        14           Si  tau(  14) = (   0.3698644   0.3658329   0.1179965  )
        15           Si  tau(  15) = (   0.4941390   0.4883609  -0.0042526  )
        16           Si  tau(  16) = (   0.6159689   0.6057801   0.1234669  )
        17           Si  tau(  17) = (   0.8678977   0.3679921   0.1179375  )
        18           Si  tau(  18) = (   0.7422772   0.4903943   0.2391006  )
        19           Si  tau(  19) = (  -0.0001608   0.7346607   0.2389539  )
        20           Si  tau(  20) = (   0.2443012   0.7295413  -0.0011606  )
        21           Si  tau(  21) = (   0.3683229   0.8531446   0.1184850  )
        22           Si  tau(  22) = (   0.4908347   0.7278391   0.2455652  )
        23           Si  tau(  23) = (   0.7407837   0.7328538  -0.0017229  )
        24           Si  tau(  24) = (   0.8623985   0.8555500   0.1236197  )
        25           Si  tau(  25) = (   0.0009467   0.0021466   0.4846137  )
        26           Si  tau(  26) = (   0.2428185   0.2464419   0.4869446  )
        27           Si  tau(  27) = (   0.1254201   0.1217795   0.6101736  )
        28           Si  tau(  28) = (   0.3748005   0.1183153   0.3663354  )
        29           Si  tau(  29) = (   0.4934649  -0.0018554   0.4891514  )
        30           Si  tau(  30) = (   0.6184070   0.1227808   0.6093483  )
        31           Si  tau(  31) = (   0.8636841   0.1204434   0.3685051  )
        32           Si  tau(  32) = (   0.7394682   0.2403273   0.4827898  )
        33           Si  tau(  33) = (   0.1214674   0.3648981   0.3659231  )
        34           Si  tau(  34) = (   0.0014125   0.4895841   0.4825931  )
        35           Si  tau(  35) = (   0.1242517   0.6060771   0.6038332  )
        36           Si  tau(  36) = (   0.6196373   0.3689134   0.3625291  )
        37           Si  tau(  37) = (   0.3681383   0.6099886   0.3670634  )
        38           Si  tau(  38) = (   0.3694030   0.3627658   0.6101312  )
        39           Si  tau(  39) = (   0.4923581   0.4871607   0.4853154  )
        40           Si  tau(  40) = (   0.6159048   0.6121837   0.6038578  )
        41           Si  tau(  41) = (   0.8626062   0.6085518   0.3605132  )
        42           Si  tau(  42) = (   0.8655981   0.3683275   0.6092180  )
        43           Si  tau(  43) = (   0.1216153   0.8500177   0.3680486  )
        44           Si  tau(  44) = (   0.2442446   0.7332688   0.4883214  )
        45           Si  tau(  45) = (   0.6187267   0.8536314   0.3626329  )
        46           Si  tau(  46) = (   0.3723539   0.8491476   0.6075154  )
        47           Si  tau(  47) = (   0.7392769   0.7289789   0.4873416  )
        48           Si  tau(  48) = (   0.8675586   0.8518151   0.6034498  )
        49           Si  tau(  49) = (  -0.0009709   0.2435831   0.7250389  )
        50           Si  tau(  50) = (   0.2493705  -0.0037498   0.7252562  )
        51           Si  tau(  51) = (   0.3695506   0.1215171   0.8463263  )
        52           Si  tau(  52) = (   0.4979859   0.2403174   0.7321715  )
        53           Si  tau(  53) = (   0.7426584   0.0013870   0.7257390  )
        54           Si  tau(  54) = (   0.8611982   0.1205389   0.8527398  )
        55           Si  tau(  55) = (   0.1191691   0.3648539   0.8509350  )
        56           Si  tau(  56) = (   0.2512507   0.4895906   0.7327385  )
        57           Si  tau(  57) = (   0.6192727   0.3626439   0.8516321  )
        58           Si  tau(  58) = (   0.3735062   0.6075388   0.8547313  )
        59           Si  tau(  59) = (   0.7374176   0.4853576   0.7294002  )
        60           Si  tau(  60) = (   0.8684214   0.6048845   0.8527950  )
        61           Si  tau(  61) = (   0.0031203   0.7339868   0.7296459  )
        62           Si  tau(  62) = (   0.1192226   0.8561720   0.8544945  )
        63           Si  tau(  63) = (   0.4961959   0.7326779   0.7254606  )
        64           Si  tau(  64) = (   0.6155244   0.8538489   0.8468704  )

     number of k points=     1  Fermi-Dirac smearing, width (Ry)=  0.0100
                       cart. coord. in units 2pi/alat
        k(    1) = (   0.0000000   0.0000000   0.0000000), wk =   2.0000000

     Dense  grid:   100842 G-vectors     FFT dimensions: (  75,  72,  75)

     Estimated max dynamical RAM per process >     161.38 MB

     Estimated total dynamical RAM >     620.89 MB

     Initial potential from superposition of free atoms

     starting charge     255.9608, renormalised to     256.0000
     Starting wfcs are  256 randomized atomic wfcs

     total cpu time spent up to now is        4.3 secs

     Self-consistent Calculation

     iteration #  1     ecut=    30.00 Ry     beta= 0.50
     Davidson diagonalization with overlap
     ethr =  1.00E-02,  avg # of iterations =  3.0

     Threshold (ethr) on eigenvalues was too large:
     Diagonalizing with lowered threshold

     Davidson diagonalization with overlap
     ethr =  6.29E-04,  avg # of iterations =  4.0

     total cpu time spent up to now is        4.5 secs

     total energy              =    -503.85681716 Ry
     estimated scf accuracy    <       1.78534934 Ry

     iteration #  2     ecut=    30.00 Ry     beta= 0.50
     Davidson diagonalization with overlap
     ethr =  6.97E-04,  avg # of iterations =  1.0

     total cpu time spent up to now is        4.6 secs

     total energy              =    -503.84118291 Ry
     estimated scf accuracy    <       0.33724623 Ry

     iteration #  3     ecut=    30.00 Ry     beta= 0.50
     Davidson diagonalization with overlap
     ethr =  1.32E-04,  avg # of iterations =  4.0

     total cpu time spent up to now is        4.7 secs

     total energy              =    -503.86001743 Ry
     estimated scf accuracy    <       0.01773403 Ry

     iteration #  4     ecut=    30.00 Ry     beta= 0.50
     Davidson diagonalization with overlap
     c_bands:  5 eigenvalues not converged
     ethr =  6.93E-06,  avg # of iterations = 20.0

     total cpu time spent up to now is        4.9 secs

     total energy              =    -503.86423536 Ry
     estimated scf accuracy    <       0.00944444 Ry

     iteration #  5     ecut=    30.00 Ry     beta= 0.50
     Davidson diagonalization with overlap
     ethr =  3.69E-06,  avg # of iterations = 19.0

     total cpu time spent up to now is        5.1 secs

     total energy              =    -503.86590704 Ry
     estimated scf accuracy    <       0.00147198 Ry

     iteration #  6     ecut=    30.00 Ry     beta= 0.50
     Davidson diagonalization with overlap
     ethr =  5.75E-07,  avg # of iterations =  3.0

     total cpu time spent up to now is        5.2 secs

     total energy              =    -503.86604511 Ry
     estimated scf accuracy    <       0.00030338 Ry

     iteration #  7     ecut=    30.00 Ry     beta= 0.50
     Davidson diagonalization with overlap
     ethr =  1.19E-07,  avg # of iterations =  5.0

     total cpu time spent up to now is        5.3 secs

     total energy              =    -503.86608724 Ry
     estimated scf accuracy    <       0.00001902 Ry

     iteration #  8     ecut=    30.00 Ry     beta= 0.50
     Davidson diagonalization with overlap
     ethr =  7.43E-09,  avg # of iterations =  4.0

     total cpu time spent up to now is        5.5 secs

     total energy              =    -503.86609372 Ry
     estimated scf accuracy    <       0.00001323 Ry

     iteration #  9     ecut=    30.00 Ry     beta= 0.50
     Davidson diagonalization with overlap
     ethr =  5.17E-09,  avg # of iterations =  3.0

     total cpu time spent up to now is        5.6 secs

     total energy              =    -503.86609499 Ry
     estimated scf accuracy    <       0.00000133 Ry

     iteration # 10     ecut=    30.00 Ry     beta= 0.50
     Davidson diagonalization with overlap
     ethr =  5.18E-10,  avg # of iterations =  5.0

     total cpu time spent up to now is        5.7 secs

     End of self-consistent calculation

          k = 0.0000 0.0000 0.0000 ( 12630 PWs)   bands (ev):

    -5.9222  -4.9802  -4.9735  -4.8884  -4.8658  -4.7964  -4.7473  -4.1193
    -4.0825  -4.0666  -4.0490  -4.0072  -3.9516  -3.9246  -3.9046  -3.8940
    -3.8638  -3.8402  -3.7673  -3.7526  -3.7031  -3.5904  -3.4393  -2.1012
    -2.0206  -1.9768  -1.9392  -1.9193  -1.9133  -1.8999  -1.8740  -1.8433
    -1.8252  -1.7955  -1.7588  -1.7374  -1.7143  -1.6703  -1.6638  -1.6138
    -1.5529  -1.1116  -1.0145  -0.9428  -0.9325   0.1988   0.2418   0.2843
     0.3063   0.3351   0.3494   0.3691   0.3802   0.3932   0.4197   0.4360
     0.4587   1.9156   1.9396   1.9544   1.9900   1.9989   2.0150   2.0311
     2.0380   2.0560   2.0712   2.0817   2.0961   2.1045   2.1127   2.1263
     2.1291   2.1360   2.1518   2.1604   2.1846   2.2009   2.2225   2.2405
     2.2666   2.2929   2.3844   2.3863   2.4130   2.4523   2.4753   2.9227
     2.9325   3.0199   3.0287   3.1100   3.1444   3.8075   3.8138   3.8445
     3.8696   3.8949   3.9154   3.9508   3.9709   4.0050   4.0517   4.0925
     4.1766   4.2710   4.3318   4.3827   4.3883   4.4046   4.4265   4.4528
     4.4702   4.4820   4.4972   4.5083   4.5581   4.5743   4.5891   4.6039
     4.6117   4.6558   4.7028   4.9091   5.0949   5.6607   5.7406   5.9521
     6.3284   6.3829   6.4813   6.5390   6.6194   6.6421   6.7580   6.8121
     6.8777   6.9150   6.9917   7.0365   7.0486   7.0602   7.0914   7.1089
     7.9349   7.9591   7.9964   8.0143   8.0545   8.0756   8.1170   8.1644
     8.1720   8.1843

     the Fermi energy is     6.0857 ev

!    total energy              =    -503.86609524 Ry
     estimated scf accuracy    <       0.00000029 Ry
     smearing contrib. (-TS)   =      -0.04908072 Ry
     internal energy E=F+TS    =    -503.81701452 Ry

     The total energy is F=E-TS. E is the sum of the following terms:
     one-electron contribution =     138.98700317 Ry
     hartree contribution      =      37.81326651 Ry
     xc contribution           =    -152.70781637 Ry
     ewald contribution        =    -527.90946783 Ry

     convergence has been achieved in  10 iterations

     Forces acting on atoms (cartesian axes, Ry/au):

     atom    1 type  1   force =    -0.04368709   -0.00009232   -0.01412282
     atom    2 type  1   force =    -0.04947425    0.00697121    0.00260497
     atom    3 type  1   force =     0.01365197    0.01859713   -0.00783154
     atom    4 type  1   force =    -0.00617680    0.00483476   -0.02558699
     atom    5 type  1   force =     0.01719240    0.00561002   -0.00603035
     atom    6 type  1   force =    -0.00108137    0.00496640   -0.04194145
     atom    7 type  1   force =     0.01280103    0.00168264   -0.00702083
     atom    8 type  1   force =     0.00031764    0.01277591    0.00196196
     atom    9 type  1   force =    -0.02326629    0.03578109    0.03143555
     atom   10 type  1   force =     0.01051622   -0.01674315   -0.01991865
     atom   11 type  1   force =    -0.04793721    0.00031517   -0.02685019
     atom   12 type  1   force =    -0.02170283   -0.01744501    0.01315329
     atom   13 type  1   force =     0.01014833    0.01083493    0.00946341
     atom   14 type  1   force =     0.00012967   -0.00706844   -0.00519359
     atom   15 type  1   force =     0.01251787   -0.01849681   -0.01351595
     atom   16 type  1   force =    -0.00471602    0.02743929   -0.02478841
     atom   17 type  1   force =     0.02647403   -0.01015258    0.00724077
     atom   18 type  1   force =     0.00942780   -0.02429847    0.00307671
     atom   19 type  1   force =    -0.03655604   -0.01653123    0.01001663
     atom   20 type  1   force =     0.00432049    0.00645469   -0.03459271
     atom   21 type  1   force =     0.00040215   -0.01766556    0.01111332
     atom   22 type  1   force =     0.01117802    0.01646541   -0.01409851
     atom   23 type  1   force =    -0.00015101   -0.01478165   -0.02573290
     atom   24 type  1   force =     0.05549473   -0.02769212   -0.04385219
     atom   25 type  1   force =    -0.03007559    0.00256374    0.01453937
     atom   26 type  1   force =     0.02614835   -0.02151700   -0.00130806
     atom   27 type  1   force =    -0.01000734   -0.00356900   -0.01541082
     atom   28 type  1   force =    -0.03602702    0.01673596   -0.00176360
     atom   29 type  1   force =     0.02213201    0.00940414   -0.00528522
     atom   30 type  1   force =    -0.00403641   -0.00887439   -0.01377172
     atom   31 type  1   force =     0.03845908   -0.00286901   -0.03105009
     atom   32 type  1   force =     0.00810852    0.03197728    0.02249787
     atom   33 type  1   force =     0.01178542    0.01449951   -0.02673787
     atom   34 type  1   force =    -0.05134288   -0.00775925    0.00502034
     atom   35 type  1   force =     0.00118675    0.01627823    0.03139920
     atom   36 type  1   force =    -0.00805486   -0.01167598   -0.00343407
     atom   37 type  1   force =    -0.00641087    0.00038497   -0.00184725
     atom   38 type  1   force =     0.01097815    0.00700585    0.00112852
     atom   39 type  1   force =     0.00277976   -0.00600692    0.00685421
     atom   40 type  1   force =    -0.00084158   -0.02774779    0.01726136
     atom   41 type  1   force =     0.04241084    0.01746632    0.00992190
     atom   42 type  1   force =     0.01975310   -0.01335859   -0.02569037
     atom   43 type  1   force =    -0.00756507    0.00251488   -0.01635139
     atom   44 type  1   force =     0.01123692   -0.01899989   -0.00283212
     atom   45 type  1   force =    -0.00721455   -0.01437336    0.00392934
     atom   46 type  1   force =    -0.01232069    0.00019622   -0.00639081
     atom   47 type  1   force =     0.02167950    0.01376915   -0.02286798
     atom   48 type  1   force =     0.02446837   -0.00266635    0.01313268
     atom   49 type  1   force =    -0.03743469   -0.00158002    0.02642440
     atom   50 type  1   force =    -0.01247898    0.01107715    0.02580604
     atom   51 type  1   force =    -0.00119680   -0.00915174    0.04880778
     atom   52 type  1   force =    -0.01328896    0.01507592   -0.00835673
     atom   53 type  1   force =     0.00609579   -0.00948762    0.01014487
     atom   54 type  1   force =     0.03895802    0.01862263    0.01655520
     atom   55 type  1   force =     0.02353982   -0.00532273    0.01730566
     atom   56 type  1   force =    -0.02070557   -0.01699984   -0.00539679
     atom   57 type  1   force =    -0.01210672    0.01372551    0.03068721
     atom   58 type  1   force =    -0.00569565    0.02785765    0.01134909
     atom   59 type  1   force =     0.01666048    0.01839477    0.00121479
     atom   60 type  1   force =     0.01433430    0.01924243    0.01874090
     atom   61 type  1   force =    -0.04063483   -0.02364075   -0.00516168
     atom   62 type  1   force =     0.02209453   -0.01270172    0.01376955
     atom   63 type  1   force =    -0.00877777   -0.02069981    0.02695186
     atom   64 type  1   force =     0.01358369    0.00044813    0.04122489

     Total force =     0.270283     Total SCF correction =     0.000998


     Computing stress (Cartesian axis) and pressure

          total   stress  (Ry/bohr**3)                   (kbar)     P=      -13.21
  -0.00016618   0.00000986   0.00000456          -24.45        1.45        0.67
   0.00000986  -0.00001931   0.00004314            1.45       -2.84        6.35
   0.00000456   0.00004314  -0.00008393            0.67        6.35      -12.35

 
     init_run     :      0.98s CPU      4.24s WALL (       1 calls)
     electrons    :      1.26s CPU      1.37s WALL (       1 calls)
     forces       :      0.04s CPU      0.06s WALL (       1 calls)
     stress       :      0.15s CPU      0.16s WALL (       1 calls)

     Called by init_run:
     wfcinit      :      0.42s CPU      3.52s WALL (       1 calls)
                                        3.52s GPU  (       1 calls)
     potinit      :      0.15s CPU      0.24s WALL (       1 calls)
     hinit0       :      0.39s CPU      0.42s WALL (       1 calls)

     Called by electrons:
     c_bands      :      0.91s CPU      0.97s WALL (      11 calls)
     sum_band     :      0.19s CPU      0.23s WALL (      11 calls)
     v_of_rho     :      0.09s CPU      0.18s WALL (      11 calls)
     mix_rho      :      0.06s CPU      0.08s WALL (      11 calls)

     Called by c_bands:
     init_us_2    :      0.03s CPU      0.03s WALL (      23 calls)
     init_us_2:gp :      0.03s CPU      0.03s WALL (      23 calls)
     regterg      :      0.83s CPU      0.88s WALL (      11 calls)

     Called by *egterg:
     rdiaghg      :      0.38s CPU      0.99s WALL (      81 calls)
                                        0.97s GPU  (      81 calls)
     h_psi        :      0.73s CPU      3.25s WALL (      83 calls)
                                        3.25s GPU  (      83 calls)
     g_psi        :      0.00s CPU      0.00s WALL (      71 calls)
                                        0.00s GPU  (      71 calls)

     Called by h_psi:
     h_psi:calbec :      0.37s CPU      2.83s WALL (      83 calls)
                                        2.83s GPU  (      83 calls)
     vloc_psi     :      0.32s CPU      0.37s WALL (      83 calls)
                                        0.37s GPU  (      83 calls)
     add_vuspsi   :      0.03s CPU      0.04s WALL (      83 calls)
                                        0.04s GPU  (      83 calls)

     General routines
     calbec       :      0.38s CPU      2.84s WALL (      88 calls)
     fft          :      0.42s CPU      0.53s WALL (      95 calls)
                                        0.12s GPU  (      61 calls)
     ffts         :      0.02s CPU      0.02s WALL (      11 calls)
     fftw         :      0.35s CPU      0.46s WALL (    1239 calls)
                                        0.42s GPU  (    1239 calls)
 
     Parallel routines
 
     PWSCF        :      2.46s CPU      5.90s WALL

 
   This run was terminated on:  11:16:53  10May2023            

=------------------------------------------------------------------------------=
   JOB DONE.
=------------------------------------------------------------------------------=
