An instance of this daemon is already running
An instance of this daemon is already running

     Program PWSCF v.7.1 starts on 10May2023 at 11:12:37 

     This program is part of the open-source Quantum ESPRESSO suite
     for quantum simulation of materials; please cite
         "P. Giannozzi et al., J. Phys.:Condens. Matter 21 395502 (2009);
         "P. Giannozzi et al., J. Phys.:Condens. Matter 29 465901 (2017);
         "P. Giannozzi et al., J. Chem. Phys. 152 154105 (2020);
          URL http://www.quantum-espresso.org", 
     in publications or presentations arising from this work. More details at
     http://www.quantum-espresso.org/quote

     Parallel version (MPI & OpenMP), running on       4 processor cores
     Number of MPI processes:                 4
     Threads/MPI process:                     1

     MPI processes distributed on     1 nodes
     150112 MiB available memory on the printing compute node when the environment starts
 
     Reading input from pw-si-18.in
Warning: card &CELL ignored
Warning: card / ignored

     Current dimensions of program PWSCF are:
     Max number of different atomic species (ntypx) = 10
     Max number of k-points (npk) =  40000
     Max angular momentum in pseudopotentials (lmaxx) =  4

     IMPORTANT: XC functional enforced from input :
     Exchange-correlation= PBE
                           (   1   4   3   4   0   0   0)
     Any further DFT definition will be discarded
     Please, verify this is what you really want


     gamma-point specific algorithms are used
 
     K-points division:     npool     =       2
     R & G space division:  proc/nbgrp/npool/nimage =       2
     Subspace diagonalization in iterative solution of the eigenvalue problem:
     a serial algorithm will be used

     Message from routine divide_et_impera:
     suboptimal parallelization: some nodes have no k-points
 
     Parallelization info
     --------------------
     sticks:   dense  smooth     PW     G-vecs:    dense   smooth      PW
     Min        2026    2026    533                98153    98153   13325
     Max        2029    2029    536                98154    98154   13328
     Sum        4055    4055   1069               196307   196307   26653
 
     Using Slab Decomposition
 


     bravais-lattice index     =            0
     lattice parameter (alat)  =      20.8749  a.u.
     unit-cell volume          =    8841.1751 (a.u.)^3
     number of atoms/cell      =           64
     number of atomic types    =            1
     number of electrons       =       256.00
     number of Kohn-Sham states=          154
     kinetic-energy cutoff     =      30.0000  Ry
     charge density cutoff     =     120.0000  Ry
     scf convergence threshold =      1.0E-06
     mixing beta               =       0.5000
     number of iterations used =            8  plain     mixing
     Exchange-correlation= PBE
                           (   1   4   3   4   0   0   0)

     GPU acceleration is ACTIVE.
     GPU-aware MPI enabled

     Message from routine print_cuda_info:
     High GPU oversubscription detected. Are you sure this is what you want?

     celldm(1)=  20.874933  celldm(2)=   0.000000  celldm(3)=   0.000000
     celldm(4)=   0.000000  celldm(5)=   0.000000  celldm(6)=   0.000000

     crystal axes: (cart. coord. in units of alat)
               a(1) = (   1.000000   0.000000   0.000000 )  
               a(2) = (   0.000000   0.975189   0.000000 )  
               a(3) = (   0.000000   0.000000   0.996657 )  

     reciprocal axes: (cart. coord. in units 2 pi/alat)
               b(1) = (  1.000000  0.000000  0.000000 )  
               b(2) = (  0.000000  1.025442  0.000000 )  
               b(3) = (  0.000000  0.000000  1.003354 )  


     PseudoPot. # 1 for Si read from file:
     /home/ppiaggi/pseudos/Si_ONCV_PBE_sr.upf
     MD5 check sum: 8553c464762ac42b85b1eed164b4d029
     Pseudo is Norm-conserving, Zval =  4.0
     Generated using ONCVPSP code by D. R. Hamann
     Using radial grid of 1510 points,  4 beta functions with: 
                l(1) =   0
                l(2) =   0
                l(3) =   1
                l(4) =   1

     atomic species   valence    mass     pseudopotential
        Si             4.00    28.08500     Si( 1.00)

     No symmetry found



   Cartesian axes

     site n.     atom                  positions (alat units)
         1           Si  tau(   1) = (   0.0016112  -0.0002333  -0.0014144  )
         2           Si  tau(   2) = (   0.0005539   0.2368914   0.2496543  )
         3           Si  tau(   3) = (   0.2502329  -0.0003542   0.2509706  )
         4           Si  tau(   4) = (   0.2491985   0.2370802   0.0017441  )
         5           Si  tau(   5) = (   0.1247783   0.1178002   0.1238583  )
         6           Si  tau(   6) = (   0.4929662  -0.0013554   0.0026588  )
         7           Si  tau(   7) = (   0.4958370   0.2389692   0.2503992  )
         8           Si  tau(   8) = (   0.6227353   0.1160247   0.1293095  )
         9           Si  tau(   9) = (   0.7390538  -0.0008920   0.2483091  )
        10           Si  tau(  10) = (   0.7427604   0.2371329  -0.0008048  )
        11           Si  tau(  11) = (   0.0003581   0.4762196   0.0037671  )
        12           Si  tau(  12) = (   0.2512905   0.4792598   0.2522566  )
        13           Si  tau(  13) = (   0.1206665   0.5962984   0.1230719  )
        14           Si  tau(  14) = (   0.3743831   0.3618048   0.1240766  )
        15           Si  tau(  15) = (   0.4951397   0.4823969  -0.0025084  )
        16           Si  tau(  16) = (   0.6211322   0.6026172   0.1222800  )
        17           Si  tau(  17) = (   0.8657312   0.3642028   0.1276142  )
        18           Si  tau(  18) = (   0.7401870   0.4786564   0.2488445  )
        19           Si  tau(  19) = (   0.0034044   0.7228004   0.2472458  )
        20           Si  tau(  20) = (   0.2481945   0.7238440   0.0021520  )
        21           Si  tau(  21) = (   0.3696670   0.8360016   0.1264299  )
        22           Si  tau(  22) = (   0.4919467   0.7220291   0.2535909  )
        23           Si  tau(  23) = (   0.7468624   0.7167408   0.0036121  )
        24           Si  tau(  24) = (   0.8629233   0.8436149   0.1231769  )
        25           Si  tau(  25) = (   0.0003988  -0.0029707   0.5043644  )
        26           Si  tau(  26) = (   0.2435139   0.2387486   0.4996095  )
        27           Si  tau(  27) = (   0.1211772   0.1202347   0.6263991  )
        28           Si  tau(  28) = (   0.3684470   0.1196677   0.3735994  )
        29           Si  tau(  29) = (   0.4952959   0.0043336   0.5027282  )
        30           Si  tau(  30) = (   0.6147774   0.1187789   0.6277645  )
        31           Si  tau(  31) = (   0.8687108   0.1162808   0.3803152  )
        32           Si  tau(  32) = (   0.7402002   0.2434913   0.5044378  )
        33           Si  tau(  33) = (   0.1264959   0.3620586   0.3767534  )
        34           Si  tau(  34) = (   0.0019458   0.4780902   0.5024477  )
        35           Si  tau(  35) = (   0.1272089   0.5964064   0.6306965  )
        36           Si  tau(  36) = (   0.6191509   0.3565526   0.3804141  )
        37           Si  tau(  37) = (   0.3758086   0.5960462   0.3718828  )
        38           Si  tau(  38) = (   0.3734733   0.3643509   0.6295590  )
        39           Si  tau(  39) = (   0.4995606   0.4775998   0.4982914  )
        40           Si  tau(  40) = (   0.6151109   0.6018285   0.6297324  )
        41           Si  tau(  41) = (   0.8634227   0.6010845   0.3743583  )
        42           Si  tau(  42) = (   0.8693516   0.3622372   0.6299086  )
        43           Si  tau(  43) = (   0.1273095   0.8442518   0.3775205  )
        44           Si  tau(  44) = (   0.2464729   0.7229797   0.4997006  )
        45           Si  tau(  45) = (   0.6164952   0.8424373   0.3803771  )
        46           Si  tau(  46) = (   0.3750966   0.8382806   0.6308126  )
        47           Si  tau(  47) = (   0.7430364   0.7212055   0.4974638  )
        48           Si  tau(  48) = (   0.8621638   0.8356685   0.6287362  )
        49           Si  tau(  49) = (   0.0004385   0.2400084   0.7537909  )
        50           Si  tau(  50) = (   0.2485366   0.0024012   0.7512647  )
        51           Si  tau(  51) = (   0.3682595   0.1235940   0.8785702  )
        52           Si  tau(  52) = (   0.4983793   0.2390860   0.7491335  )
        53           Si  tau(  53) = (   0.7466118   0.0032814   0.7569079  )
        54           Si  tau(  54) = (   0.8620446   0.1211561   0.8814303  )
        55           Si  tau(  55) = (   0.1198156   0.3602441   0.8737552  )
        56           Si  tau(  56) = (   0.2455887   0.4829310   0.7536868  )
        57           Si  tau(  57) = (   0.6159355   0.3578248   0.8765723  )
        58           Si  tau(  58) = (   0.3738845   0.6039725   0.8783158  )
        59           Si  tau(  59) = (   0.7415011   0.4790415   0.7506855  )
        60           Si  tau(  60) = (   0.8663330   0.6021124   0.8798829  )
        61           Si  tau(  61) = (   0.0006871   0.7196346   0.7524137  )
        62           Si  tau(  62) = (   0.1202284   0.8435424   0.8812389  )
        63           Si  tau(  63) = (   0.4934787   0.7178087   0.7507939  )
        64           Si  tau(  64) = (   0.6173512   0.8413953   0.8785943  )

     number of k points=     1  Fermi-Dirac smearing, width (Ry)=  0.0100
                       cart. coord. in units 2pi/alat
        k(    1) = (   0.0000000   0.0000000   0.0000000), wk =   2.0000000

     Dense  grid:    98154 G-vectors     FFT dimensions: (  75,  72,  75)

     Estimated max dynamical RAM per process >     157.49 MB

     Estimated total dynamical RAM >     606.01 MB

     Initial potential from superposition of free atoms

     starting charge     255.9608, renormalised to     256.0000
     Starting wfcs are  256 randomized atomic wfcs

     total cpu time spent up to now is        4.2 secs

     Self-consistent Calculation

     iteration #  1     ecut=    30.00 Ry     beta= 0.50
     Davidson diagonalization with overlap
     ethr =  1.00E-02,  avg # of iterations =  3.0

     Threshold (ethr) on eigenvalues was too large:
     Diagonalizing with lowered threshold

     Davidson diagonalization with overlap
     ethr =  6.59E-04,  avg # of iterations =  3.0

     total cpu time spent up to now is        4.4 secs

     total energy              =    -503.80092894 Ry
     estimated scf accuracy    <       1.86552456 Ry

     iteration #  2     ecut=    30.00 Ry     beta= 0.50
     Davidson diagonalization with overlap
     ethr =  7.29E-04,  avg # of iterations =  1.0

     total cpu time spent up to now is        4.5 secs

     total energy              =    -503.78628106 Ry
     estimated scf accuracy    <       0.34442625 Ry

     iteration #  3     ecut=    30.00 Ry     beta= 0.50
     Davidson diagonalization with overlap
     ethr =  1.35E-04,  avg # of iterations = 18.0

     total cpu time spent up to now is        4.7 secs

     total energy              =    -503.80487389 Ry
     estimated scf accuracy    <       0.03227405 Ry

     iteration #  4     ecut=    30.00 Ry     beta= 0.50
     Davidson diagonalization with overlap
     ethr =  1.26E-05,  avg # of iterations = 13.0

     total cpu time spent up to now is        4.8 secs

     total energy              =    -503.81199999 Ry
     estimated scf accuracy    <       0.01000939 Ry

     iteration #  5     ecut=    30.00 Ry     beta= 0.50
     Davidson diagonalization with overlap
     ethr =  3.91E-06,  avg # of iterations =  5.0

     total cpu time spent up to now is        5.0 secs

     total energy              =    -503.81362038 Ry
     estimated scf accuracy    <       0.00135745 Ry

     iteration #  6     ecut=    30.00 Ry     beta= 0.50
     Davidson diagonalization with overlap
     ethr =  5.30E-07,  avg # of iterations =  4.0

     total cpu time spent up to now is        5.1 secs

     total energy              =    -503.81379162 Ry
     estimated scf accuracy    <       0.00033243 Ry

     iteration #  7     ecut=    30.00 Ry     beta= 0.50
     Davidson diagonalization with overlap
     ethr =  1.30E-07,  avg # of iterations =  4.0

     total cpu time spent up to now is        5.2 secs

     total energy              =    -503.81383819 Ry
     estimated scf accuracy    <       0.00005809 Ry

     iteration #  8     ecut=    30.00 Ry     beta= 0.50
     Davidson diagonalization with overlap
     ethr =  2.27E-08,  avg # of iterations =  4.0

     total cpu time spent up to now is        5.3 secs

     total energy              =    -503.81385100 Ry
     estimated scf accuracy    <       0.00000898 Ry

     iteration #  9     ecut=    30.00 Ry     beta= 0.50
     Davidson diagonalization with overlap
     ethr =  3.51E-09,  avg # of iterations =  4.0

     total cpu time spent up to now is        5.4 secs

     End of self-consistent calculation

          k = 0.0000 0.0000 0.0000 ( 12280 PWs)   bands (ev):

    -5.8414  -4.8547  -4.8408  -4.8196  -4.7643  -4.7088  -4.6361  -3.9780
    -3.9700  -3.9295  -3.9197  -3.8898  -3.8361  -3.8137  -3.7788  -3.7480
    -3.7272  -3.6726  -3.6370  -3.5686  -3.5537  -3.3985  -3.2849  -1.9710
    -1.8939  -1.8145  -1.7932  -1.7513  -1.7345  -1.6898  -1.6748  -1.6168
    -1.5996  -1.5861  -1.5532  -1.5162  -1.4936  -1.4585  -1.4401  -1.4129
    -1.3635  -0.9602  -0.9017  -0.8082  -0.7315   0.4050   0.4357   0.4501
     0.5220   0.5297   0.5589   0.5969   0.6294   0.6472   0.6890   0.7007
     0.7067   2.0786   2.0902   2.1208   2.1361   2.1564   2.1628   2.1791
     2.2001   2.2058   2.2113   2.2347   2.2505   2.2681   2.2774   2.2966
     2.3169   2.3230   2.3608   2.3708   2.3862   2.4244   2.4452   2.4750
     2.5114   2.5480   2.5901   2.6072   2.6484   2.6802   2.7267   3.0853
     3.1070   3.2388   3.2766   3.2980   3.3601   3.9746   3.9924   4.0685
     4.0916   4.1329   4.1836   4.2001   4.2241   4.2541   4.2762   4.2930
     4.3798   4.5009   4.5100   4.5501   4.5644   4.5968   4.6304   4.6964
     4.7030   4.7430   4.7624   4.7969   4.8221   4.8327   4.8564   4.9056
     4.9272   4.9874   5.0107   5.1797   5.3325   5.9297   5.9982   6.2604
     6.5476   6.5782   6.6824   6.7411   6.8315   6.8909   6.9959   7.0964
     7.1789   7.2009   7.2183   7.2861   7.3820   7.4063   7.4237   7.4548
     8.1833   8.1960   8.2471   8.3467   8.3558   8.3817   8.4167   8.4331
     8.4671   8.4855

     the Fermi energy is     6.3342 ev

!    total energy              =    -503.81385232 Ry
     estimated scf accuracy    <       0.00000073 Ry
     smearing contrib. (-TS)   =      -0.05571715 Ry
     internal energy E=F+TS    =    -503.75813517 Ry

     The total energy is F=E-TS. E is the sum of the following terms:
     one-electron contribution =     144.99407165 Ry
     hartree contribution      =      37.24094589 Ry
     xc contribution           =    -153.59500538 Ry
     ewald contribution        =    -532.39814732 Ry

     convergence has been achieved in   9 iterations

     Forces acting on atoms (cartesian axes, Ry/au):

     atom    1 type  1   force =    -0.04680431   -0.02224254    0.02057070
     atom    2 type  1   force =    -0.02561025    0.01503255    0.01176333
     atom    3 type  1   force =    -0.01154690   -0.04659956   -0.01346140
     atom    4 type  1   force =    -0.02306110    0.04032804    0.01276127
     atom    5 type  1   force =    -0.00368001   -0.00455614    0.01406952
     atom    6 type  1   force =     0.00420827   -0.03308598    0.01025239
     atom    7 type  1   force =     0.00627688    0.00088828    0.00141138
     atom    8 type  1   force =    -0.03451952    0.01935165   -0.02737692
     atom    9 type  1   force =     0.03706549   -0.05157307    0.04142175
     atom   10 type  1   force =    -0.01565444    0.03555291    0.04826532
     atom   11 type  1   force =    -0.04321815    0.01373752   -0.01059052
     atom   12 type  1   force =    -0.01552406    0.00322827   -0.02308365
     atom   13 type  1   force =     0.02911748    0.01427339    0.01928105
     atom   14 type  1   force =    -0.00868201   -0.01070068    0.00549669
     atom   15 type  1   force =     0.01207458   -0.00189364    0.02577654
     atom   16 type  1   force =    -0.02562287   -0.01005658    0.02974830
     atom   17 type  1   force =     0.02644355   -0.04164880   -0.00672284
     atom   18 type  1   force =    -0.00426230    0.01160773    0.01841321
     atom   19 type  1   force =    -0.04174392    0.00770070    0.01180343
     atom   20 type  1   force =    -0.02012911   -0.01977234    0.00336118
     atom   21 type  1   force =     0.00585963    0.06659235    0.01367669
     atom   22 type  1   force =     0.03415168   -0.00255020   -0.01607470
     atom   23 type  1   force =    -0.01987365    0.04075602   -0.00743757
     atom   24 type  1   force =     0.04651086    0.02959460    0.02008915
     atom   25 type  1   force =    -0.03073987   -0.04117609   -0.00479782
     atom   26 type  1   force =     0.02603093    0.01312661    0.01749311
     atom   27 type  1   force =     0.00256362   -0.00807014    0.00578216
     atom   28 type  1   force =     0.01131720    0.00629225    0.01591499
     atom   29 type  1   force =    -0.01499394   -0.06037442   -0.00839153
     atom   30 type  1   force =     0.04206116   -0.00211790    0.00324221
     atom   31 type  1   force =     0.00475626    0.00645507   -0.01031961
     atom   32 type  1   force =     0.03328373   -0.02874558    0.00876861
     atom   33 type  1   force =    -0.02125750   -0.01653150   -0.01363642
     atom   34 type  1   force =    -0.03354150    0.02002154   -0.00367953
     atom   35 type  1   force =    -0.02561386    0.03186884   -0.03197488
     atom   36 type  1   force =     0.00273411    0.00410962   -0.03598095
     atom   37 type  1   force =    -0.02045993    0.01761928    0.03495127
     atom   38 type  1   force =    -0.01717412   -0.02160805   -0.01924422
     atom   39 type  1   force =    -0.01661123    0.01949338    0.02254206
     atom   40 type  1   force =     0.02641604   -0.01415554   -0.03239934
     atom   41 type  1   force =     0.05081178   -0.00822769   -0.00564219
     atom   42 type  1   force =     0.01650581   -0.01283091   -0.01150193
     atom   43 type  1   force =    -0.02204297    0.03029947   -0.01143465
     atom   44 type  1   force =     0.02700195   -0.02283487    0.01243829
     atom   45 type  1   force =    -0.00418498    0.04276967   -0.01651442
     atom   46 type  1   force =    -0.02850828    0.05872098   -0.02740656
     atom   47 type  1   force =    -0.01526482   -0.00556364    0.02305768
     atom   48 type  1   force =     0.04096304    0.05279305    0.00839205
     atom   49 type  1   force =    -0.04517615   -0.01067591   -0.00959097
     atom   50 type  1   force =    -0.00532414   -0.04800235    0.00420749
     atom   51 type  1   force =     0.03073950   -0.02720493   -0.03147305
     atom   52 type  1   force =    -0.03066043    0.00786571    0.01694412
     atom   53 type  1   force =    -0.02989594   -0.06103251   -0.02970658
     atom   54 type  1   force =     0.07722789   -0.01245368   -0.02962516
     atom   55 type  1   force =     0.02670288   -0.00927929    0.01494546
     atom   56 type  1   force =     0.02960678   -0.01274305    0.01622771
     atom   57 type  1   force =     0.01802712    0.00149975   -0.01565081
     atom   58 type  1   force =    -0.03203244   -0.00689226   -0.01664812
     atom   59 type  1   force =     0.00576302    0.01605875    0.01708808
     atom   60 type  1   force =     0.04089520   -0.03183236   -0.03115814
     atom   61 type  1   force =    -0.02564880    0.00289750    0.00243470
     atom   62 type  1   force =     0.01387632    0.02614396   -0.04103946
     atom   63 type  1   force =     0.02001001    0.02474066    0.01984582
     atom   64 type  1   force =     0.01006074    0.02561211   -0.00987376

     Total force =     0.354047     Total SCF correction =     0.001459


     Computing stress (Cartesian axis) and pressure

          total   stress  (Ry/bohr**3)                   (kbar)     P=       11.74
   0.00003754  -0.00004981   0.00003450            5.52       -7.33        5.08
  -0.00004981   0.00014004   0.00005578           -7.33       20.60        8.20
   0.00003450   0.00005578   0.00006175            5.08        8.20        9.08

 
     init_run     :      1.11s CPU      4.16s WALL (       1 calls)
     electrons    :      1.09s CPU      1.18s WALL (       1 calls)
     forces       :      0.03s CPU      0.04s WALL (       1 calls)
     stress       :      0.15s CPU      0.15s WALL (       1 calls)

     Called by init_run:
     wfcinit      :      0.54s CPU      3.42s WALL (       1 calls)
                                        3.42s GPU  (       1 calls)
     potinit      :      0.15s CPU      0.25s WALL (       1 calls)
     hinit0       :      0.40s CPU      0.42s WALL (       1 calls)

     Called by electrons:
     c_bands      :      0.77s CPU      0.83s WALL (      10 calls)
     sum_band     :      0.17s CPU      0.19s WALL (      10 calls)
     v_of_rho     :      0.08s CPU      0.19s WALL (      10 calls)
     mix_rho      :      0.06s CPU      0.06s WALL (      10 calls)

     Called by c_bands:
     init_us_2    :      0.02s CPU      0.03s WALL (      21 calls)
     init_us_2:gp :      0.02s CPU      0.03s WALL (      21 calls)
     regterg      :      0.70s CPU      0.75s WALL (      10 calls)

     Called by *egterg:
     rdiaghg      :      0.30s CPU      0.89s WALL (      68 calls)
                                        0.87s GPU  (      68 calls)
     h_psi        :      0.81s CPU      3.13s WALL (      70 calls)
                                        3.13s GPU  (      70 calls)
     g_psi        :      0.00s CPU      0.00s WALL (      59 calls)
                                        0.00s GPU  (      59 calls)

     Called by h_psi:
     h_psi:calbec :      0.49s CPU      2.76s WALL (      70 calls)
                                        2.76s GPU  (      70 calls)
     vloc_psi     :      0.28s CPU      0.33s WALL (      70 calls)
                                        0.33s GPU  (      70 calls)
     add_vuspsi   :      0.03s CPU      0.04s WALL (      70 calls)
                                        0.04s GPU  (      70 calls)

     General routines
     calbec       :      0.50s CPU      2.76s WALL (      75 calls)
     fft          :      0.42s CPU      0.52s WALL (      87 calls)
                                        0.11s GPU  (      56 calls)
     ffts         :      0.02s CPU      0.02s WALL (      10 calls)
     fftw         :      0.32s CPU      0.42s WALL (    1114 calls)
                                        0.38s GPU  (    1114 calls)
 
     Parallel routines
 
     PWSCF        :      2.41s CPU      5.59s WALL

 
   This run was terminated on:  11:12:42  10May2023            

=------------------------------------------------------------------------------=
   JOB DONE.
=------------------------------------------------------------------------------=
