An instance of this daemon is already running

     Program PWSCF v.7.1 starts on 10May2023 at 11:19:57 

     This program is part of the open-source Quantum ESPRESSO suite
     for quantum simulation of materials; please cite
         "P. Giannozzi et al., J. Phys.:Condens. Matter 21 395502 (2009);
         "P. Giannozzi et al., J. Phys.:Condens. Matter 29 465901 (2017);
         "P. Giannozzi et al., J. Chem. Phys. 152 154105 (2020);
          URL http://www.quantum-espresso.org", 
     in publications or presentations arising from this work. More details at
     http://www.quantum-espresso.org/quote

     Parallel version (MPI & OpenMP), running on       4 processor cores
     Number of MPI processes:                 4
     Threads/MPI process:                     1

     MPI processes distributed on     1 nodes
     150322 MiB available memory on the printing compute node when the environment starts
 
     Reading input from pw-si-71.in
Warning: card &CELL ignored
Warning: card / ignored

     Current dimensions of program PWSCF are:
     Max number of different atomic species (ntypx) = 10
     Max number of k-points (npk) =  40000
     Max angular momentum in pseudopotentials (lmaxx) =  4

     IMPORTANT: XC functional enforced from input :
     Exchange-correlation= PBE
                           (   1   4   3   4   0   0   0)
     Any further DFT definition will be discarded
     Please, verify this is what you really want


     gamma-point specific algorithms are used
 
     K-points division:     npool     =       2
     R & G space division:  proc/nbgrp/npool/nimage =       2
     Subspace diagonalization in iterative solution of the eigenvalue problem:
     a serial algorithm will be used

     Message from routine divide_et_impera:
     suboptimal parallelization: some nodes have no k-points
 
     Parallelization info
     --------------------
     sticks:   dense  smooth     PW     G-vecs:    dense   smooth      PW
     Min        2036    2036    539                99023    99023   13463
     Max        2039    2039    542                99024    99024   13470
     Sum        4075    4075   1081               198047   198047   26933
 
     Using Slab Decomposition
 


     bravais-lattice index     =            0
     lattice parameter (alat)  =      20.5236  a.u.
     unit-cell volume          =    8921.6506 (a.u.)^3
     number of atoms/cell      =           64
     number of atomic types    =            1
     number of electrons       =       256.00
     number of Kohn-Sham states=          154
     kinetic-energy cutoff     =      30.0000  Ry
     charge density cutoff     =     120.0000  Ry
     scf convergence threshold =      1.0E-06
     mixing beta               =       0.5000
     number of iterations used =            8  plain     mixing
     Exchange-correlation= PBE
                           (   1   4   3   4   0   0   0)

     GPU acceleration is ACTIVE.
     GPU-aware MPI enabled

     Message from routine print_cuda_info:
     High GPU oversubscription detected. Are you sure this is what you want?

     celldm(1)=  20.523650  celldm(2)=   0.000000  celldm(3)=   0.000000
     celldm(4)=   0.000000  celldm(5)=   0.000000  celldm(6)=   0.000000

     crystal axes: (cart. coord. in units of alat)
               a(1) = (   1.000000   0.000000   0.000000 )  
               a(2) = (   0.000000   1.012623   0.000000 )  
               a(3) = (   0.000000   0.000000   1.019140 )  

     reciprocal axes: (cart. coord. in units 2 pi/alat)
               b(1) = (  1.000000  0.000000  0.000000 )  
               b(2) = (  0.000000  0.987535  0.000000 )  
               b(3) = (  0.000000  0.000000  0.981220 )  


     PseudoPot. # 1 for Si read from file:
     /home/ppiaggi/pseudos/Si_ONCV_PBE_sr.upf
     MD5 check sum: 8553c464762ac42b85b1eed164b4d029
     Pseudo is Norm-conserving, Zval =  4.0
     Generated using ONCVPSP code by D. R. Hamann
     Using radial grid of 1510 points,  4 beta functions with: 
                l(1) =   0
                l(2) =   0
                l(3) =   1
                l(4) =   1

     atomic species   valence    mass     pseudopotential
        Si             4.00    28.08500     Si( 1.00)

     No symmetry found



   Cartesian axes

     site n.     atom                  positions (alat units)
         1           Si  tau(   1) = (   0.0016465   0.0009908  -0.0039713  )
         2           Si  tau(   2) = (  -0.0012545   0.2468456   0.2564214  )
         3           Si  tau(   3) = (   0.2470905  -0.0006488   0.2512897  )
         4           Si  tau(   4) = (   0.2458598   0.2472333   0.0028831  )
         5           Si  tau(   5) = (   0.1213672   0.1293805   0.1262112  )
         6           Si  tau(   6) = (   0.4961024   0.0005955   0.0034685  )
         7           Si  tau(   7) = (   0.4931016   0.2511421   0.2551123  )
         8           Si  tau(   8) = (   0.6113546   0.1234302   0.1263959  )
         9           Si  tau(   9) = (   0.7408907   0.0034187   0.2517393  )
        10           Si  tau(  10) = (   0.7402922   0.2522541   0.0006518  )
        11           Si  tau(  11) = (  -0.0000821   0.5043795   0.0013781  )
        12           Si  tau(  12) = (   0.2425670   0.4981440   0.2541008  )
        13           Si  tau(  13) = (   0.1230610   0.6256589   0.1227004  )
        14           Si  tau(  14) = (   0.3684067   0.3781197   0.1247030  )
        15           Si  tau(  15) = (   0.4886493   0.4997132   0.0012912  )
        16           Si  tau(  16) = (   0.6199166   0.6271817   0.1244337  )
        17           Si  tau(  17) = (   0.8613775   0.3710473   0.1225678  )
        18           Si  tau(  18) = (   0.7415261   0.4986076   0.2557062  )
        19           Si  tau(  19) = (   0.0015074   0.7499975   0.2509773  )
        20           Si  tau(  20) = (   0.2478971   0.7478490   0.0028231  )
        21           Si  tau(  21) = (   0.3663424   0.8751101   0.1247736  )
        22           Si  tau(  22) = (   0.4921705   0.7461718   0.2563992  )
        23           Si  tau(  23) = (   0.7363779   0.7524198   0.0041709  )
        24           Si  tau(  24) = (   0.8616965   0.8721588   0.1243109  )
        25           Si  tau(  25) = (  -0.0023158  -0.0002764   0.5015342  )
        26           Si  tau(  26) = (   0.2438952   0.2513828   0.5026186  )
        27           Si  tau(  27) = (   0.1252027   0.1286010   0.6344568  )
        28           Si  tau(  28) = (   0.3716308   0.1206879   0.3830920  )
        29           Si  tau(  29) = (   0.4910338   0.0013779   0.5033446  )
        30           Si  tau(  30) = (   0.6139161   0.1211712   0.6358405  )
        31           Si  tau(  31) = (   0.8628481   0.1250415   0.3781512  )
        32           Si  tau(  32) = (   0.7377366   0.2514783   0.5093966  )
        33           Si  tau(  33) = (   0.1223361   0.3751566   0.3831977  )
        34           Si  tau(  34) = (  -0.0001116   0.5006450   0.5057370  )
        35           Si  tau(  35) = (   0.1245918   0.6262273   0.6321958  )
        36           Si  tau(  36) = (   0.6189318   0.3741116   0.3746696  )
        37           Si  tau(  37) = (   0.3673828   0.6209967   0.3823025  )
        38           Si  tau(  38) = (   0.3668276   0.3744245   0.6331173  )
        39           Si  tau(  39) = (   0.4966466   0.5042914   0.5050053  )
        40           Si  tau(  40) = (   0.6155612   0.6227562   0.6308225  )
        41           Si  tau(  41) = (   0.8640332   0.6207776   0.3782919  )
        42           Si  tau(  42) = (   0.8645015   0.3739154   0.6323517  )
        43           Si  tau(  43) = (   0.1226174   0.8767254   0.3806290  )
        44           Si  tau(  44) = (   0.2482781   0.7533939   0.5064912  )
        45           Si  tau(  45) = (   0.6183571   0.8758669   0.3802412  )
        46           Si  tau(  46) = (   0.3713712   0.8718400   0.6328086  )
        47           Si  tau(  47) = (   0.7348985   0.7518660   0.5075299  )
        48           Si  tau(  48) = (   0.8590785   0.8772712   0.6277745  )
        49           Si  tau(  49) = (   0.0020500   0.2459043   0.7569197  )
        50           Si  tau(  50) = (   0.2451116  -0.0037012   0.7607237  )
        51           Si  tau(  51) = (   0.3730132   0.1264298   0.8802819  )
        52           Si  tau(  52) = (   0.4936627   0.2480418   0.7598873  )
        53           Si  tau(  53) = (   0.7376009   0.0007444   0.7597997  )
        54           Si  tau(  54) = (   0.8656127   0.1208581   0.8807881  )
        55           Si  tau(  55) = (   0.1259226   0.3754284   0.8821782  )
        56           Si  tau(  56) = (   0.2498377   0.5021140   0.7624619  )
        57           Si  tau(  57) = (   0.6136587   0.3762353   0.8805188  )
        58           Si  tau(  58) = (   0.3653662   0.6255347   0.8803604  )
        59           Si  tau(  59) = (   0.7402618   0.4977089   0.7550371  )
        60           Si  tau(  60) = (   0.8661496   0.6219136   0.8886747  )
        61           Si  tau(  61) = (   0.0037356   0.7507266   0.7598410  )
        62           Si  tau(  62) = (   0.1272645   0.8765762   0.8874906  )
        63           Si  tau(  63) = (   0.4966096   0.7495764   0.7567324  )
        64           Si  tau(  64) = (   0.6186280   0.8776348   0.8824853  )

     number of k points=     1  Fermi-Dirac smearing, width (Ry)=  0.0100
                       cart. coord. in units 2pi/alat
        k(    1) = (   0.0000000   0.0000000   0.0000000), wk =   2.0000000

     Dense  grid:    99024 G-vectors     FFT dimensions: (  72,  75,  75)

     Estimated max dynamical RAM per process >     158.77 MB

     Estimated total dynamical RAM >     610.90 MB

     Initial potential from superposition of free atoms

     starting charge     255.9608, renormalised to     256.0000
     Starting wfcs are  256 randomized atomic wfcs

     total cpu time spent up to now is        4.1 secs

     Self-consistent Calculation

     iteration #  1     ecut=    30.00 Ry     beta= 0.50
     Davidson diagonalization with overlap
     ethr =  1.00E-02,  avg # of iterations =  3.0

     Threshold (ethr) on eigenvalues was too large:
     Diagonalizing with lowered threshold

     Davidson diagonalization with overlap
     ethr =  6.50E-04,  avg # of iterations =  3.0

     total cpu time spent up to now is        4.3 secs

     total energy              =    -503.79812347 Ry
     estimated scf accuracy    <       1.83964112 Ry

     iteration #  2     ecut=    30.00 Ry     beta= 0.50
     Davidson diagonalization with overlap
     ethr =  7.19E-04,  avg # of iterations =  1.0

     total cpu time spent up to now is        4.4 secs

     total energy              =    -503.78364243 Ry
     estimated scf accuracy    <       0.34158389 Ry

     iteration #  3     ecut=    30.00 Ry     beta= 0.50
     Davidson diagonalization with overlap
     ethr =  1.33E-04,  avg # of iterations = 10.0

     total cpu time spent up to now is        4.5 secs

     total energy              =    -503.80248074 Ry
     estimated scf accuracy    <       0.02668114 Ry

     iteration #  4     ecut=    30.00 Ry     beta= 0.50
     Davidson diagonalization with overlap
     c_bands:  1 eigenvalues not converged
     ethr =  1.04E-05,  avg # of iterations = 20.0

     total cpu time spent up to now is        4.7 secs

     total energy              =    -503.80837731 Ry
     estimated scf accuracy    <       0.01047428 Ry

     iteration #  5     ecut=    30.00 Ry     beta= 0.50
     Davidson diagonalization with overlap
     ethr =  4.09E-06,  avg # of iterations =  5.0

     total cpu time spent up to now is        4.9 secs

     total energy              =    -503.81018277 Ry
     estimated scf accuracy    <       0.00157733 Ry

     iteration #  6     ecut=    30.00 Ry     beta= 0.50
     Davidson diagonalization with overlap
     ethr =  6.16E-07,  avg # of iterations =  4.0

     total cpu time spent up to now is        5.0 secs

     total energy              =    -503.81034708 Ry
     estimated scf accuracy    <       0.00038713 Ry

     iteration #  7     ecut=    30.00 Ry     beta= 0.50
     Davidson diagonalization with overlap
     ethr =  1.51E-07,  avg # of iterations =  4.0

     total cpu time spent up to now is        5.1 secs

     total energy              =    -503.81039826 Ry
     estimated scf accuracy    <       0.00002164 Ry

     iteration #  8     ecut=    30.00 Ry     beta= 0.50
     Davidson diagonalization with overlap
     ethr =  8.45E-09,  avg # of iterations =  5.0

     total cpu time spent up to now is        5.2 secs

     total energy              =    -503.81040613 Ry
     estimated scf accuracy    <       0.00002015 Ry

     iteration #  9     ecut=    30.00 Ry     beta= 0.50
     Davidson diagonalization with overlap
     ethr =  7.87E-09,  avg # of iterations =  3.0

     total cpu time spent up to now is        5.3 secs

     total energy              =    -503.81040796 Ry
     estimated scf accuracy    <       0.00000260 Ry

     iteration # 10     ecut=    30.00 Ry     beta= 0.50
     Davidson diagonalization with overlap
     ethr =  1.02E-09,  avg # of iterations =  5.0

     total cpu time spent up to now is        5.4 secs

     End of self-consistent calculation

          k = 0.0000 0.0000 0.0000 ( 12398 PWs)   bands (ev):

    -5.8780  -4.9172  -4.9044  -4.8731  -4.7928  -4.7268  -4.6663  -4.0784
    -4.0487  -4.0216  -3.9407  -3.9360  -3.8678  -3.8454  -3.8201  -3.8037
    -3.7746  -3.7388  -3.6851  -3.6444  -3.5410  -3.5195  -3.2775  -2.0214
    -1.9757  -1.9168  -1.8427  -1.8220  -1.7922  -1.7850  -1.7362  -1.7141
    -1.6839  -1.6615  -1.6553  -1.6067  -1.5587  -1.5270  -1.4840  -1.4424
    -1.3646  -1.0890  -0.8776  -0.8433  -0.7933   0.3160   0.3567   0.3836
     0.4132   0.4494   0.4678   0.5164   0.5498   0.5691   0.6102   0.6236
     0.6632   2.0197   2.0483   2.0562   2.0685   2.0772   2.0907   2.1022
     2.1231   2.1450   2.1602   2.1730   2.1933   2.2059   2.2166   2.2361
     2.2493   2.2653   2.2868   2.3196   2.3443   2.3630   2.3763   2.3852
     2.4486   2.4903   2.5355   2.5434   2.5704   2.5846   2.6336   3.0397
     3.0731   3.1361   3.1633   3.2482   3.2672   3.8931   3.9206   3.9898
     4.0316   4.0648   4.0866   4.1088   4.1214   4.1733   4.2125   4.2688
     4.2957   4.4368   4.4688   4.5004   4.5233   4.5477   4.5735   4.6008
     4.6128   4.6320   4.6408   4.6703   4.7102   4.7250   4.7450   4.7695
     4.8093   4.8353   5.0712   5.1609   5.2236   5.7478   6.0374   6.1213
     6.4856   6.5155   6.5688   6.6363   6.7815   6.8317   6.9318   7.0134
     7.0404   7.1053   7.1525   7.1900   7.2733   7.2859   7.2940   7.3598
     8.1168   8.1279   8.1603   8.2237   8.2413   8.2751   8.2916   8.3126
     8.3591   8.3663

     the Fermi energy is     6.2514 ev

!    total energy              =    -503.81040854 Ry
     estimated scf accuracy    <       0.00000021 Ry
     smearing contrib. (-TS)   =      -0.05589901 Ry
     internal energy E=F+TS    =    -503.75450953 Ry

     The total energy is F=E-TS. E is the sum of the following terms:
     one-electron contribution =     142.62033976 Ry
     hartree contribution      =      37.59487856 Ry
     xc contribution           =    -153.30705407 Ry
     ewald contribution        =    -530.66267378 Ry

     convergence has been achieved in  10 iterations

     Forces acting on atoms (cartesian axes, Ry/au):

     atom    1 type  1   force =    -0.03679517   -0.03572666   -0.00692075
     atom    2 type  1   force =    -0.03695679    0.02239149   -0.00791560
     atom    3 type  1   force =    -0.00975465   -0.02422775    0.00404887
     atom    4 type  1   force =     0.01449615    0.01950811   -0.04965117
     atom    5 type  1   force =    -0.00425266   -0.03410604    0.00688714
     atom    6 type  1   force =    -0.03068721   -0.04606350   -0.05441772
     atom    7 type  1   force =    -0.01631415   -0.00717110   -0.01165764
     atom    8 type  1   force =     0.03347615    0.02380288    0.00927049
     atom    9 type  1   force =    -0.00250720   -0.05266375   -0.00519524
     atom   10 type  1   force =    -0.01927442   -0.03078739   -0.05158958
     atom   11 type  1   force =    -0.03449605   -0.03993675   -0.03391895
     atom   12 type  1   force =     0.00563454    0.00960256   -0.00652191
     atom   13 type  1   force =    -0.00040090   -0.00279083    0.02798496
     atom   14 type  1   force =    -0.00853486   -0.02659376    0.02120801
     atom   15 type  1   force =     0.02541240    0.02295337   -0.04376843
     atom   16 type  1   force =    -0.02958283   -0.02678848    0.02349445
     atom   17 type  1   force =     0.05858519    0.02616541    0.03017868
     atom   18 type  1   force =     0.00627434    0.00124246   -0.03914803
     atom   19 type  1   force =    -0.04321855    0.00272055    0.00743296
     atom   20 type  1   force =    -0.00240697    0.01275836   -0.04755710
     atom   21 type  1   force =     0.02896688    0.02653810    0.01725376
     atom   22 type  1   force =     0.00014277    0.01984567   -0.01308746
     atom   23 type  1   force =     0.02150400   -0.00209054   -0.06477954
     atom   24 type  1   force =     0.04844601    0.05623815    0.01664518
     atom   25 type  1   force =    -0.02240620   -0.01597691    0.02205199
     atom   26 type  1   force =     0.02162477   -0.01398073    0.02128222
     atom   27 type  1   force =    -0.00543962   -0.04268445   -0.02833575
     atom   28 type  1   force =    -0.02655840    0.02943810   -0.03443202
     atom   29 type  1   force =     0.02540628   -0.06246575    0.03308979
     atom   30 type  1   force =     0.00128202    0.01258934   -0.02218888
     atom   31 type  1   force =     0.02489188    0.00369717    0.01423636
     atom   32 type  1   force =     0.00622951   -0.01683480   -0.01045752
     atom   33 type  1   force =    -0.01967276   -0.00328591   -0.02709423
     atom   34 type  1   force =    -0.03639701    0.00334947    0.01419119
     atom   35 type  1   force =     0.00059645   -0.00306963    0.00106372
     atom   36 type  1   force =    -0.01027156    0.00409528    0.03241627
     atom   37 type  1   force =    -0.00428937    0.01570481   -0.01326815
     atom   38 type  1   force =     0.02208304    0.00446143   -0.01126949
     atom   39 type  1   force =    -0.01851103   -0.04474452   -0.00148009
     atom   40 type  1   force =     0.01664528    0.01382023    0.01147595
     atom   41 type  1   force =     0.03373988    0.03243637    0.01263701
     atom   42 type  1   force =     0.04284441   -0.00540980   -0.00291799
     atom   43 type  1   force =    -0.00072767    0.02775293   -0.01492567
     atom   44 type  1   force =    -0.01090649   -0.01358295   -0.00394512
     atom   45 type  1   force =    -0.01660105    0.03998237   -0.01884845
     atom   46 type  1   force =    -0.00055804    0.05484077   -0.00126478
     atom   47 type  1   force =     0.02815443   -0.01856758   -0.01275105
     atom   48 type  1   force =     0.05097372    0.02551504    0.02478703
     atom   49 type  1   force =    -0.04759877    0.02704046    0.01815350
     atom   50 type  1   force =     0.01886961   -0.01560741   -0.00973545
     atom   51 type  1   force =    -0.02265648   -0.02891128    0.05845463
     atom   52 type  1   force =    -0.00343428    0.01803490   -0.02026229
     atom   53 type  1   force =     0.01787596   -0.04425453   -0.00997655
     atom   54 type  1   force =     0.02647309    0.02054438    0.03945487
     atom   55 type  1   force =    -0.01838432   -0.00708976    0.04313482
     atom   56 type  1   force =    -0.02916446   -0.01694032   -0.03704709
     atom   57 type  1   force =     0.00932619   -0.00090114    0.04647111
     atom   58 type  1   force =     0.03843294    0.02212472    0.05669399
     atom   59 type  1   force =     0.01107217    0.01495362    0.02164807
     atom   60 type  1   force =     0.01223453    0.02252780    0.00320058
     atom   61 type  1   force =    -0.05518828    0.01001023    0.00225546
     atom   62 type  1   force =    -0.01386622    0.01650640    0.02074287
     atom   63 type  1   force =    -0.00779451    0.00055531    0.01578639
     atom   64 type  1   force =    -0.00608563    0.01950575    0.03869738

     Total force =     0.365356     Total SCF correction =     0.000755


     Computing stress (Cartesian axis) and pressure

          total   stress  (Ry/bohr**3)                   (kbar)     P=        4.10
   0.00007186   0.00006794   0.00005214           10.57        9.99        7.67
   0.00006794   0.00002207   0.00004448            9.99        3.25        6.54
   0.00005214   0.00004448  -0.00001030            7.67        6.54       -1.51

 
     init_run     :      0.93s CPU      4.06s WALL (       1 calls)
     electrons    :      1.20s CPU      1.32s WALL (       1 calls)
     forces       :      0.04s CPU      0.04s WALL (       1 calls)
     stress       :      0.16s CPU      0.16s WALL (       1 calls)

     Called by init_run:
     wfcinit      :      0.45s CPU      3.43s WALL (       1 calls)
                                        3.43s GPU  (       1 calls)
     potinit      :      0.15s CPU      0.23s WALL (       1 calls)
     hinit0       :      0.31s CPU      0.33s WALL (       1 calls)

     Called by electrons:
     c_bands      :      0.83s CPU      0.89s WALL (      11 calls)
     sum_band     :      0.21s CPU      0.26s WALL (      11 calls)
     v_of_rho     :      0.09s CPU      0.17s WALL (      11 calls)
     mix_rho      :      0.06s CPU      0.07s WALL (      11 calls)

     Called by c_bands:
     init_us_2    :      0.03s CPU      0.03s WALL (      23 calls)
     init_us_2:gp :      0.03s CPU      0.03s WALL (      23 calls)
     regterg      :      0.74s CPU      0.80s WALL (      11 calls)

     Called by *egterg:
     rdiaghg      :      0.32s CPU      0.92s WALL (      73 calls)
                                        0.90s GPU  (      73 calls)
     h_psi        :      0.74s CPU      3.15s WALL (      75 calls)
                                        3.15s GPU  (      75 calls)
     g_psi        :      0.00s CPU      0.00s WALL (      63 calls)
                                        0.00s GPU  (      63 calls)

     Called by h_psi:
     h_psi:calbec :      0.40s CPU      2.75s WALL (      75 calls)
                                        2.75s GPU  (      75 calls)
     vloc_psi     :      0.30s CPU      0.35s WALL (      75 calls)
                                        0.35s GPU  (      75 calls)
     add_vuspsi   :      0.03s CPU      0.04s WALL (      75 calls)
                                        0.04s GPU  (      75 calls)

     General routines
     calbec       :      0.41s CPU      2.76s WALL (      80 calls)
     fft          :      0.33s CPU      0.43s WALL (      95 calls)
                                        0.10s GPU  (      61 calls)
     ffts         :      0.02s CPU      0.02s WALL (      11 calls)
     fftw         :      0.35s CPU      0.48s WALL (    1223 calls)
                                        0.43s GPU  (    1223 calls)
 
     Parallel routines
 
     PWSCF        :      2.36s CPU      5.65s WALL

 
   This run was terminated on:  11:20: 2  10May2023            

=------------------------------------------------------------------------------=
   JOB DONE.
=------------------------------------------------------------------------------=
