An instance of this daemon is already running
An instance of this daemon is already running

     Program PWSCF v.7.1 starts on 10May2023 at 11:18:59 

     This program is part of the open-source Quantum ESPRESSO suite
     for quantum simulation of materials; please cite
         "P. Giannozzi et al., J. Phys.:Condens. Matter 21 395502 (2009);
         "P. Giannozzi et al., J. Phys.:Condens. Matter 29 465901 (2017);
         "P. Giannozzi et al., J. Chem. Phys. 152 154105 (2020);
          URL http://www.quantum-espresso.org", 
     in publications or presentations arising from this work. More details at
     http://www.quantum-espresso.org/quote

     Parallel version (MPI & OpenMP), running on       4 processor cores
     Number of MPI processes:                 4
     Threads/MPI process:                     1

     MPI processes distributed on     1 nodes
     150912 MiB available memory on the printing compute node when the environment starts
 
     Reading input from pw-si-64.in
Warning: card &CELL ignored
Warning: card / ignored

     Current dimensions of program PWSCF are:
     Max number of different atomic species (ntypx) = 10
     Max number of k-points (npk) =  40000
     Max angular momentum in pseudopotentials (lmaxx) =  4

     IMPORTANT: XC functional enforced from input :
     Exchange-correlation= PBE
                           (   1   4   3   4   0   0   0)
     Any further DFT definition will be discarded
     Please, verify this is what you really want


     gamma-point specific algorithms are used
 
     K-points division:     npool     =       2
     R & G space division:  proc/nbgrp/npool/nimage =       2
     Subspace diagonalization in iterative solution of the eigenvalue problem:
     a serial algorithm will be used

     Message from routine divide_et_impera:
     suboptimal parallelization: some nodes have no k-points
 
     Parallelization info
     --------------------
     sticks:   dense  smooth     PW     G-vecs:    dense   smooth      PW
     Min        2077    2077    550               101049   101049   13726
     Max        2080    2080    551               101052   101052   13731
     Sum        4157    4157   1101               202101   202101   27457
 
     Using Slab Decomposition
 


     bravais-lattice index     =            0
     lattice parameter (alat)  =      21.1185  a.u.
     unit-cell volume          =    9106.1004 (a.u.)^3
     number of atoms/cell      =           64
     number of atomic types    =            1
     number of electrons       =       256.00
     number of Kohn-Sham states=          154
     kinetic-energy cutoff     =      30.0000  Ry
     charge density cutoff     =     120.0000  Ry
     scf convergence threshold =      1.0E-06
     mixing beta               =       0.5000
     number of iterations used =            8  plain     mixing
     Exchange-correlation= PBE
                           (   1   4   3   4   0   0   0)

     GPU acceleration is ACTIVE.
     GPU-aware MPI enabled

     Message from routine print_cuda_info:
     High GPU oversubscription detected. Are you sure this is what you want?

     celldm(1)=  21.118459  celldm(2)=   0.000000  celldm(3)=   0.000000
     celldm(4)=   0.000000  celldm(5)=   0.000000  celldm(6)=   0.000000

     crystal axes: (cart. coord. in units of alat)
               a(1) = (   1.000000   0.000000   0.000000 )  
               a(2) = (   0.000000   0.978763   0.000000 )  
               a(3) = (   0.000000   0.000000   0.987798 )  

     reciprocal axes: (cart. coord. in units 2 pi/alat)
               b(1) = (  1.000000  0.000000  0.000000 )  
               b(2) = (  0.000000  1.021698  0.000000 )  
               b(3) = (  0.000000  0.000000  1.012353 )  


     PseudoPot. # 1 for Si read from file:
     /home/ppiaggi/pseudos/Si_ONCV_PBE_sr.upf
     MD5 check sum: 8553c464762ac42b85b1eed164b4d029
     Pseudo is Norm-conserving, Zval =  4.0
     Generated using ONCVPSP code by D. R. Hamann
     Using radial grid of 1510 points,  4 beta functions with: 
                l(1) =   0
                l(2) =   0
                l(3) =   1
                l(4) =   1

     atomic species   valence    mass     pseudopotential
        Si             4.00    28.08500     Si( 1.00)

     No symmetry found



   Cartesian axes

     site n.     atom                  positions (alat units)
         1           Si  tau(   1) = (   0.0006939   0.0021805   0.0012008  )
         2           Si  tau(   2) = (  -0.0041088   0.2446209   0.2498663  )
         3           Si  tau(   3) = (   0.2437281   0.0002144   0.2496242  )
         4           Si  tau(   4) = (   0.2473252   0.2418059   0.0033382  )
         5           Si  tau(   5) = (   0.1197483   0.1270413   0.1200304  )
         6           Si  tau(   6) = (   0.4982616   0.0017472   0.0038728  )
         7           Si  tau(   7) = (   0.4912300   0.2429626   0.2525621  )
         8           Si  tau(   8) = (   0.6223326   0.1214384   0.1221083  )
         9           Si  tau(   9) = (   0.7406079   0.0002471   0.2477132  )
        10           Si  tau(  10) = (   0.7421737   0.2488253  -0.0008213  )
        11           Si  tau(  11) = (  -0.0032386   0.4883279  -0.0044931  )
        12           Si  tau(  12) = (   0.2457194   0.4874605   0.2516235  )
        13           Si  tau(  13) = (   0.1200133   0.6128935   0.1283841  )
        14           Si  tau(  14) = (   0.3739601   0.3726972   0.1267471  )
        15           Si  tau(  15) = (   0.4923926   0.4926122  -0.0005330  )
        16           Si  tau(  16) = (   0.6211965   0.6138337   0.1231227  )
        17           Si  tau(  17) = (   0.8664871   0.3668437   0.1251132  )
        18           Si  tau(  18) = (   0.7464707   0.4951014   0.2531937  )
        19           Si  tau(  19) = (  -0.0004087   0.7412122   0.2444730  )
        20           Si  tau(  20) = (   0.2467513   0.7334147  -0.0037433  )
        21           Si  tau(  21) = (   0.3681260   0.8621868   0.1218417  )
        22           Si  tau(  22) = (   0.4909709   0.7408501   0.2515042  )
        23           Si  tau(  23) = (   0.7386403   0.7330241   0.0040788  )
        24           Si  tau(  24) = (   0.8634591   0.8587866   0.1245627  )
        25           Si  tau(  25) = (  -0.0017858   0.0030087   0.4949056  )
        26           Si  tau(  26) = (   0.2484156   0.2453273   0.5001646  )
        27           Si  tau(  27) = (   0.1272191   0.1205057   0.6172881  )
        28           Si  tau(  28) = (   0.3757584   0.1267689   0.3752794  )
        29           Si  tau(  29) = (   0.4949988  -0.0017614   0.5004818  )
        30           Si  tau(  30) = (   0.6171506   0.1189648   0.6204261  )
        31           Si  tau(  31) = (   0.8659293   0.1192548   0.3695753  )
        32           Si  tau(  32) = (   0.7451043   0.2456672   0.4986148  )
        33           Si  tau(  33) = (   0.1267653   0.3681408   0.3736297  )
        34           Si  tau(  34) = (   0.0037163   0.4937108   0.4934236  )
        35           Si  tau(  35) = (   0.1200732   0.6136801   0.6179339  )
        36           Si  tau(  36) = (   0.6159028   0.3662528   0.3704986  )
        37           Si  tau(  37) = (   0.3753233   0.6186793   0.3773554  )
        38           Si  tau(  38) = (   0.3725096   0.3719576   0.6258665  )
        39           Si  tau(  39) = (   0.4981681   0.4952112   0.5005692  )
        40           Si  tau(  40) = (   0.6182445   0.6166173   0.6209186  )
        41           Si  tau(  41) = (   0.8700566   0.6106575   0.3765836  )
        42           Si  tau(  42) = (   0.8681654   0.3685102   0.6179633  )
        43           Si  tau(  43) = (   0.1201435   0.8616481   0.3724700  )
        44           Si  tau(  44) = (   0.2460042   0.7391355   0.5015710  )
        45           Si  tau(  45) = (   0.6169989   0.8645573   0.3759294  )
        46           Si  tau(  46) = (   0.3675537   0.8616975   0.6217793  )
        47           Si  tau(  47) = (   0.7402592   0.7334319   0.4947442  )
        48           Si  tau(  48) = (   0.8645679   0.8625324   0.6221036  )
        49           Si  tau(  49) = (   0.0036543   0.2457508   0.7465588  )
        50           Si  tau(  50) = (   0.2454034  -0.0021795   0.7469984  )
        51           Si  tau(  51) = (   0.3677279   0.1262900   0.8686570  )
        52           Si  tau(  52) = (   0.4907250   0.2502394   0.7463144  )
        53           Si  tau(  53) = (   0.7419029   0.0017835   0.7504225  )
        54           Si  tau(  54) = (   0.8638852   0.1264019   0.8677206  )
        55           Si  tau(  55) = (   0.1244191   0.3657517   0.8737666  )
        56           Si  tau(  56) = (   0.2467081   0.4912827   0.7471252  )
        57           Si  tau(  57) = (   0.6151144   0.3670790   0.8712778  )
        58           Si  tau(  58) = (   0.3679726   0.6121258   0.8703158  )
        59           Si  tau(  59) = (   0.7393876   0.4914201   0.7442083  )
        60           Si  tau(  60) = (   0.8650617   0.6183273   0.8670166  )
        61           Si  tau(  61) = (   0.0040444   0.7356147   0.7439313  )
        62           Si  tau(  62) = (   0.1218960   0.8625098   0.8737544  )
        63           Si  tau(  63) = (   0.4961532   0.7398351   0.7480705  )
        64           Si  tau(  64) = (   0.6157766   0.8561715   0.8665528  )

     number of k points=     1  Fermi-Dirac smearing, width (Ry)=  0.0100
                       cart. coord. in units 2pi/alat
        k(    1) = (   0.0000000   0.0000000   0.0000000), wk =   2.0000000

     Dense  grid:   101051 G-vectors     FFT dimensions: (  75,  75,  75)

     Estimated max dynamical RAM per process >     162.28 MB

     Estimated total dynamical RAM >     624.46 MB

     Initial potential from superposition of free atoms

     starting charge     255.9608, renormalised to     256.0000
     Starting wfcs are  256 randomized atomic wfcs

     total cpu time spent up to now is        3.9 secs

     Self-consistent Calculation

     iteration #  1     ecut=    30.00 Ry     beta= 0.50
     Davidson diagonalization with overlap
     ethr =  1.00E-02,  avg # of iterations =  3.0

     Threshold (ethr) on eigenvalues was too large:
     Diagonalizing with lowered threshold

     Davidson diagonalization with overlap
     ethr =  6.29E-04,  avg # of iterations =  4.0

     total cpu time spent up to now is        4.2 secs

     total energy              =    -503.86178611 Ry
     estimated scf accuracy    <       1.78460743 Ry

     iteration #  2     ecut=    30.00 Ry     beta= 0.50
     Davidson diagonalization with overlap
     ethr =  6.97E-04,  avg # of iterations =  1.0

     total cpu time spent up to now is        4.3 secs

     total energy              =    -503.84555666 Ry
     estimated scf accuracy    <       0.33809477 Ry

     iteration #  3     ecut=    30.00 Ry     beta= 0.50
     Davidson diagonalization with overlap
     ethr =  1.32E-04,  avg # of iterations =  5.0

     total cpu time spent up to now is        4.4 secs

     total energy              =    -503.86539437 Ry
     estimated scf accuracy    <       0.01295737 Ry

     iteration #  4     ecut=    30.00 Ry     beta= 0.50
     Davidson diagonalization with overlap
     c_bands:  1 eigenvalues not converged
     ethr =  5.06E-06,  avg # of iterations = 20.0

     total cpu time spent up to now is        4.6 secs

     total energy              =    -503.86849483 Ry
     estimated scf accuracy    <       0.00918243 Ry

     iteration #  5     ecut=    30.00 Ry     beta= 0.50
     Davidson diagonalization with overlap
     c_bands:  1 eigenvalues not converged
     ethr =  3.59E-06,  avg # of iterations = 20.0

     total cpu time spent up to now is        4.8 secs

     total energy              =    -503.87019101 Ry
     estimated scf accuracy    <       0.00158085 Ry

     iteration #  6     ecut=    30.00 Ry     beta= 0.50
     Davidson diagonalization with overlap
     ethr =  6.18E-07,  avg # of iterations =  4.0

     total cpu time spent up to now is        5.0 secs

     total energy              =    -503.87032067 Ry
     estimated scf accuracy    <       0.00030964 Ry

     iteration #  7     ecut=    30.00 Ry     beta= 0.50
     Davidson diagonalization with overlap
     ethr =  1.21E-07,  avg # of iterations =  5.0

     total cpu time spent up to now is        5.1 secs

     total energy              =    -503.87037204 Ry
     estimated scf accuracy    <       0.00000690 Ry

     iteration #  8     ecut=    30.00 Ry     beta= 0.50
     Davidson diagonalization with overlap
     ethr =  2.70E-09,  avg # of iterations =  5.0

     total cpu time spent up to now is        5.2 secs

     total energy              =    -503.87037571 Ry
     estimated scf accuracy    <       0.00000848 Ry

     iteration #  9     ecut=    30.00 Ry     beta= 0.50
     Davidson diagonalization with overlap
     ethr =  2.70E-09,  avg # of iterations =  3.0

     total cpu time spent up to now is        5.3 secs

     total energy              =    -503.87037656 Ry
     estimated scf accuracy    <       0.00000120 Ry

     iteration # 10     ecut=    30.00 Ry     beta= 0.50
     Davidson diagonalization with overlap
     ethr =  4.68E-10,  avg # of iterations =  5.0

     total cpu time spent up to now is        5.4 secs

     End of self-consistent calculation

          k = 0.0000 0.0000 0.0000 ( 12647 PWs)   bands (ev):

    -5.9182  -4.9703  -4.9478  -4.8969  -4.8775  -4.8350  -4.7554  -4.1168
    -4.0913  -4.0466  -4.0351  -4.0061  -3.9937  -3.9818  -3.9253  -3.8812
    -3.8516  -3.8244  -3.8068  -3.7308  -3.6951  -3.6581  -3.5110  -2.1296
    -2.0502  -2.0263  -1.9758  -1.9322  -1.9026  -1.8999  -1.8737  -1.8219
    -1.7974  -1.7936  -1.7637  -1.7465  -1.7289  -1.7233  -1.6974  -1.6546
    -1.5894  -1.0902  -1.0237  -0.9772  -0.9376   0.1930   0.2249   0.2426
     0.3027   0.3073   0.3332   0.3572   0.3845   0.3949   0.4050   0.4238
     0.4314   1.8765   1.9459   1.9512   1.9878   1.9968   2.0076   2.0220
     2.0290   2.0487   2.0685   2.0771   2.0809   2.0987   2.1054   2.1200
     2.1313   2.1509   2.1637   2.1838   2.1996   2.2072   2.2176   2.2395
     2.2541   2.2691   2.2834   2.3278   2.3642   2.3781   2.4178   2.9169
     2.9413   3.0061   3.0294   3.0832   3.0936   3.7990   3.7995   3.8407
     3.8520   3.8791   3.8980   3.9308   3.9639   3.9938   4.0162   4.0495
     4.1194   4.2686   4.2858   4.3619   4.3988   4.4156   4.4288   4.4493
     4.4713   4.4919   4.5027   4.5250   4.5451   4.5653   4.5901   4.6030
     4.6117   4.6330   4.6939   4.7156   4.9986   5.6728   5.7366   5.8831
     6.3357   6.3819   6.5031   6.5190   6.5888   6.6019   6.7852   6.8042
     6.8409   6.8858   6.9334   7.0192   7.0270   7.0351   7.0487   7.0886
     7.9457   7.9694   8.0042   8.0160   8.0210   8.0563   8.0919   8.1198
     8.1542   8.1680

     the Fermi energy is     6.0654 ev

!    total energy              =    -503.87037683 Ry
     estimated scf accuracy    <       0.00000012 Ry
     smearing contrib. (-TS)   =      -0.04654978 Ry
     internal energy E=F+TS    =    -503.82382705 Ry

     The total energy is F=E-TS. E is the sum of the following terms:
     one-electron contribution =     138.85592018 Ry
     hartree contribution      =      37.70441916 Ry
     xc contribution           =    -152.65653903 Ry
     ewald contribution        =    -527.72762736 Ry

     convergence has been achieved in  10 iterations

     Forces acting on atoms (cartesian axes, Ry/au):

     atom    1 type  1   force =    -0.06025872    0.01409506    0.01382331
     atom    2 type  1   force =    -0.00775472    0.00611903   -0.00375138
     atom    3 type  1   force =     0.01108634    0.03111258   -0.00652695
     atom    4 type  1   force =     0.01111249    0.03411525    0.01663585
     atom    5 type  1   force =     0.00242866   -0.01661749    0.04010730
     atom    6 type  1   force =    -0.01965071    0.00494779   -0.01621132
     atom    7 type  1   force =     0.03265868    0.01552530   -0.03850204
     atom    8 type  1   force =    -0.01292530    0.02272627    0.01802298
     atom    9 type  1   force =     0.00750457    0.00313769    0.00410753
     atom   10 type  1   force =     0.00356763   -0.00840131    0.02454996
     atom   11 type  1   force =    -0.02529354    0.01906462    0.03843331
     atom   12 type  1   force =     0.02073627    0.03529088   -0.00086653
     atom   13 type  1   force =     0.00737529   -0.01000019   -0.02588030
     atom   14 type  1   force =    -0.01922669   -0.02627472    0.00036009
     atom   15 type  1   force =     0.01777301   -0.00063572    0.02550870
     atom   16 type  1   force =    -0.02945736   -0.00626622    0.03547018
     atom   17 type  1   force =     0.01831819    0.01774708    0.00375099
     atom   18 type  1   force =    -0.01411989   -0.02783681   -0.01968902
     atom   19 type  1   force =    -0.03372491   -0.01596628    0.02285722
     atom   20 type  1   force =    -0.01365396    0.01376168    0.04931026
     atom   21 type  1   force =    -0.00216587   -0.01941227    0.00970874
     atom   22 type  1   force =     0.02235539    0.00043020   -0.02041436
     atom   23 type  1   force =     0.02058580    0.02414011   -0.01496533
     atom   24 type  1   force =     0.02767940   -0.00230358   -0.00744434
     atom   25 type  1   force =    -0.02785773   -0.00147804    0.00729164
     atom   26 type  1   force =     0.01620075    0.01380438   -0.00549849
     atom   27 type  1   force =    -0.02108667    0.00455128    0.02116128
     atom   28 type  1   force =    -0.03678685   -0.03391968    0.00982022
     atom   29 type  1   force =    -0.01120514    0.02308122   -0.00741007
     atom   30 type  1   force =     0.00689080    0.02964774    0.02074343
     atom   31 type  1   force =     0.01783327    0.01968647    0.01400145
     atom   32 type  1   force =    -0.01289850   -0.01395864   -0.01867708
     atom   33 type  1   force =    -0.02056725   -0.01886036    0.00317385
     atom   34 type  1   force =    -0.03513378   -0.02427842    0.00836865
     atom   35 type  1   force =     0.02358625   -0.00106971    0.01930421
     atom   36 type  1   force =     0.01823748    0.01563636    0.02136551
     atom   37 type  1   force =    -0.03036088   -0.01814133   -0.00344093
     atom   38 type  1   force =    -0.01212440    0.00566386   -0.02435043
     atom   39 type  1   force =    -0.00994263   -0.02009949   -0.01421406
     atom   40 type  1   force =     0.00261001    0.00087119    0.01430449
     atom   41 type  1   force =     0.02245079    0.03222074   -0.01647887
     atom   42 type  1   force =     0.03054079    0.01081069    0.01708267
     atom   43 type  1   force =     0.00571234   -0.01854808    0.00683273
     atom   44 type  1   force =    -0.00439158   -0.00482269   -0.02421188
     atom   45 type  1   force =     0.00540609   -0.03560831   -0.01490112
     atom   46 type  1   force =     0.01287036   -0.01968260    0.01464350
     atom   47 type  1   force =     0.01881831    0.02228993    0.00878964
     atom   48 type  1   force =     0.02880635   -0.02145946   -0.00667270
     atom   49 type  1   force =    -0.03130175   -0.00510573   -0.01926199
     atom   50 type  1   force =     0.00145797    0.02582148   -0.00007083
     atom   51 type  1   force =     0.01851864   -0.02262575   -0.00987141
     atom   52 type  1   force =     0.02018606   -0.02919181   -0.00523826
     atom   53 type  1   force =    -0.00379252   -0.00088665   -0.02042577
     atom   54 type  1   force =     0.04466500   -0.00396763   -0.00458033
     atom   55 type  1   force =     0.00442709    0.00488807   -0.02869137
     atom   56 type  1   force =    -0.01653292   -0.00237633   -0.00662011
     atom   57 type  1   force =     0.00502002    0.01602488   -0.02568077
     atom   58 type  1   force =     0.01632955    0.01073835   -0.03297738
     atom   59 type  1   force =     0.01466369   -0.00252762    0.00128022
     atom   60 type  1   force =     0.02560271   -0.02051994   -0.01463013
     atom   61 type  1   force =    -0.04795722    0.02141635    0.00622046
     atom   62 type  1   force =     0.00471873   -0.03453784   -0.03641747
     atom   63 type  1   force =    -0.02958267   -0.02553876   -0.02706186
     atom   64 type  1   force =     0.02101936    0.01355292    0.02460449

     Total force =     0.280875     Total SCF correction =     0.000526


     Computing stress (Cartesian axis) and pressure

          total   stress  (Ry/bohr**3)                   (kbar)     P=      -14.61
  -0.00016037   0.00000717  -0.00002273          -23.59        1.06       -3.34
   0.00000717  -0.00004722   0.00003008            1.06       -6.95        4.42
  -0.00002273   0.00003008  -0.00009040           -3.34        4.42      -13.30

 
     init_run     :      0.78s CPU      3.89s WALL (       1 calls)
     electrons    :      1.38s CPU      1.49s WALL (       1 calls)
     forces       :      0.03s CPU      0.04s WALL (       1 calls)
     stress       :      0.16s CPU      0.16s WALL (       1 calls)

     Called by init_run:
     wfcinit      :      0.44s CPU      3.41s WALL (       1 calls)
                                        3.41s GPU  (       1 calls)
     potinit      :      0.15s CPU      0.22s WALL (       1 calls)
     hinit0       :      0.18s CPU      0.20s WALL (       1 calls)

     Called by electrons:
     c_bands      :      1.00s CPU      1.07s WALL (      11 calls)
     sum_band     :      0.21s CPU      0.24s WALL (      11 calls)
     v_of_rho     :      0.09s CPU      0.16s WALL (      11 calls)
     mix_rho      :      0.07s CPU      0.08s WALL (      11 calls)

     Called by c_bands:
     init_us_2    :      0.03s CPU      0.03s WALL (      23 calls)
     init_us_2:gp :      0.03s CPU      0.03s WALL (      23 calls)
     regterg      :      0.91s CPU      0.97s WALL (      11 calls)

     Called by *egterg:
     rdiaghg      :      0.40s CPU      1.00s WALL (      85 calls)
                                        0.99s GPU  (      85 calls)
     h_psi        :      0.81s CPU      3.23s WALL (      87 calls)
                                        3.23s GPU  (      87 calls)
     g_psi        :      0.00s CPU      0.00s WALL (      75 calls)
                                        0.00s GPU  (      75 calls)

     Called by h_psi:
     h_psi:calbec :      0.39s CPU      2.73s WALL (      87 calls)
                                        2.73s GPU  (      87 calls)
     vloc_psi     :      0.37s CPU      0.45s WALL (      87 calls)
                                        0.45s GPU  (      87 calls)
     add_vuspsi   :      0.03s CPU      0.05s WALL (      87 calls)
                                        0.05s GPU  (      87 calls)

     General routines
     calbec       :      0.39s CPU      2.73s WALL (      92 calls)
     fft          :      0.20s CPU      0.29s WALL (      95 calls)
                                        0.09s GPU  (      61 calls)
     ffts         :      0.02s CPU      0.03s WALL (      11 calls)
     fftw         :      0.41s CPU      0.56s WALL (    1255 calls)
                                        0.51s GPU  (    1255 calls)
 
     Parallel routines
 
     PWSCF        :      2.39s CPU      5.65s WALL

 
   This run was terminated on:  11:19: 5  10May2023            

=------------------------------------------------------------------------------=
   JOB DONE.
=------------------------------------------------------------------------------=
