An instance of this daemon is already running
An instance of this daemon is already running

     Program PWSCF v.7.1 starts on 10May2023 at 11:12:52 

     This program is part of the open-source Quantum ESPRESSO suite
     for quantum simulation of materials; please cite
         "P. Giannozzi et al., J. Phys.:Condens. Matter 21 395502 (2009);
         "P. Giannozzi et al., J. Phys.:Condens. Matter 29 465901 (2017);
         "P. Giannozzi et al., J. Chem. Phys. 152 154105 (2020);
          URL http://www.quantum-espresso.org", 
     in publications or presentations arising from this work. More details at
     http://www.quantum-espresso.org/quote

     Parallel version (MPI & OpenMP), running on       4 processor cores
     Number of MPI processes:                 4
     Threads/MPI process:                     1

     MPI processes distributed on     1 nodes
     150154 MiB available memory on the printing compute node when the environment starts
 
     Reading input from pw-si-20.in
Warning: card &CELL ignored
Warning: card / ignored

     Current dimensions of program PWSCF are:
     Max number of different atomic species (ntypx) = 10
     Max number of k-points (npk) =  40000
     Max angular momentum in pseudopotentials (lmaxx) =  4

     IMPORTANT: XC functional enforced from input :
     Exchange-correlation= PBE
                           (   1   4   3   4   0   0   0)
     Any further DFT definition will be discarded
     Please, verify this is what you really want


     gamma-point specific algorithms are used
 
     K-points division:     npool     =       2
     R & G space division:  proc/nbgrp/npool/nimage =       2
     Subspace diagonalization in iterative solution of the eigenvalue problem:
     a serial algorithm will be used

     Message from routine divide_et_impera:
     suboptimal parallelization: some nodes have no k-points
 
     Parallelization info
     --------------------
     sticks:   dense  smooth     PW     G-vecs:    dense   smooth      PW
     Min        2001    2001    528                96709    96709   13120
     Max        2004    2004    529                96716    96716   13121
     Sum        4005    4005   1057               193425   193425   26241
 
     Using Slab Decomposition
 


     bravais-lattice index     =            0
     lattice parameter (alat)  =      20.5772  a.u.
     unit-cell volume          =    8713.0870 (a.u.)^3
     number of atoms/cell      =           64
     number of atomic types    =            1
     number of electrons       =       256.00
     number of Kohn-Sham states=          154
     kinetic-energy cutoff     =      30.0000  Ry
     charge density cutoff     =     120.0000  Ry
     scf convergence threshold =      1.0E-06
     mixing beta               =       0.5000
     number of iterations used =            8  plain     mixing
     Exchange-correlation= PBE
                           (   1   4   3   4   0   0   0)

     GPU acceleration is ACTIVE.
     GPU-aware MPI enabled

     Message from routine print_cuda_info:
     High GPU oversubscription detected. Are you sure this is what you want?

     celldm(1)=  20.577188  celldm(2)=   0.000000  celldm(3)=   0.000000
     celldm(4)=   0.000000  celldm(5)=   0.000000  celldm(6)=   0.000000

     crystal axes: (cart. coord. in units of alat)
               a(1) = (   1.000000   0.000000   0.000000 )  
               a(2) = (   0.000000   0.991323   0.000000 )  
               a(3) = (   0.000000   0.000000   1.008786 )  

     reciprocal axes: (cart. coord. in units 2 pi/alat)
               b(1) = (  1.000000  0.000000  0.000000 )  
               b(2) = (  0.000000  1.008753  0.000000 )  
               b(3) = (  0.000000  0.000000  0.991291 )  


     PseudoPot. # 1 for Si read from file:
     /home/ppiaggi/pseudos/Si_ONCV_PBE_sr.upf
     MD5 check sum: 8553c464762ac42b85b1eed164b4d029
     Pseudo is Norm-conserving, Zval =  4.0
     Generated using ONCVPSP code by D. R. Hamann
     Using radial grid of 1510 points,  4 beta functions with: 
                l(1) =   0
                l(2) =   0
                l(3) =   1
                l(4) =   1

     atomic species   valence    mass     pseudopotential
        Si             4.00    28.08500     Si( 1.00)

     No symmetry found



   Cartesian axes

     site n.     atom                  positions (alat units)
         1           Si  tau(   1) = (   0.0020238  -0.0038807   0.0022121  )
         2           Si  tau(   2) = (  -0.0003796   0.2496608   0.2581405  )
         3           Si  tau(   3) = (   0.2472057   0.0006642   0.2536130  )
         4           Si  tau(   4) = (   0.2464627   0.2526061   0.0042606  )
         5           Si  tau(   5) = (   0.1253855   0.1242452   0.1328409  )
         6           Si  tau(   6) = (   0.4916462  -0.0027568  -0.0012344  )
         7           Si  tau(   7) = (   0.4929887   0.2555211   0.2576482  )
         8           Si  tau(   8) = (   0.6154437   0.1241062   0.1306961  )
         9           Si  tau(   9) = (   0.7464317  -0.0042794   0.2593888  )
        10           Si  tau(  10) = (   0.7444762   0.2478081  -0.0039938  )
        11           Si  tau(  11) = (   0.0000947   0.5046792  -0.0003754  )
        12           Si  tau(  12) = (   0.2459599   0.5012285   0.2527452  )
        13           Si  tau(  13) = (   0.1253061   0.6319477   0.1249481  )
        14           Si  tau(  14) = (   0.3733007   0.3754871   0.1300609  )
        15           Si  tau(  15) = (   0.4955410   0.5048178  -0.0010447  )
        16           Si  tau(  16) = (   0.6160414   0.6267609   0.1289961  )
        17           Si  tau(  17) = (   0.8643501   0.3759742   0.1279532  )
        18           Si  tau(  18) = (   0.7423346   0.5056835   0.2548621  )
        19           Si  tau(  19) = (  -0.0028978   0.7560815   0.2584737  )
        20           Si  tau(  20) = (   0.2437526   0.7496040  -0.0043449  )
        21           Si  tau(  21) = (   0.3726254   0.8808051   0.1272287  )
        22           Si  tau(  22) = (   0.4911289   0.7532717   0.2596992  )
        23           Si  tau(  23) = (   0.7389124   0.7548210  -0.0032382  )
        24           Si  tau(  24) = (   0.8633610   0.8760322   0.1258665  )
        25           Si  tau(  25) = (   0.0024755   0.0030774   0.5134343  )
        26           Si  tau(  26) = (   0.2504082   0.2546567   0.5157009  )
        27           Si  tau(  27) = (   0.1225679   0.1270605   0.6394848  )
        28           Si  tau(  28) = (   0.3736126   0.1295050   0.3892028  )
        29           Si  tau(  29) = (   0.4965999  -0.0024368   0.5161650  )
        30           Si  tau(  30) = (   0.6195963   0.1272682   0.6410778  )
        31           Si  tau(  31) = (   0.8649830   0.1234786   0.3883783  )
        32           Si  tau(  32) = (   0.7424052   0.2485213   0.5150511  )
        33           Si  tau(  33) = (   0.1251642   0.3736937   0.3855760  )
        34           Si  tau(  34) = (   0.0012411   0.5021843   0.5126487  )
        35           Si  tau(  35) = (   0.1261411   0.6247688   0.6416026  )
        36           Si  tau(  36) = (   0.6217172   0.3753263   0.3892175  )
        37           Si  tau(  37) = (   0.3749781   0.6311655   0.3815602  )
        38           Si  tau(  38) = (   0.3754253   0.3742400   0.6420957  )
        39           Si  tau(  39) = (   0.4992456   0.5044698   0.5183513  )
        40           Si  tau(  40) = (   0.6228668   0.6270822   0.6414198  )
        41           Si  tau(  41) = (   0.8641942   0.6302517   0.3813421  )
        42           Si  tau(  42) = (   0.8694020   0.3728520   0.6451231  )
        43           Si  tau(  43) = (   0.1241866   0.8756826   0.3819625  )
        44           Si  tau(  44) = (   0.2490459   0.7542551   0.5101915  )
        45           Si  tau(  45) = (   0.6159734   0.8752258   0.3812344  )
        46           Si  tau(  46) = (   0.3690516   0.8814034   0.6420549  )
        47           Si  tau(  47) = (   0.7458550   0.7551645   0.5181644  )
        48           Si  tau(  48) = (   0.8647258   0.8828253   0.6442537  )
        49           Si  tau(  49) = (   0.0011121   0.2511904   0.7749592  )
        50           Si  tau(  50) = (   0.2504306   0.0006802   0.7711873  )
        51           Si  tau(  51) = (   0.3743300   0.1259798   0.8956590  )
        52           Si  tau(  52) = (   0.4939538   0.2490743   0.7722506  )
        53           Si  tau(  53) = (   0.7449428  -0.0039748   0.7698603  )
        54           Si  tau(  54) = (   0.8632428   0.1255816   0.9029509  )
        55           Si  tau(  55) = (   0.1269087   0.3787961   0.9018385  )
        56           Si  tau(  56) = (   0.2472642   0.5004465   0.7722660  )
        57           Si  tau(  57) = (   0.6151902   0.3730820   0.8969382  )
        58           Si  tau(  58) = (   0.3674361   0.6240885   0.9035644  )
        59           Si  tau(  59) = (   0.7401263   0.5049157   0.7726564  )
        60           Si  tau(  60) = (   0.8676490   0.6269961   0.9047700  )
        61           Si  tau(  61) = (   0.0007914   0.7527697   0.7695798  )
        62           Si  tau(  62) = (   0.1233560   0.8767251   0.9034699  )
        63           Si  tau(  63) = (   0.4932657   0.7495622   0.7703239  )
        64           Si  tau(  64) = (   0.6219516   0.8797635   0.9040455  )

     number of k points=     1  Fermi-Dirac smearing, width (Ry)=  0.0100
                       cart. coord. in units 2pi/alat
        k(    1) = (   0.0000000   0.0000000   0.0000000), wk =   2.0000000

     Dense  grid:    96713 G-vectors     FFT dimensions: (  72,  72,  75)

     Estimated max dynamical RAM per process >     154.89 MB

     Estimated total dynamical RAM >     595.95 MB

     Initial potential from superposition of free atoms

     starting charge     255.9608, renormalised to     256.0000
     Starting wfcs are  256 randomized atomic wfcs

     total cpu time spent up to now is        4.4 secs

     Self-consistent Calculation

     iteration #  1     ecut=    30.00 Ry     beta= 0.50
     Davidson diagonalization with overlap
     ethr =  1.00E-02,  avg # of iterations =  3.0

     Threshold (ethr) on eigenvalues was too large:
     Diagonalizing with lowered threshold

     Davidson diagonalization with overlap
     ethr =  6.74E-04,  avg # of iterations =  4.0

     total cpu time spent up to now is        4.6 secs

     total energy              =    -503.67596345 Ry
     estimated scf accuracy    <       1.90970637 Ry

     iteration #  2     ecut=    30.00 Ry     beta= 0.50
     Davidson diagonalization with overlap
     ethr =  7.46E-04,  avg # of iterations =  1.0

     total cpu time spent up to now is        4.7 secs

     total energy              =    -503.66119469 Ry
     estimated scf accuracy    <       0.35233318 Ry

     iteration #  3     ecut=    30.00 Ry     beta= 0.50
     Davidson diagonalization with overlap
     ethr =  1.38E-04,  avg # of iterations =  5.0

     total cpu time spent up to now is        4.8 secs

     total energy              =    -503.66928675 Ry
     estimated scf accuracy    <       0.12783736 Ry

     iteration #  4     ecut=    30.00 Ry     beta= 0.50
     Davidson diagonalization with overlap
     ethr =  4.99E-05,  avg # of iterations = 19.0

     total cpu time spent up to now is        5.0 secs

     total energy              =    -503.69125960 Ry
     estimated scf accuracy    <       0.01375149 Ry

     iteration #  5     ecut=    30.00 Ry     beta= 0.50
     Davidson diagonalization with overlap
     ethr =  5.37E-06,  avg # of iterations = 13.0

     total cpu time spent up to now is        5.2 secs

     total energy              =    -503.69289199 Ry
     estimated scf accuracy    <       0.00388266 Ry

     iteration #  6     ecut=    30.00 Ry     beta= 0.50
     Davidson diagonalization with overlap
     ethr =  1.52E-06,  avg # of iterations =  4.0

     total cpu time spent up to now is        5.3 secs

     total energy              =    -503.69358084 Ry
     estimated scf accuracy    <       0.00130751 Ry

     iteration #  7     ecut=    30.00 Ry     beta= 0.50
     Davidson diagonalization with overlap
     ethr =  5.11E-07,  avg # of iterations =  3.0

     total cpu time spent up to now is        5.4 secs

     total energy              =    -503.69369243 Ry
     estimated scf accuracy    <       0.00019528 Ry

     iteration #  8     ecut=    30.00 Ry     beta= 0.50
     Davidson diagonalization with overlap
     ethr =  7.63E-08,  avg # of iterations =  5.0

     total cpu time spent up to now is        5.5 secs

     total energy              =    -503.69373619 Ry
     estimated scf accuracy    <       0.00001846 Ry

     iteration #  9     ecut=    30.00 Ry     beta= 0.50
     Davidson diagonalization with overlap
     ethr =  7.21E-09,  avg # of iterations =  4.0

     total cpu time spent up to now is        5.6 secs

     total energy              =    -503.69373850 Ry
     estimated scf accuracy    <       0.00000793 Ry

     iteration # 10     ecut=    30.00 Ry     beta= 0.50
     Davidson diagonalization with overlap
     ethr =  3.10E-09,  avg # of iterations =  4.0

     total cpu time spent up to now is        5.7 secs

     total energy              =    -503.69373969 Ry
     estimated scf accuracy    <       0.00000114 Ry

     iteration # 11     ecut=    30.00 Ry     beta= 0.50
     Davidson diagonalization with overlap
     ethr =  4.44E-10,  avg # of iterations =  5.0

     total cpu time spent up to now is        5.8 secs

     End of self-consistent calculation

          k = 0.0000 0.0000 0.0000 ( 12071 PWs)   bands (ev):

    -5.8490  -4.8602  -4.8380  -4.7996  -4.7046  -4.6776  -4.5801  -4.0942
    -3.9191  -3.8971  -3.8577  -3.7978  -3.7645  -3.7424  -3.7102  -3.6896
    -3.6071  -3.5463  -3.4849  -3.4474  -3.3670  -3.3375  -3.1968  -1.9666
    -1.9136  -1.8034  -1.6968  -1.6243  -1.5870  -1.5662  -1.5430  -1.4953
    -1.4556  -1.4512  -1.4329  -1.3954  -1.3720  -1.3390  -1.3229  -1.2897
    -1.2378  -0.9055  -0.8285  -0.7692  -0.6142   0.5384   0.5614   0.5943
     0.6052   0.6202   0.6773   0.7027   0.7211   0.7289   0.7876   0.7954
     0.8391   2.0096   2.0618   2.0773   2.1002   2.1704   2.2041   2.2573
     2.2827   2.2943   2.3146   2.3542   2.3857   2.4025   2.4251   2.4319
     2.4743   2.4991   2.5137   2.5250   2.5415   2.5500   2.5627   2.6214
     2.6477   2.6943   2.7336   2.7690   2.8043   2.8252   2.8669   3.1992
     3.2091   3.3024   3.3445   3.3624   3.4289   4.1182   4.1446   4.1643
     4.1995   4.2166   4.2510   4.2926   4.3166   4.3290   4.3775   4.3892
     4.4395   4.4789   4.5151   4.7630   4.7805   4.8146   4.8490   4.8783
     4.9117   4.9357   4.9471   4.9824   5.0093   5.0264   5.0505   5.0908
     5.1058   5.1677   5.1973   5.2209   5.3873   6.0822   6.2359   6.3572
     6.5858   6.6793   6.7359   6.8657   6.9278   7.0129   7.2224   7.2348
     7.2526   7.3336   7.3986   7.4233   7.5682   7.5800   7.6014   7.6441
     8.2586   8.3186   8.4142   8.4270   8.4515   8.5011   8.5326   8.5947
     8.5986   8.6215

     the Fermi energy is     6.4405 ev

!    total energy              =    -503.69374002 Ry
     estimated scf accuracy    <       0.00000015 Ry
     smearing contrib. (-TS)   =      -0.06324155 Ry
     internal energy E=F+TS    =    -503.63049846 Ry

     The total energy is F=E-TS. E is the sum of the following terms:
     one-electron contribution =     147.15128796 Ry
     hartree contribution      =      37.45336823 Ry
     xc contribution           =    -154.06399414 Ry
     ewald contribution        =    -534.17116051 Ry

     convergence has been achieved in  11 iterations

     Forces acting on atoms (cartesian axes, Ry/au):

     atom    1 type  1   force =    -0.07059775    0.08140768    0.07736999
     atom    2 type  1   force =    -0.03413673    0.00000879    0.00146613
     atom    3 type  1   force =     0.01803136    0.03726587    0.03155699
     atom    4 type  1   force =     0.02217624   -0.02490570    0.04235004
     atom    5 type  1   force =    -0.02082275    0.01206007   -0.01490870
     atom    6 type  1   force =     0.00688667    0.06760979    0.06368759
     atom    7 type  1   force =     0.02277700   -0.01796685    0.01344530
     atom    8 type  1   force =     0.01462761    0.00477012    0.00420511
     atom    9 type  1   force =    -0.01887334    0.05234529   -0.01015132
     atom   10 type  1   force =    -0.04379070    0.03436105    0.09616815
     atom   11 type  1   force =    -0.02004444   -0.01250258    0.06959516
     atom   12 type  1   force =     0.00828372    0.00787192    0.01362033
     atom   13 type  1   force =    -0.02666752   -0.01500631    0.03410197
     atom   14 type  1   force =    -0.00996146    0.02165511   -0.00789247
     atom   15 type  1   force =     0.00811288   -0.03449250    0.06811937
     atom   16 type  1   force =     0.00245434    0.01934339    0.00433403
     atom   17 type  1   force =     0.03486612    0.00295676    0.00403261
     atom   18 type  1   force =    -0.00326315   -0.02399716    0.00720166
     atom   19 type  1   force =    -0.01951505   -0.01984579   -0.02450328
     atom   20 type  1   force =     0.02823340    0.01885880    0.08687497
     atom   21 type  1   force =    -0.02690141   -0.06618738    0.00916821
     atom   22 type  1   force =     0.02038198    0.00350504   -0.04134726
     atom   23 type  1   force =     0.02789659   -0.04271996    0.09123356
     atom   24 type  1   force =     0.03870087   -0.03074831    0.00776430
     atom   25 type  1   force =    -0.03463379    0.01241357   -0.00587487
     atom   26 type  1   force =    -0.00864957   -0.01375121   -0.00719885
     atom   27 type  1   force =     0.01392532    0.00958419    0.02501795
     atom   28 type  1   force =    -0.00926981   -0.01648038   -0.00810365
     atom   29 type  1   force =     0.00556916    0.04951174   -0.02059928
     atom   30 type  1   force =    -0.00110770   -0.01779035    0.01841444
     atom   31 type  1   force =     0.03458339    0.00712222   -0.00602925
     atom   32 type  1   force =     0.01728631    0.01044073   -0.00012407
     atom   33 type  1   force =    -0.00704018    0.01906094   -0.00147043
     atom   34 type  1   force =    -0.03383613   -0.00862327   -0.00706019
     atom   35 type  1   force =    -0.00524294    0.01469239   -0.00364770
     atom   36 type  1   force =    -0.00639136    0.01934675   -0.01132326
     atom   37 type  1   force =    -0.02853977   -0.04008226    0.03185028
     atom   38 type  1   force =    -0.01070837    0.02388615    0.01377704
     atom   39 type  1   force =    -0.00923394   -0.00937546   -0.03058034
     atom   40 type  1   force =    -0.00797711    0.01633597    0.01458582
     atom   41 type  1   force =     0.03680784   -0.00228187    0.02881780
     atom   42 type  1   force =     0.01129013    0.02213105   -0.00095880
     atom   43 type  1   force =    -0.00578821   -0.01264637    0.01676362
     atom   44 type  1   force =    -0.00134932   -0.01243359    0.00878619
     atom   45 type  1   force =     0.01717033   -0.02898401    0.03572192
     atom   46 type  1   force =     0.00910101   -0.06292371   -0.00069876
     atom   47 type  1   force =    -0.01033235   -0.00506081   -0.03112596
     atom   48 type  1   force =     0.07088711   -0.05575852   -0.02815140
     atom   49 type  1   force =    -0.02344596   -0.00628725   -0.00887393
     atom   50 type  1   force =    -0.03409636    0.04002323   -0.00075926
     atom   51 type  1   force =    -0.03352868    0.01120640   -0.02477028
     atom   52 type  1   force =     0.01336990    0.00180627   -0.02938006
     atom   53 type  1   force =    -0.02768763    0.07623009    0.01890754
     atom   54 type  1   force =     0.07806466   -0.04645002   -0.08272337
     atom   55 type  1   force =    -0.02106238   -0.00414808   -0.05887819
     atom   56 type  1   force =     0.01427873   -0.00642792   -0.02078648
     atom   57 type  1   force =     0.01561974    0.01862411   -0.04311575
     atom   58 type  1   force =     0.01017024    0.00689161   -0.09129707
     atom   59 type  1   force =     0.02534171   -0.02599562   -0.00545714
     atom   60 type  1   force =     0.01240742    0.00601345   -0.08233212
     atom   61 type  1   force =    -0.02842718   -0.00509733   -0.00174785
     atom   62 type  1   force =     0.01889593   -0.03430255   -0.11631499
     atom   63 type  1   force =     0.00563773    0.00870748    0.00181803
     atom   64 type  1   force =    -0.02091242   -0.03477489   -0.11256979

     Total force =     0.466291     Total SCF correction =     0.000529


     Computing stress (Cartesian axis) and pressure

          total   stress  (Ry/bohr**3)                   (kbar)     P=       27.52
   0.00021069  -0.00011684  -0.00006063           30.99      -17.19       -8.92
  -0.00011684   0.00022824   0.00002988          -17.19       33.58        4.40
  -0.00006063   0.00002988   0.00012223           -8.92        4.40       17.98

 
     init_run     :      1.02s CPU      4.37s WALL (       1 calls)
     electrons    :      1.28s CPU      1.40s WALL (       1 calls)
     forces       :      0.04s CPU      0.04s WALL (       1 calls)
     stress       :      0.15s CPU      0.15s WALL (       1 calls)

     Called by init_run:
     wfcinit      :      0.45s CPU      3.64s WALL (       1 calls)
                                        3.64s GPU  (       1 calls)
     potinit      :      0.14s CPU      0.24s WALL (       1 calls)
     hinit0       :      0.40s CPU      0.43s WALL (       1 calls)

     Called by electrons:
     c_bands      :      0.89s CPU      0.96s WALL (      12 calls)
     sum_band     :      0.21s CPU      0.24s WALL (      12 calls)
     v_of_rho     :      0.09s CPU      0.19s WALL (      12 calls)
     mix_rho      :      0.08s CPU      0.09s WALL (      12 calls)

     Called by c_bands:
     init_us_2    :      0.03s CPU      0.04s WALL (      25 calls)
     init_us_2:gp :      0.03s CPU      0.03s WALL (      25 calls)
     regterg      :      0.80s CPU      0.87s WALL (      12 calls)

     Called by *egterg:
     rdiaghg      :      0.38s CPU      1.03s WALL (      81 calls)
                                        1.01s GPU  (      81 calls)
     h_psi        :      0.73s CPU      3.28s WALL (      83 calls)
                                        3.28s GPU  (      83 calls)
     g_psi        :      0.00s CPU      0.00s WALL (      70 calls)
                                        0.00s GPU  (      70 calls)

     Called by h_psi:
     h_psi:calbec :      0.42s CPU      2.90s WALL (      83 calls)
                                        2.90s GPU  (      83 calls)
     vloc_psi     :      0.27s CPU      0.33s WALL (      83 calls)
                                        0.33s GPU  (      83 calls)
     add_vuspsi   :      0.03s CPU      0.04s WALL (      83 calls)
                                        0.04s GPU  (      83 calls)

     General routines
     calbec       :      0.42s CPU      2.91s WALL (      88 calls)
     fft          :      0.44s CPU      0.56s WALL (     103 calls)
                                        0.12s GPU  (      66 calls)
     ffts         :      0.02s CPU      0.03s WALL (      12 calls)
     fftw         :      0.31s CPU      0.42s WALL (    1332 calls)
                                        0.38s GPU  (    1332 calls)
 
     Parallel routines
 
     PWSCF        :      2.52s CPU      6.04s WALL

 
   This run was terminated on:  11:12:58  10May2023            

=------------------------------------------------------------------------------=
   JOB DONE.
=------------------------------------------------------------------------------=
