An instance of this daemon is already running
An instance of this daemon is already running

     Program PWSCF v.7.1 starts on 10May2023 at 11:15:40 

     This program is part of the open-source Quantum ESPRESSO suite
     for quantum simulation of materials; please cite
         "P. Giannozzi et al., J. Phys.:Condens. Matter 21 395502 (2009);
         "P. Giannozzi et al., J. Phys.:Condens. Matter 29 465901 (2017);
         "P. Giannozzi et al., J. Chem. Phys. 152 154105 (2020);
          URL http://www.quantum-espresso.org", 
     in publications or presentations arising from this work. More details at
     http://www.quantum-espresso.org/quote

     Parallel version (MPI & OpenMP), running on       4 processor cores
     Number of MPI processes:                 4
     Threads/MPI process:                     1

     MPI processes distributed on     1 nodes
     150170 MiB available memory on the printing compute node when the environment starts
 
     Reading input from pw-si-40.in
Warning: card &CELL ignored
Warning: card / ignored

     Current dimensions of program PWSCF are:
     Max number of different atomic species (ntypx) = 10
     Max number of k-points (npk) =  40000
     Max angular momentum in pseudopotentials (lmaxx) =  4

     IMPORTANT: XC functional enforced from input :
     Exchange-correlation= PBE
                           (   1   4   3   4   0   0   0)
     Any further DFT definition will be discarded
     Please, verify this is what you really want


     gamma-point specific algorithms are used
 
     K-points division:     npool     =       2
     R & G space division:  proc/nbgrp/npool/nimage =       2
     Subspace diagonalization in iterative solution of the eigenvalue problem:
     a serial algorithm will be used

     Message from routine divide_et_impera:
     suboptimal parallelization: some nodes have no k-points
 
     Parallelization info
     --------------------
     sticks:   dense  smooth     PW     G-vecs:    dense   smooth      PW
     Min        2127    2127    558               104091   104091   14138
     Max        2130    2130    559               104094   104094   14143
     Sum        4257    4257   1117               208185   208185   28281
 
     Using Slab Decomposition
 


     bravais-lattice index     =            0
     lattice parameter (alat)  =      21.1381  a.u.
     unit-cell volume          =    9378.7404 (a.u.)^3
     number of atoms/cell      =           64
     number of atomic types    =            1
     number of electrons       =       256.00
     number of Kohn-Sham states=          154
     kinetic-energy cutoff     =      30.0000  Ry
     charge density cutoff     =     120.0000  Ry
     scf convergence threshold =      1.0E-06
     mixing beta               =       0.5000
     number of iterations used =            8  plain     mixing
     Exchange-correlation= PBE
                           (   1   4   3   4   0   0   0)

     GPU acceleration is ACTIVE.
     GPU-aware MPI enabled

     Message from routine print_cuda_info:
     High GPU oversubscription detected. Are you sure this is what you want?

     celldm(1)=  21.138115  celldm(2)=   0.000000  celldm(3)=   0.000000
     celldm(4)=   0.000000  celldm(5)=   0.000000  celldm(6)=   0.000000

     crystal axes: (cart. coord. in units of alat)
               a(1) = (   1.000000   0.000000   0.000000 )  
               a(2) = (   0.000000   0.999180   0.000000 )  
               a(3) = (   0.000000   0.000000   0.993807 )  

     reciprocal axes: (cart. coord. in units 2 pi/alat)
               b(1) = (  1.000000  0.000000  0.000000 )  
               b(2) = (  0.000000  1.000821  0.000000 )  
               b(3) = (  0.000000  0.000000  1.006232 )  


     PseudoPot. # 1 for Si read from file:
     /home/ppiaggi/pseudos/Si_ONCV_PBE_sr.upf
     MD5 check sum: 8553c464762ac42b85b1eed164b4d029
     Pseudo is Norm-conserving, Zval =  4.0
     Generated using ONCVPSP code by D. R. Hamann
     Using radial grid of 1510 points,  4 beta functions with: 
                l(1) =   0
                l(2) =   0
                l(3) =   1
                l(4) =   1

     atomic species   valence    mass     pseudopotential
        Si             4.00    28.08500     Si( 1.00)

     No symmetry found



   Cartesian axes

     site n.     atom                  positions (alat units)
         1           Si  tau(   1) = (  -0.0012529   0.0038260   0.0035279  )
         2           Si  tau(   2) = (  -0.0044749   0.2519971   0.2471767  )
         3           Si  tau(   3) = (   0.2499702   0.0040808   0.2465123  )
         4           Si  tau(   4) = (   0.2483111   0.2510967   0.0030015  )
         5           Si  tau(   5) = (   0.1272373   0.1287943   0.1230681  )
         6           Si  tau(   6) = (   0.4908527  -0.0037529  -0.0022153  )
         7           Si  tau(   7) = (   0.4949292   0.2480064   0.2489462  )
         8           Si  tau(   8) = (   0.6152361   0.1272902   0.1200130  )
         9           Si  tau(   9) = (   0.7423316  -0.0019363   0.2449668  )
        10           Si  tau(  10) = (   0.7379423   0.2532222   0.0011641  )
        11           Si  tau(  11) = (  -0.0042918   0.4971645  -0.0025714  )
        12           Si  tau(  12) = (   0.2432611   0.4978461   0.2506462  )
        13           Si  tau(  13) = (   0.1209454   0.6272945   0.1266500  )
        14           Si  tau(  14) = (   0.3717339   0.3775524   0.1239681  )
        15           Si  tau(  15) = (   0.4968808   0.5007186   0.0044745  )
        16           Si  tau(  16) = (   0.6196370   0.6259965   0.1214471  )
        17           Si  tau(  17) = (   0.8642801   0.3737224   0.1261873  )
        18           Si  tau(  18) = (   0.7393932   0.4944534   0.2509166  )
        19           Si  tau(  19) = (   0.0010281   0.7463711   0.2445350  )
        20           Si  tau(  20) = (   0.2510204   0.7468975  -0.0034924  )
        21           Si  tau(  21) = (   0.3708340   0.8752312   0.1232682  )
        22           Si  tau(  22) = (   0.4904534   0.7469965   0.2478917  )
        23           Si  tau(  23) = (   0.7386214   0.7490952  -0.0033002  )
        24           Si  tau(  24) = (   0.8687185   0.8691374   0.1207816  )
        25           Si  tau(  25) = (   0.0009728   0.0019660   0.4928555  )
        26           Si  tau(  26) = (   0.2509756   0.2475061   0.4977222  )
        27           Si  tau(  27) = (   0.1253576   0.1222963   0.6171489  )
        28           Si  tau(  28) = (   0.3702780   0.1246275   0.3740953  )
        29           Si  tau(  29) = (   0.4918286  -0.0006592   0.4937070  )
        30           Si  tau(  30) = (   0.6204980   0.1205427   0.6172310  )
        31           Si  tau(  31) = (   0.8604253   0.1270586   0.3692482  )
        32           Si  tau(  32) = (   0.7375163   0.2493706   0.4914735  )
        33           Si  tau(  33) = (   0.1207871   0.3712965   0.3685735  )
        34           Si  tau(  34) = (  -0.0005948   0.4950586   0.4961835  )
        35           Si  tau(  35) = (   0.1201156   0.6245429   0.6208774  )
        36           Si  tau(  36) = (   0.6169091   0.3726184   0.3719072  )
        37           Si  tau(  37) = (   0.3686247   0.6266142   0.3755205  )
        38           Si  tau(  38) = (   0.3740471   0.3761449   0.6153259  )
        39           Si  tau(  39) = (   0.4935366   0.5007153   0.4905488  )
        40           Si  tau(  40) = (   0.6167251   0.6250952   0.6177337  )
        41           Si  tau(  41) = (   0.8690598   0.6249345   0.3686227  )
        42           Si  tau(  42) = (   0.8689127   0.3731402   0.6169486  )
        43           Si  tau(  43) = (   0.1216828   0.8697170   0.3698451  )
        44           Si  tau(  44) = (   0.2499197   0.7445447   0.4964406  )
        45           Si  tau(  45) = (   0.6159523   0.8730120   0.3683492  )
        46           Si  tau(  46) = (   0.3745604   0.8733745   0.6216452  )
        47           Si  tau(  47) = (   0.7451469   0.7456478   0.4919339  )
        48           Si  tau(  48) = (   0.8633532   0.8702047   0.6193596  )
        49           Si  tau(  49) = (   0.0023682   0.2499517   0.7392233  )
        50           Si  tau(  50) = (   0.2452318   0.0035128   0.7390153  )
        51           Si  tau(  51) = (   0.3688418   0.1234396   0.8623514  )
        52           Si  tau(  52) = (   0.4981503   0.2473510   0.7429331  )
        53           Si  tau(  53) = (   0.7451802  -0.0043254   0.7430486  )
        54           Si  tau(  54) = (   0.8629650   0.1214453   0.8620397  )
        55           Si  tau(  55) = (   0.1205797   0.3776850   0.8673256  )
        56           Si  tau(  56) = (   0.2456027   0.4990449   0.7453074  )
        57           Si  tau(  57) = (   0.6180590   0.3751184   0.8672605  )
        58           Si  tau(  58) = (   0.3708290   0.6198450   0.8695997  )
        59           Si  tau(  59) = (   0.7434525   0.4949878   0.7380961  )
        60           Si  tau(  60) = (   0.8671747   0.6271245   0.8697844  )
        61           Si  tau(  61) = (   0.0032156   0.7492830   0.7413217  )
        62           Si  tau(  62) = (   0.1201280   0.8714807   0.8617749  )
        63           Si  tau(  63) = (   0.4968048   0.7524237   0.7439623  )
        64           Si  tau(  64) = (   0.6197319   0.8730074   0.8652949  )

     number of k points=     1  Fermi-Dirac smearing, width (Ry)=  0.0100
                       cart. coord. in units 2pi/alat
        k(    1) = (   0.0000000   0.0000000   0.0000000), wk =   2.0000000

     Dense  grid:   104093 G-vectors     FFT dimensions: (  75,  75,  75)

     Estimated max dynamical RAM per process >     166.61 MB

     Estimated total dynamical RAM >     641.03 MB

     Initial potential from superposition of free atoms

     starting charge     255.9608, renormalised to     256.0000
     Starting wfcs are  256 randomized atomic wfcs

     total cpu time spent up to now is        4.0 secs

     Self-consistent Calculation

     iteration #  1     ecut=    30.00 Ry     beta= 0.50
     Davidson diagonalization with overlap
     ethr =  1.00E-02,  avg # of iterations =  3.0

     Threshold (ethr) on eigenvalues was too large:
     Diagonalizing with lowered threshold

     Davidson diagonalization with overlap
     ethr =  5.99E-04,  avg # of iterations =  3.0

     total cpu time spent up to now is        4.3 secs

     total energy              =    -503.84290582 Ry
     estimated scf accuracy    <       1.70556756 Ry

     iteration #  2     ecut=    30.00 Ry     beta= 0.50
     Davidson diagonalization with overlap
     ethr =  6.66E-04,  avg # of iterations =  1.0

     total cpu time spent up to now is        4.4 secs

     total energy              =    -503.82687265 Ry
     estimated scf accuracy    <       0.33088745 Ry

     iteration #  3     ecut=    30.00 Ry     beta= 0.50
     Davidson diagonalization with overlap
     ethr =  1.29E-04,  avg # of iterations =  5.0

     total cpu time spent up to now is        4.5 secs

     total energy              =    -503.84590686 Ry
     estimated scf accuracy    <       0.00867078 Ry

     iteration #  4     ecut=    30.00 Ry     beta= 0.50
     Davidson diagonalization with overlap
     c_bands:  1 eigenvalues not converged
     ethr =  3.39E-06,  avg # of iterations = 20.0

     total cpu time spent up to now is        4.7 secs

     total energy              =    -503.84795745 Ry
     estimated scf accuracy    <       0.00727969 Ry

     iteration #  5     ecut=    30.00 Ry     beta= 0.50
     Davidson diagonalization with overlap
     c_bands:  2 eigenvalues not converged
     ethr =  2.84E-06,  avg # of iterations = 20.0

     total cpu time spent up to now is        4.9 secs

     total energy              =    -503.84935061 Ry
     estimated scf accuracy    <       0.00196765 Ry

     iteration #  6     ecut=    30.00 Ry     beta= 0.50
     Davidson diagonalization with overlap
     ethr =  7.69E-07,  avg # of iterations =  3.0

     total cpu time spent up to now is        5.1 secs

     total energy              =    -503.84953349 Ry
     estimated scf accuracy    <       0.00027601 Ry

     iteration #  7     ecut=    30.00 Ry     beta= 0.50
     Davidson diagonalization with overlap
     ethr =  1.08E-07,  avg # of iterations =  5.0

     total cpu time spent up to now is        5.2 secs

     total energy              =    -503.84958348 Ry
     estimated scf accuracy    <       0.00000780 Ry

     iteration #  8     ecut=    30.00 Ry     beta= 0.50
     Davidson diagonalization with overlap
     ethr =  3.05E-09,  avg # of iterations =  5.0

     total cpu time spent up to now is        5.3 secs

     total energy              =    -503.84958676 Ry
     estimated scf accuracy    <       0.00000990 Ry

     iteration #  9     ecut=    30.00 Ry     beta= 0.50
     Davidson diagonalization with overlap
     ethr =  3.05E-09,  avg # of iterations =  3.0

     total cpu time spent up to now is        5.4 secs

     total energy              =    -503.84958763 Ry
     estimated scf accuracy    <       0.00000119 Ry

     iteration # 10     ecut=    30.00 Ry     beta= 0.50
     Davidson diagonalization with overlap
     ethr =  4.66E-10,  avg # of iterations =  5.0

     total cpu time spent up to now is        5.5 secs

     End of self-consistent calculation

          k = 0.0000 0.0000 0.0000 ( 12965 PWs)   bands (ev):

    -6.0112  -5.0626  -5.0572  -5.0292  -4.9789  -4.9656  -4.9183  -4.2309
    -4.2258  -4.1564  -4.1473  -4.1341  -4.1231  -4.1085  -4.0968  -4.0794
    -4.0524  -4.0114  -3.9939  -3.8863  -3.8601  -3.8410  -3.6636  -2.2763
    -2.2156  -2.1961  -2.1685  -2.1453  -2.1343  -2.1009  -2.0799  -2.0583
    -2.0114  -1.9933  -1.9823  -1.9572  -1.9449  -1.9182  -1.8949  -1.8714
    -1.8606  -1.2494  -1.1835  -1.1568  -1.1055  -0.0243  -0.0120   0.0321
     0.0678   0.0781   0.0866   0.1038   0.1157   0.1341   0.1561   0.1825
     0.1946   1.7297   1.7799   1.7898   1.8099   1.8141   1.8240   1.8274
     1.8470   1.8606   1.8704   1.8785   1.8834   1.9055   1.9154   1.9231
     1.9283   1.9435   1.9539   1.9682   1.9774   1.9976   2.0192   2.0318
     2.0414   2.0643   2.0760   2.0959   2.1204   2.1365   2.1611   2.7487
     2.7663   2.8013   2.8077   2.8295   2.8315   3.5948   3.6277   3.6288
     3.6393   3.6619   3.6854   3.6901   3.7176   3.7272   3.7405   3.7737
     3.8327   4.1011   4.1158   4.1286   4.1412   4.1653   4.1743   4.1821
     4.2036   4.2160   4.2396   4.2466   4.2538   4.2791   4.2975   4.3025
     4.3521   4.4001   4.4193   4.4388   4.6497   5.3918   5.4441   5.5676
     6.1646   6.1932   6.2572   6.2822   6.2961   6.3120   6.5635   6.5787
     6.5873   6.6249   6.6350   6.6497   6.6530   6.6771   6.7112   6.7247
     7.7023   7.7103   7.7139   7.7268   7.7566   7.7657   7.7787   7.7895
     7.8096   7.8376

     the Fermi energy is     5.8059 ev

!    total energy              =    -503.84958791 Ry
     estimated scf accuracy    <       0.00000009 Ry
     smearing contrib. (-TS)   =      -0.03978593 Ry
     internal energy E=F+TS    =    -503.80980198 Ry

     The total energy is F=E-TS. E is the sum of the following terms:
     one-electron contribution =     131.90938820 Ry
     hartree contribution      =      38.59304136 Ry
     xc contribution           =    -151.73126808 Ry
     ewald contribution        =    -522.58096347 Ry

     convergence has been achieved in  10 iterations

     Forces acting on atoms (cartesian axes, Ry/au):

     atom    1 type  1   force =    -0.01744325   -0.01984555   -0.03253894
     atom    2 type  1   force =    -0.01646204   -0.01883274   -0.00585060
     atom    3 type  1   force =    -0.01662915   -0.02154495    0.00717260
     atom    4 type  1   force =     0.00409685    0.00960342   -0.03644603
     atom    5 type  1   force =    -0.02431821   -0.00470841    0.01383860
     atom    6 type  1   force =     0.01562904    0.01696789   -0.01440502
     atom    7 type  1   force =    -0.00928753    0.00543326   -0.00654981
     atom    8 type  1   force =     0.00260981   -0.02140420    0.00685804
     atom    9 type  1   force =    -0.00371223   -0.00036446   -0.01040468
     atom   10 type  1   force =     0.02089870   -0.01650128   -0.02231391
     atom   11 type  1   force =    -0.01891439    0.02016917    0.01878178
     atom   12 type  1   force =     0.01031243    0.01521476   -0.00871478
     atom   13 type  1   force =     0.01811701   -0.03155452   -0.03493995
     atom   14 type  1   force =    -0.00345796   -0.00933698    0.01660801
     atom   15 type  1   force =    -0.00233226   -0.00606958   -0.02928971
     atom   16 type  1   force =    -0.00426336   -0.00853113    0.02602173
     atom   17 type  1   force =     0.02021277    0.00378821   -0.01367933
     atom   18 type  1   force =     0.01531973    0.02802287   -0.01424463
     atom   19 type  1   force =    -0.04008956    0.01556837    0.01316475
     atom   20 type  1   force =    -0.02558431    0.01214955    0.00591653
     atom   21 type  1   force =    -0.00837346   -0.01024566   -0.00072127
     atom   22 type  1   force =     0.01245541    0.00700393   -0.00734783
     atom   23 type  1   force =     0.02279545    0.00266713    0.00081516
     atom   24 type  1   force =     0.01144042    0.01857147    0.00677505
     atom   25 type  1   force =    -0.04317455   -0.01476649   -0.00066241
     atom   26 type  1   force =    -0.01921163    0.01302768   -0.01268805
     atom   27 type  1   force =    -0.01150546    0.01891143   -0.00693715
     atom   28 type  1   force =     0.00525234    0.00331503   -0.01129285
     atom   29 type  1   force =     0.01813225   -0.00996814    0.00575271
     atom   30 type  1   force =    -0.00546647    0.00412802    0.00469532
     atom   31 type  1   force =     0.04081377   -0.01107542   -0.00262716
     atom   32 type  1   force =     0.02206662   -0.00098759    0.02390463
     atom   33 type  1   force =     0.00790916   -0.00217675    0.02497940
     atom   34 type  1   force =    -0.01943092    0.01770357   -0.00967106
     atom   35 type  1   force =     0.01732089   -0.01783212   -0.01190130
     atom   36 type  1   force =    -0.01209233    0.00444709   -0.00436080
     atom   37 type  1   force =     0.00080218   -0.02562915   -0.03040236
     atom   38 type  1   force =    -0.00689952   -0.00541112    0.02344437
     atom   39 type  1   force =     0.00897603    0.00245957    0.01585227
     atom   40 type  1   force =     0.01024011   -0.00818670   -0.00401363
     atom   41 type  1   force =     0.01836399   -0.02238684    0.00344711
     atom   42 type  1   force =     0.00912800   -0.01332809   -0.00662049
     atom   43 type  1   force =     0.01629320    0.01853286    0.00145259
     atom   44 type  1   force =    -0.02251733    0.02931134    0.01830578
     atom   45 type  1   force =     0.00784457   -0.00169326    0.00708760
     atom   46 type  1   force =    -0.02242233    0.00718549   -0.01229888
     atom   47 type  1   force =    -0.01593103    0.01188926    0.00263310
     atom   48 type  1   force =     0.04794579    0.00651705   -0.01188577
     atom   49 type  1   force =    -0.03254564   -0.00973277    0.01059909
     atom   50 type  1   force =     0.00535126   -0.03405038    0.01377917
     atom   51 type  1   force =     0.00181086    0.00996149    0.02509494
     atom   52 type  1   force =    -0.00697795    0.00524108   -0.00778333
     atom   53 type  1   force =    -0.01346273    0.00064452   -0.01114980
     atom   54 type  1   force =     0.03850587    0.02969793    0.03382373
     atom   55 type  1   force =     0.00711112   -0.02260049    0.00881607
     atom   56 type  1   force =     0.00714451   -0.00083289   -0.01455296
     atom   57 type  1   force =    -0.00096359    0.00471289    0.00403195
     atom   58 type  1   force =     0.01490377    0.01263109   -0.00527426
     atom   59 type  1   force =     0.00190911    0.02477788    0.02116608
     atom   60 type  1   force =     0.01434832   -0.01857579   -0.02202340
     atom   61 type  1   force =    -0.05933268   -0.00366141    0.00368480
     atom   62 type  1   force =     0.02131010    0.02861988    0.03484705
     atom   63 type  1   force =    -0.00705547   -0.02941708    0.00522952
     atom   64 type  1   force =    -0.00751411    0.01237678    0.01501263

     Total force =     0.240577     Total SCF correction =     0.000467


     Computing stress (Cartesian axis) and pressure

          total   stress  (Ry/bohr**3)                   (kbar)     P=      -37.02
  -0.00026716   0.00000967  -0.00000894          -39.30        1.42       -1.32
   0.00000967  -0.00025788   0.00002928            1.42      -37.94        4.31
  -0.00000894   0.00002928  -0.00023000           -1.32        4.31      -33.83

 
     init_run     :      0.78s CPU      3.99s WALL (       1 calls)
     electrons    :      1.39s CPU      1.50s WALL (       1 calls)
     forces       :      0.04s CPU      0.04s WALL (       1 calls)
     stress       :      0.16s CPU      0.17s WALL (       1 calls)

     Called by init_run:
     wfcinit      :      0.43s CPU      3.50s WALL (       1 calls)
                                        3.50s GPU  (       1 calls)
     potinit      :      0.16s CPU      0.23s WALL (       1 calls)
     hinit0       :      0.17s CPU      0.19s WALL (       1 calls)

     Called by electrons:
     c_bands      :      1.00s CPU      1.07s WALL (      11 calls)
     sum_band     :      0.21s CPU      0.24s WALL (      11 calls)
     v_of_rho     :      0.09s CPU      0.17s WALL (      11 calls)
     mix_rho      :      0.07s CPU      0.08s WALL (      11 calls)

     Called by c_bands:
     init_us_2    :      0.03s CPU      0.03s WALL (      23 calls)
     init_us_2:gp :      0.03s CPU      0.03s WALL (      23 calls)
     regterg      :      0.91s CPU      0.97s WALL (      11 calls)

     Called by *egterg:
     rdiaghg      :      0.39s CPU      1.01s WALL (      83 calls)
                                        1.00s GPU  (      83 calls)
     h_psi        :      0.81s CPU      3.29s WALL (      85 calls)
                                        3.29s GPU  (      85 calls)
     g_psi        :      0.00s CPU      0.00s WALL (      73 calls)
                                        0.00s GPU  (      73 calls)

     Called by h_psi:
     h_psi:calbec :      0.39s CPU      2.78s WALL (      85 calls)
                                        2.78s GPU  (      85 calls)
     vloc_psi     :      0.38s CPU      0.46s WALL (      85 calls)
                                        0.46s GPU  (      85 calls)
     add_vuspsi   :      0.03s CPU      0.04s WALL (      85 calls)
                                        0.04s GPU  (      85 calls)

     General routines
     calbec       :      0.39s CPU      2.79s WALL (      90 calls)
     fft          :      0.20s CPU      0.30s WALL (      95 calls)
                                        0.10s GPU  (      61 calls)
     ffts         :      0.02s CPU      0.03s WALL (      11 calls)
     fftw         :      0.41s CPU      0.57s WALL (    1249 calls)
                                        0.52s GPU  (    1249 calls)
 
     Parallel routines
 
     PWSCF        :      2.40s CPU      5.76s WALL

 
   This run was terminated on:  11:15:46  10May2023            

=------------------------------------------------------------------------------=
   JOB DONE.
=------------------------------------------------------------------------------=
