An instance of this daemon is already running
An instance of this daemon is already running

     Program PWSCF v.7.1 starts on 10May2023 at 11:17:45 

     This program is part of the open-source Quantum ESPRESSO suite
     for quantum simulation of materials; please cite
         "P. Giannozzi et al., J. Phys.:Condens. Matter 21 395502 (2009);
         "P. Giannozzi et al., J. Phys.:Condens. Matter 29 465901 (2017);
         "P. Giannozzi et al., J. Chem. Phys. 152 154105 (2020);
          URL http://www.quantum-espresso.org", 
     in publications or presentations arising from this work. More details at
     http://www.quantum-espresso.org/quote

     Parallel version (MPI & OpenMP), running on       4 processor cores
     Number of MPI processes:                 4
     Threads/MPI process:                     1

     MPI processes distributed on     1 nodes
     153030 MiB available memory on the printing compute node when the environment starts
 
     Reading input from pw-si-55.in
Warning: card &CELL ignored
Warning: card / ignored

     Current dimensions of program PWSCF are:
     Max number of different atomic species (ntypx) = 10
     Max number of k-points (npk) =  40000
     Max angular momentum in pseudopotentials (lmaxx) =  4

     IMPORTANT: XC functional enforced from input :
     Exchange-correlation= PBE
                           (   1   4   3   4   0   0   0)
     Any further DFT definition will be discarded
     Please, verify this is what you really want


     gamma-point specific algorithms are used
 
     K-points division:     npool     =       2
     R & G space division:  proc/nbgrp/npool/nimage =       2
     Subspace diagonalization in iterative solution of the eigenvalue problem:
     a serial algorithm will be used

     Message from routine divide_et_impera:
     suboptimal parallelization: some nodes have no k-points
 
     Parallelization info
     --------------------
     sticks:   dense  smooth     PW     G-vecs:    dense   smooth      PW
     Min        2023    2023    541                99059    99059   13469
     Max        2024    2024    544                99068    99068   13472
     Sum        4047    4047   1085               198127   198127   26941
 
     Using Slab Decomposition
 


     bravais-lattice index     =            0
     lattice parameter (alat)  =      20.5843  a.u.
     unit-cell volume          =    8923.7454 (a.u.)^3
     number of atoms/cell      =           64
     number of atomic types    =            1
     number of electrons       =       256.00
     number of Kohn-Sham states=          154
     kinetic-energy cutoff     =      30.0000  Ry
     charge density cutoff     =     120.0000  Ry
     scf convergence threshold =      1.0E-06
     mixing beta               =       0.5000
     number of iterations used =            8  plain     mixing
     Exchange-correlation= PBE
                           (   1   4   3   4   0   0   0)

     GPU acceleration is ACTIVE.
     GPU-aware MPI enabled

     Message from routine print_cuda_info:
     High GPU oversubscription detected. Are you sure this is what you want?

     celldm(1)=  20.584348  celldm(2)=   0.000000  celldm(3)=   0.000000
     celldm(4)=   0.000000  celldm(5)=   0.000000  celldm(6)=   0.000000

     crystal axes: (cart. coord. in units of alat)
               a(1) = (   1.000000   0.000000   0.000000 )  
               a(2) = (   0.000000   1.003234   0.000000 )  
               a(3) = (   0.000000   0.000000   1.019844 )  

     reciprocal axes: (cart. coord. in units 2 pi/alat)
               b(1) = (  1.000000  0.000000  0.000000 )  
               b(2) = (  0.000000  0.996777  0.000000 )  
               b(3) = (  0.000000  0.000000  0.980542 )  


     PseudoPot. # 1 for Si read from file:
     /home/ppiaggi/pseudos/Si_ONCV_PBE_sr.upf
     MD5 check sum: 8553c464762ac42b85b1eed164b4d029
     Pseudo is Norm-conserving, Zval =  4.0
     Generated using ONCVPSP code by D. R. Hamann
     Using radial grid of 1510 points,  4 beta functions with: 
                l(1) =   0
                l(2) =   0
                l(3) =   1
                l(4) =   1

     atomic species   valence    mass     pseudopotential
        Si             4.00    28.08500     Si( 1.00)

     No symmetry found



   Cartesian axes

     site n.     atom                  positions (alat units)
         1           Si  tau(   1) = (   0.0033604   0.0029806  -0.0017256  )
         2           Si  tau(   2) = (   0.0040654   0.2487426   0.2508846  )
         3           Si  tau(   3) = (   0.2497558   0.0007115   0.2487838  )
         4           Si  tau(   4) = (   0.2535850   0.2467261  -0.0014901  )
         5           Si  tau(   5) = (   0.1263420   0.1270182   0.1249091  )
         6           Si  tau(   6) = (   0.5055456  -0.0001680  -0.0026771  )
         7           Si  tau(   7) = (   0.5095013   0.2479338   0.2557543  )
         8           Si  tau(   8) = (   0.6322367   0.1186426   0.1225672  )
         9           Si  tau(   9) = (   0.7576574   0.0008684   0.2565959  )
        10           Si  tau(  10) = (   0.7551680   0.2421262  -0.0039441  )
        11           Si  tau(  11) = (  -0.0032282   0.4939142   0.0015512  )
        12           Si  tau(  12) = (   0.2549397   0.4947143   0.2553364  )
        13           Si  tau(  13) = (   0.1218086   0.6110404   0.1268552  )
        14           Si  tau(  14) = (   0.3790285   0.3651932   0.1287904  )
        15           Si  tau(  15) = (   0.5010121   0.4901832  -0.0008487  )
        16           Si  tau(  16) = (   0.6345651   0.6194496   0.1233531  )
        17           Si  tau(  17) = (   0.8813799   0.3648513   0.1223924  )
        18           Si  tau(  18) = (   0.7566888   0.4930660   0.2553423  )
        19           Si  tau(  19) = (  -0.0012675   0.7392464   0.2558410  )
        20           Si  tau(  20) = (   0.2533813   0.7378055  -0.0037854  )
        21           Si  tau(  21) = (   0.3756255   0.8633097   0.1303797  )
        22           Si  tau(  22) = (   0.5005172   0.7405177   0.2506826  )
        23           Si  tau(  23) = (   0.7530209   0.7392709  -0.0004224  )
        24           Si  tau(  24) = (   0.8866108   0.8574877   0.1273781  )
        25           Si  tau(  25) = (  -0.0034450   0.0030834   0.5067261  )
        26           Si  tau(  26) = (   0.2549682   0.2497490   0.5022275  )
        27           Si  tau(  27) = (   0.1260702   0.1225780   0.6333137  )
        28           Si  tau(  28) = (   0.3825772   0.1208416   0.3766159  )
        29           Si  tau(  29) = (   0.5071850  -0.0023074   0.5027567  )
        30           Si  tau(  30) = (   0.6331179   0.1238104   0.6287413  )
        31           Si  tau(  31) = (   0.8881890   0.1257508   0.3790932  )
        32           Si  tau(  32) = (   0.7534964   0.2456003   0.5017610  )
        33           Si  tau(  33) = (   0.1246290   0.3673904   0.3751650  )
        34           Si  tau(  34) = (  -0.0001164   0.4918763   0.5047991  )
        35           Si  tau(  35) = (   0.1285251   0.6113055   0.6344073  )
        36           Si  tau(  36) = (   0.6273773   0.3707441   0.3799644  )
        37           Si  tau(  37) = (   0.3821662   0.6115488   0.3819837  )
        38           Si  tau(  38) = (   0.3812580   0.3654000   0.6294208  )
        39           Si  tau(  39) = (   0.5055396   0.4880110   0.5082352  )
        40           Si  tau(  40) = (   0.6296753   0.6146484   0.6343240  )
        41           Si  tau(  41) = (   0.8871926   0.6179403   0.3799624  )
        42           Si  tau(  42) = (   0.8877527   0.3672243   0.6334335  )
        43           Si  tau(  43) = (   0.1239252   0.8571960   0.3791376  )
        44           Si  tau(  44) = (   0.2553164   0.7392897   0.5056226  )
        45           Si  tau(  45) = (   0.6318985   0.8639118   0.3787904  )
        46           Si  tau(  46) = (   0.3785282   0.8657500   0.6294803  )
        47           Si  tau(  47) = (   0.7572415   0.7385117   0.5081334  )
        48           Si  tau(  48) = (   0.8862280   0.8605217   0.6300740  )
        49           Si  tau(  49) = (   0.0032498   0.2462073   0.7620358  )
        50           Si  tau(  50) = (   0.2478812   0.0026670   0.7607545  )
        51           Si  tau(  51) = (   0.3764497   0.1257109   0.8807057  )
        52           Si  tau(  52) = (   0.5047563   0.2416476   0.7633388  )
        53           Si  tau(  53) = (   0.7594402  -0.0001688   0.7571261  )
        54           Si  tau(  54) = (   0.8863730   0.1215103   0.8877539  )
        55           Si  tau(  55) = (   0.1251077   0.3655108   0.8839277  )
        56           Si  tau(  56) = (   0.2483546   0.4919538   0.7589314  )
        57           Si  tau(  57) = (   0.6289239   0.3652854   0.8879309  )
        58           Si  tau(  58) = (   0.3752859   0.6168328   0.8851265  )
        59           Si  tau(  59) = (   0.7584272   0.4944447   0.7631867  )
        60           Si  tau(  60) = (   0.8847297   0.6143093   0.8846539  )
        61           Si  tau(  61) = (   0.0040241   0.7340084   0.7582309  )
        62           Si  tau(  62) = (   0.1241796   0.8585094   0.8897392  )
        63           Si  tau(  63) = (   0.5047832   0.7338915   0.7591499  )
        64           Si  tau(  64) = (   0.6326202   0.8608093   0.8862600  )

     number of k points=     1  Fermi-Dirac smearing, width (Ry)=  0.0100
                       cart. coord. in units 2pi/alat
        k(    1) = (   0.0000000   0.0000000   0.0000000), wk =   2.0000000

     Dense  grid:    99064 G-vectors     FFT dimensions: (  72,  75,  75)

     Estimated max dynamical RAM per process >     158.80 MB

     Estimated total dynamical RAM >     611.01 MB

     Initial potential from superposition of free atoms

     starting charge     255.9608, renormalised to     256.0000
     Starting wfcs are  256 randomized atomic wfcs

     total cpu time spent up to now is        4.2 secs

     Self-consistent Calculation

     iteration #  1     ecut=    30.00 Ry     beta= 0.50
     Davidson diagonalization with overlap
     ethr =  1.00E-02,  avg # of iterations =  3.0

     Threshold (ethr) on eigenvalues was too large:
     Diagonalizing with lowered threshold

     Davidson diagonalization with overlap
     ethr =  6.46E-04,  avg # of iterations =  3.0

     total cpu time spent up to now is        4.4 secs

     total energy              =    -503.79204773 Ry
     estimated scf accuracy    <       1.83147215 Ry

     iteration #  2     ecut=    30.00 Ry     beta= 0.50
     Davidson diagonalization with overlap
     ethr =  7.15E-04,  avg # of iterations =  1.0

     total cpu time spent up to now is        4.5 secs

     total energy              =    -503.77746137 Ry
     estimated scf accuracy    <       0.34094008 Ry

     iteration #  3     ecut=    30.00 Ry     beta= 0.50
     Davidson diagonalization with overlap
     ethr =  1.33E-04,  avg # of iterations =  5.0

     total cpu time spent up to now is        4.6 secs

     total energy              =    -503.79431900 Ry
     estimated scf accuracy    <       0.04025059 Ry

     iteration #  4     ecut=    30.00 Ry     beta= 0.50
     Davidson diagonalization with overlap
     c_bands:  3 eigenvalues not converged
     ethr =  1.57E-05,  avg # of iterations = 20.0

     total cpu time spent up to now is        4.8 secs

     total energy              =    -503.80303087 Ry
     estimated scf accuracy    <       0.00949421 Ry

     iteration #  5     ecut=    30.00 Ry     beta= 0.50
     Davidson diagonalization with overlap
     c_bands:  1 eigenvalues not converged
     ethr =  3.71E-06,  avg # of iterations = 20.0

     total cpu time spent up to now is        5.0 secs

     total energy              =    -503.80460740 Ry
     estimated scf accuracy    <       0.00146901 Ry

     iteration #  6     ecut=    30.00 Ry     beta= 0.50
     Davidson diagonalization with overlap
     ethr =  5.74E-07,  avg # of iterations =  3.0

     total cpu time spent up to now is        5.1 secs

     total energy              =    -503.80477738 Ry
     estimated scf accuracy    <       0.00032060 Ry

     iteration #  7     ecut=    30.00 Ry     beta= 0.50
     Davidson diagonalization with overlap
     ethr =  1.25E-07,  avg # of iterations =  4.0

     total cpu time spent up to now is        5.2 secs

     total energy              =    -503.80482646 Ry
     estimated scf accuracy    <       0.00004189 Ry

     iteration #  8     ecut=    30.00 Ry     beta= 0.50
     Davidson diagonalization with overlap
     ethr =  1.64E-08,  avg # of iterations =  5.0

     total cpu time spent up to now is        5.3 secs

     total energy              =    -503.80483642 Ry
     estimated scf accuracy    <       0.00001713 Ry

     iteration #  9     ecut=    30.00 Ry     beta= 0.50
     Davidson diagonalization with overlap
     ethr =  6.69E-09,  avg # of iterations =  3.0

     total cpu time spent up to now is        5.4 secs

     total energy              =    -503.80483805 Ry
     estimated scf accuracy    <       0.00000171 Ry

     iteration # 10     ecut=    30.00 Ry     beta= 0.50
     Davidson diagonalization with overlap
     ethr =  6.69E-10,  avg # of iterations =  5.0

     total cpu time spent up to now is        5.5 secs

     End of self-consistent calculation

          k = 0.0000 0.0000 0.0000 ( 12392 PWs)   bands (ev):

    -5.8895  -4.9465  -4.9095  -4.8927  -4.8038  -4.7280  -4.6381  -4.1497
    -4.0499  -4.0239  -3.9484  -3.9283  -3.8954  -3.8626  -3.8111  -3.7779
    -3.7585  -3.6975  -3.6727  -3.6263  -3.5595  -3.5172  -3.2592  -2.0766
    -1.9788  -1.9004  -1.8772  -1.8583  -1.7837  -1.7588  -1.7328  -1.7241
    -1.6898  -1.6495  -1.6274  -1.5880  -1.5399  -1.5156  -1.4648  -1.4411
    -1.4340  -1.0939  -0.9221  -0.8744  -0.7317   0.3508   0.3575   0.3818
     0.4227   0.4463   0.4638   0.4758   0.5067   0.5642   0.5880   0.6219
     0.6626   1.9699   1.9975   2.0196   2.0486   2.0635   2.0746   2.1028
     2.1363   2.1459   2.1579   2.1967   2.2111   2.2269   2.2459   2.2633
     2.2685   2.2779   2.3033   2.3116   2.3389   2.3546   2.3709   2.3902
     2.4515   2.4665   2.5095   2.5641   2.5749   2.5950   2.6076   3.0399
     3.0443   3.1053   3.1362   3.2655   3.3087   3.8857   3.9089   3.9306
     4.0261   4.0889   4.1157   4.1479   4.1663   4.1738   4.1965   4.2335
     4.2708   4.3447   4.4093   4.4874   4.5175   4.5441   4.5720   4.5891
     4.6492   4.6540   4.6773   4.6894   4.7179   4.7588   4.7814   4.7896
     4.8579   4.8881   4.9187   5.0279   5.3637   5.7627   5.9391   6.1872
     6.4374   6.5190   6.5495   6.5988   6.8065   6.8804   6.9385   7.0166
     7.0381   7.1069   7.1614   7.1834   7.2409   7.2756   7.2935   7.3390
     8.0560   8.1431   8.1701   8.1900   8.2200   8.2617   8.2996   8.3180
     8.3373   8.3763

     the Fermi energy is     6.2447 ev

!    total energy              =    -503.80483841 Ry
     estimated scf accuracy    <       0.00000046 Ry
     smearing contrib. (-TS)   =      -0.05630386 Ry
     internal energy E=F+TS    =    -503.74853456 Ry

     The total energy is F=E-TS. E is the sum of the following terms:
     one-electron contribution =     142.18996741 Ry
     hartree contribution      =      37.76860770 Ry
     xc contribution           =    -153.28306441 Ry
     ewald contribution        =    -530.42404526 Ry

     convergence has been achieved in  10 iterations

     Forces acting on atoms (cartesian axes, Ry/au):

     atom    1 type  1   force =     0.01242216   -0.06863984    0.00707200
     atom    2 type  1   force =     0.00268003   -0.00958608   -0.00894525
     atom    3 type  1   force =     0.00210969   -0.04438858    0.02212557
     atom    4 type  1   force =    -0.00137588    0.00187717   -0.02003797
     atom    5 type  1   force =     0.01080929   -0.01740579   -0.01028669
     atom    6 type  1   force =    -0.02228626   -0.04715814   -0.01811540
     atom    7 type  1   force =    -0.01258078   -0.02516341   -0.02764452
     atom    8 type  1   force =    -0.00033151    0.00770738    0.01835327
     atom    9 type  1   force =     0.00799924   -0.04718380   -0.01441899
     atom   10 type  1   force =     0.00389271    0.00118490   -0.00926290
     atom   11 type  1   force =     0.02964088   -0.01861618   -0.03487250
     atom   12 type  1   force =    -0.01345313   -0.01408245   -0.01262961
     atom   13 type  1   force =     0.03128305    0.02548697    0.00055123
     atom   14 type  1   force =     0.00187011    0.01311564   -0.00278613
     atom   15 type  1   force =     0.01098787    0.01441344   -0.01032399
     atom   16 type  1   force =    -0.03649501   -0.02979595    0.01579029
     atom   17 type  1   force =    -0.03710350    0.00920053    0.01267747
     atom   18 type  1   force =     0.00493132    0.00524056   -0.01406741
     atom   19 type  1   force =     0.04455701   -0.00646838   -0.01964275
     atom   20 type  1   force =    -0.01432332    0.00548977    0.01807800
     atom   21 type  1   force =    -0.00284662    0.04358498   -0.03684067
     atom   22 type  1   force =     0.02649126   -0.00520067    0.01623188
     atom   23 type  1   force =     0.03777990    0.01528196   -0.02925545
     atom   24 type  1   force =    -0.04264915    0.07510804   -0.02361409
     atom   25 type  1   force =     0.04644007   -0.06652470    0.01114897
     atom   26 type  1   force =    -0.01236076   -0.03117242    0.00154592
     atom   27 type  1   force =     0.00773475    0.00943098   -0.01764636
     atom   28 type  1   force =    -0.01397273   -0.00080567    0.00037142
     atom   29 type  1   force =    -0.00417529   -0.03348393    0.01195668
     atom   30 type  1   force =    -0.01190337   -0.01954548    0.01475387
     atom   31 type  1   force =    -0.04937603   -0.00034544   -0.01449617
     atom   32 type  1   force =     0.02646909    0.01568378    0.01333670
     atom   33 type  1   force =     0.02370228    0.02327281    0.01857555
     atom   34 type  1   force =     0.03900060   -0.00201461    0.00584122
     atom   35 type  1   force =     0.00022038    0.01569428   -0.03123781
     atom   36 type  1   force =     0.02560522    0.00169945   -0.00223723
     atom   37 type  1   force =    -0.00050796    0.01945868   -0.00375413
     atom   38 type  1   force =    -0.01039588    0.00502186    0.03368062
     atom   39 type  1   force =     0.00141894    0.02162717    0.00496856
     atom   40 type  1   force =     0.01497198   -0.01042201   -0.00696622
     atom   41 type  1   force =    -0.05821888   -0.01768354    0.01044384
     atom   42 type  1   force =    -0.05803548    0.00165779   -0.00414771
     atom   43 type  1   force =     0.01666520    0.07266369    0.00691134
     atom   44 type  1   force =    -0.01003871   -0.00603148    0.00567242
     atom   45 type  1   force =    -0.00180483    0.02441999   -0.00322531
     atom   46 type  1   force =     0.00899629    0.03234639    0.01959443
     atom   47 type  1   force =    -0.00798925    0.00570346   -0.00987910
     atom   48 type  1   force =    -0.02536378    0.04507479    0.01084945
     atom   49 type  1   force =     0.01096811   -0.01693773   -0.01178829
     atom   50 type  1   force =     0.00754294   -0.06630958   -0.00043215
     atom   51 type  1   force =    -0.00106033   -0.03049186    0.05150225
     atom   52 type  1   force =     0.01255144    0.01880236   -0.03741386
     atom   53 type  1   force =    -0.00115164   -0.04624457    0.00668926
     atom   54 type  1   force =    -0.03800655   -0.00466994   -0.00148646
     atom   55 type  1   force =     0.01264757    0.02540047    0.04500848
     atom   56 type  1   force =     0.03093485   -0.01821996    0.00614138
     atom   57 type  1   force =     0.00572060    0.01549223    0.01098103
     atom   58 type  1   force =     0.00940577   -0.02184189    0.01400255
     atom   59 type  1   force =    -0.01289036   -0.02460910   -0.01470355
     atom   60 type  1   force =    -0.03344616    0.01365752    0.03464738
     atom   61 type  1   force =     0.01466143    0.02509634    0.00167504
     atom   62 type  1   force =     0.01176797    0.05616662   -0.00111250
     atom   63 type  1   force =    -0.01159780    0.03971047    0.00199737
     atom   64 type  1   force =    -0.00913907    0.04527070    0.00009572

     Total force =     0.337889     Total SCF correction =     0.001246


     Computing stress (Cartesian axis) and pressure

          total   stress  (Ry/bohr**3)                   (kbar)     P=        3.64
   0.00005935   0.00003818   0.00007851            8.73        5.62       11.55
   0.00003818   0.00004168  -0.00005683            5.62        6.13       -8.36
   0.00007851  -0.00005683  -0.00002682           11.55       -8.36       -3.94

 
     init_run     :      0.93s CPU      4.13s WALL (       1 calls)
     electrons    :      1.28s CPU      1.36s WALL (       1 calls)
     forces       :      0.04s CPU      0.04s WALL (       1 calls)
     stress       :      0.15s CPU      0.15s WALL (       1 calls)

     Called by init_run:
     wfcinit      :      0.44s CPU      3.51s WALL (       1 calls)
                                        3.51s GPU  (       1 calls)
     potinit      :      0.15s CPU      0.22s WALL (       1 calls)
     hinit0       :      0.31s CPU      0.33s WALL (       1 calls)

     Called by electrons:
     c_bands      :      0.91s CPU      0.94s WALL (      11 calls)
     sum_band     :      0.20s CPU      0.23s WALL (      11 calls)
     v_of_rho     :      0.10s CPU      0.18s WALL (      11 calls)
     mix_rho      :      0.07s CPU      0.08s WALL (      11 calls)

     Called by c_bands:
     init_us_2    :      0.03s CPU      0.03s WALL (      23 calls)
     init_us_2:gp :      0.03s CPU      0.03s WALL (      23 calls)
     regterg      :      0.83s CPU      0.85s WALL (      11 calls)

     Called by *egterg:
     rdiaghg      :      0.38s CPU      1.02s WALL (      82 calls)
                                        1.00s GPU  (      82 calls)
     h_psi        :      0.75s CPU      3.20s WALL (      84 calls)
                                        3.19s GPU  (      84 calls)
     g_psi        :      0.00s CPU      0.00s WALL (      72 calls)
                                        0.00s GPU  (      72 calls)

     Called by h_psi:
     h_psi:calbec :      0.41s CPU      2.80s WALL (      84 calls)
                                        2.80s GPU  (      84 calls)
     vloc_psi     :      0.30s CPU      0.35s WALL (      84 calls)
                                        0.35s GPU  (      84 calls)
     add_vuspsi   :      0.03s CPU      0.04s WALL (      84 calls)
                                        0.04s GPU  (      84 calls)

     General routines
     calbec       :      0.41s CPU      2.80s WALL (      89 calls)
     fft          :      0.34s CPU      0.44s WALL (      95 calls)
                                        0.10s GPU  (      61 calls)
     ffts         :      0.02s CPU      0.02s WALL (      11 calls)
     fftw         :      0.34s CPU      0.44s WALL (    1239 calls)
                                        0.40s GPU  (    1239 calls)
 
     Parallel routines
 
     PWSCF        :      2.43s CPU      5.75s WALL

 
   This run was terminated on:  11:17:51  10May2023            

=------------------------------------------------------------------------------=
   JOB DONE.
=------------------------------------------------------------------------------=
