An instance of this daemon is already running

     Program PWSCF v.7.1 starts on 10May2023 at 11:20:47 

     This program is part of the open-source Quantum ESPRESSO suite
     for quantum simulation of materials; please cite
         "P. Giannozzi et al., J. Phys.:Condens. Matter 21 395502 (2009);
         "P. Giannozzi et al., J. Phys.:Condens. Matter 29 465901 (2017);
         "P. Giannozzi et al., J. Chem. Phys. 152 154105 (2020);
          URL http://www.quantum-espresso.org", 
     in publications or presentations arising from this work. More details at
     http://www.quantum-espresso.org/quote

     Parallel version (MPI & OpenMP), running on       4 processor cores
     Number of MPI processes:                 4
     Threads/MPI process:                     1

     MPI processes distributed on     1 nodes
     150312 MiB available memory on the printing compute node when the environment starts
 
     Reading input from pw-si-77.in
Warning: card &CELL ignored
Warning: card / ignored

     Current dimensions of program PWSCF are:
     Max number of different atomic species (ntypx) = 10
     Max number of k-points (npk) =  40000
     Max angular momentum in pseudopotentials (lmaxx) =  4

     IMPORTANT: XC functional enforced from input :
     Exchange-correlation= PBE
                           (   1   4   3   4   0   0   0)
     Any further DFT definition will be discarded
     Please, verify this is what you really want


     gamma-point specific algorithms are used
 
     K-points division:     npool     =       2
     R & G space division:  proc/nbgrp/npool/nimage =       2
     Subspace diagonalization in iterative solution of the eigenvalue problem:
     a serial algorithm will be used

     Message from routine divide_et_impera:
     suboptimal parallelization: some nodes have no k-points
 
     Parallelization info
     --------------------
     sticks:   dense  smooth     PW     G-vecs:    dense   smooth      PW
     Min        2010    2010    532                96269    96269   13049
     Max        2011    2011    533                96274    96274   13052
     Sum        4021    4021   1065               192543   192543   26101
 
     Using Slab Decomposition
 


     bravais-lattice index     =            0
     lattice parameter (alat)  =      20.4032  a.u.
     unit-cell volume          =    8673.8376 (a.u.)^3
     number of atoms/cell      =           64
     number of atomic types    =            1
     number of electrons       =       256.00
     number of Kohn-Sham states=          154
     kinetic-energy cutoff     =      30.0000  Ry
     charge density cutoff     =     120.0000  Ry
     scf convergence threshold =      1.0E-06
     mixing beta               =       0.5000
     number of iterations used =            8  plain     mixing
     Exchange-correlation= PBE
                           (   1   4   3   4   0   0   0)

     GPU acceleration is ACTIVE.
     GPU-aware MPI enabled

     Message from routine print_cuda_info:
     High GPU oversubscription detected. Are you sure this is what you want?

     celldm(1)=  20.403163  celldm(2)=   0.000000  celldm(3)=   0.000000
     celldm(4)=   0.000000  celldm(5)=   0.000000  celldm(6)=   0.000000

     crystal axes: (cart. coord. in units of alat)
               a(1) = (   1.000000   0.000000   0.000000 )  
               a(2) = (   0.000000   1.011100   0.000000 )  
               a(3) = (   0.000000   0.000000   1.010007 )  

     reciprocal axes: (cart. coord. in units 2 pi/alat)
               b(1) = (  1.000000  0.000000  0.000000 )  
               b(2) = (  0.000000  0.989021  0.000000 )  
               b(3) = (  0.000000  0.000000  0.990092 )  


     PseudoPot. # 1 for Si read from file:
     /home/ppiaggi/pseudos/Si_ONCV_PBE_sr.upf
     MD5 check sum: 8553c464762ac42b85b1eed164b4d029
     Pseudo is Norm-conserving, Zval =  4.0
     Generated using ONCVPSP code by D. R. Hamann
     Using radial grid of 1510 points,  4 beta functions with: 
                l(1) =   0
                l(2) =   0
                l(3) =   1
                l(4) =   1

     atomic species   valence    mass     pseudopotential
        Si             4.00    28.08500     Si( 1.00)

     No symmetry found



   Cartesian axes

     site n.     atom                  positions (alat units)
         1           Si  tau(   1) = (  -0.0003685  -0.0010241  -0.0002172  )
         2           Si  tau(   2) = (  -0.0001628   0.2485599   0.2549500  )
         3           Si  tau(   3) = (   0.2473916  -0.0002864   0.2546365  )
         4           Si  tau(   4) = (   0.2530140   0.2534146   0.0043618  )
         5           Si  tau(   5) = (   0.1256867   0.1288139   0.1216391  )
         6           Si  tau(   6) = (   0.4957127   0.0002036   0.0011504  )
         7           Si  tau(   7) = (   0.4970770   0.2483471   0.2545112  )
         8           Si  tau(   8) = (   0.6279507   0.1302993   0.1239187  )
         9           Si  tau(   9) = (   0.7481092   0.0035849   0.2488750  )
        10           Si  tau(  10) = (   0.7476381   0.2561648  -0.0013835  )
        11           Si  tau(  11) = (  -0.0000204   0.5061760  -0.0028132  )
        12           Si  tau(  12) = (   0.2460378   0.5001279   0.2477964  )
        13           Si  tau(  13) = (   0.1249525   0.6259432   0.1243582  )
        14           Si  tau(  14) = (   0.3791210   0.3748060   0.1226859  )
        15           Si  tau(  15) = (   0.4976393   0.5034314   0.0026573  )
        16           Si  tau(  16) = (   0.6221410   0.6249153   0.1294889  )
        17           Si  tau(  17) = (   0.8712365   0.3733940   0.1224972  )
        18           Si  tau(  18) = (   0.7512315   0.5040561   0.2491163  )
        19           Si  tau(  19) = (  -0.0044038   0.7554919   0.2518973  )
        20           Si  tau(  20) = (   0.2493231   0.7539727   0.0003560  )
        21           Si  tau(  21) = (   0.3755638   0.8802222   0.1223630  )
        22           Si  tau(  22) = (   0.4996350   0.7556661   0.2561176  )
        23           Si  tau(  23) = (   0.7466884   0.7558215   0.0017884  )
        24           Si  tau(  24) = (   0.8756714   0.8826845   0.1237347  )
        25           Si  tau(  25) = (   0.0035720  -0.0036392   0.5087344  )
        26           Si  tau(  26) = (   0.2499137   0.2541129   0.5020556  )
        27           Si  tau(  27) = (   0.1272081   0.1281141   0.6328194  )
        28           Si  tau(  28) = (   0.3759708   0.1258672   0.3791465  )
        29           Si  tau(  29) = (   0.4970583   0.0023429   0.5036353  )
        30           Si  tau(  30) = (   0.6278917   0.1233091   0.6278481  )
        31           Si  tau(  31) = (   0.8727798   0.1240109   0.3821718  )
        32           Si  tau(  32) = (   0.7487237   0.2494329   0.5051204  )
        33           Si  tau(  33) = (   0.1255700   0.3739417   0.3758697  )
        34           Si  tau(  34) = (  -0.0011254   0.5037192   0.5023164  )
        35           Si  tau(  35) = (   0.1288921   0.6300318   0.6284358  )
        36           Si  tau(  36) = (   0.6262697   0.3803965   0.3745639  )
        37           Si  tau(  37) = (   0.3768193   0.6314716   0.3763133  )
        38           Si  tau(  38) = (   0.3744448   0.3747896   0.6308813  )
        39           Si  tau(  39) = (   0.5003982   0.5003671   0.5017216  )
        40           Si  tau(  40) = (   0.6293936   0.6266592   0.6306264  )
        41           Si  tau(  41) = (   0.8716521   0.6325141   0.3801384  )
        42           Si  tau(  42) = (   0.8736823   0.3740617   0.6313576  )
        43           Si  tau(  43) = (   0.1231570   0.8773339   0.3782166  )
        44           Si  tau(  44) = (   0.2455657   0.7527596   0.5081415  )
        45           Si  tau(  45) = (   0.6290744   0.8778553   0.3771083  )
        46           Si  tau(  46) = (   0.3782641   0.8777069   0.6267920  )
        47           Si  tau(  47) = (   0.7480705   0.7584799   0.5085114  )
        48           Si  tau(  48) = (   0.8738174   0.8830643   0.6314548  )
        49           Si  tau(  49) = (  -0.0038613   0.2557267   0.7550673  )
        50           Si  tau(  50) = (   0.2467765   0.0020114   0.7600242  )
        51           Si  tau(  51) = (   0.3777416   0.1228639   0.8813472  )
        52           Si  tau(  52) = (   0.4976138   0.2474353   0.7568042  )
        53           Si  tau(  53) = (   0.7454593   0.0033295   0.7573814  )
        54           Si  tau(  54) = (   0.8781028   0.1280847   0.8855616  )
        55           Si  tau(  55) = (   0.1273703   0.3815359   0.8868992  )
        56           Si  tau(  56) = (   0.2487940   0.5013859   0.7608413  )
        57           Si  tau(  57) = (   0.6233472   0.3801523   0.8796399  )
        58           Si  tau(  58) = (   0.3772950   0.6331149   0.8864048  )
        59           Si  tau(  59) = (   0.7508576   0.5063669   0.7562744  )
        60           Si  tau(  60) = (   0.8726672   0.6273154   0.8794144  )
        61           Si  tau(  61) = (  -0.0028968   0.7511723   0.7548434  )
        62           Si  tau(  62) = (   0.1235260   0.8781007   0.8823173  )
        63           Si  tau(  63) = (   0.4988160   0.7510498   0.7570226  )
        64           Si  tau(  64) = (   0.6270481   0.8793829   0.8820854  )

     number of k points=     1  Fermi-Dirac smearing, width (Ry)=  0.0100
                       cart. coord. in units 2pi/alat
        k(    1) = (   0.0000000   0.0000000   0.0000000), wk =   2.0000000

     Dense  grid:    96272 G-vectors     FFT dimensions: (  72,  72,  72)

     Estimated max dynamical RAM per process >     153.56 MB

     Estimated total dynamical RAM >     590.73 MB

     Initial potential from superposition of free atoms

     starting charge     255.9608, renormalised to     256.0000
     Starting wfcs are  256 randomized atomic wfcs

     total cpu time spent up to now is        4.3 secs

     Self-consistent Calculation

     iteration #  1     ecut=    30.00 Ry     beta= 0.50
     Davidson diagonalization with overlap
     ethr =  1.00E-02,  avg # of iterations =  3.0

     Threshold (ethr) on eigenvalues was too large:
     Diagonalizing with lowered threshold

     Davidson diagonalization with overlap
     ethr =  6.82E-04,  avg # of iterations =  3.0

     total cpu time spent up to now is        4.5 secs

     total energy              =    -503.88380011 Ry
     estimated scf accuracy    <       1.92898168 Ry

     iteration #  2     ecut=    30.00 Ry     beta= 0.50
     Davidson diagonalization with overlap
     ethr =  7.54E-04,  avg # of iterations =  1.0

     total cpu time spent up to now is        4.6 secs

     total energy              =    -503.86720369 Ry
     estimated scf accuracy    <       0.35210395 Ry

     iteration #  3     ecut=    30.00 Ry     beta= 0.50
     Davidson diagonalization with overlap
     ethr =  1.38E-04,  avg # of iterations = 10.0

     total cpu time spent up to now is        4.7 secs

     total energy              =    -503.89098227 Ry
     estimated scf accuracy    <       0.00910100 Ry

     iteration #  4     ecut=    30.00 Ry     beta= 0.50
     Davidson diagonalization with overlap
     ethr =  3.56E-06,  avg # of iterations = 19.0

     total cpu time spent up to now is        4.9 secs

     total energy              =    -503.89296656 Ry
     estimated scf accuracy    <       0.00826400 Ry

     iteration #  5     ecut=    30.00 Ry     beta= 0.50
     Davidson diagonalization with overlap
     ethr =  3.23E-06,  avg # of iterations =  6.0

     total cpu time spent up to now is        5.0 secs

     total energy              =    -503.89458114 Ry
     estimated scf accuracy    <       0.00191196 Ry

     iteration #  6     ecut=    30.00 Ry     beta= 0.50
     Davidson diagonalization with overlap
     ethr =  7.47E-07,  avg # of iterations =  3.0

     total cpu time spent up to now is        5.1 secs

     total energy              =    -503.89475366 Ry
     estimated scf accuracy    <       0.00026732 Ry

     iteration #  7     ecut=    30.00 Ry     beta= 0.50
     Davidson diagonalization with overlap
     ethr =  1.04E-07,  avg # of iterations =  5.0

     total cpu time spent up to now is        5.2 secs

     total energy              =    -503.89480573 Ry
     estimated scf accuracy    <       0.00000789 Ry

     iteration #  8     ecut=    30.00 Ry     beta= 0.50
     Davidson diagonalization with overlap
     ethr =  3.08E-09,  avg # of iterations =  4.0

     total cpu time spent up to now is        5.3 secs

     total energy              =    -503.89480847 Ry
     estimated scf accuracy    <       0.00000785 Ry

     iteration #  9     ecut=    30.00 Ry     beta= 0.50
     Davidson diagonalization with overlap
     ethr =  3.07E-09,  avg # of iterations =  3.0

     total cpu time spent up to now is        5.4 secs

     total energy              =    -503.89480916 Ry
     estimated scf accuracy    <       0.00000134 Ry

     iteration # 10     ecut=    30.00 Ry     beta= 0.50
     Davidson diagonalization with overlap
     ethr =  5.22E-10,  avg # of iterations =  5.0

     total cpu time spent up to now is        5.5 secs

     End of self-consistent calculation

          k = 0.0000 0.0000 0.0000 ( 12004 PWs)   bands (ev):

    -5.7315  -4.7228  -4.7003  -4.6535  -4.6429  -4.6084  -4.5897  -3.8068
    -3.7964  -3.7702  -3.7371  -3.7185  -3.6887  -3.6836  -3.6527  -3.6462
    -3.6138  -3.6051  -3.5938  -3.4697  -3.4195  -3.3512  -3.3036  -1.7098
    -1.6873  -1.6104  -1.6055  -1.5822  -1.5702  -1.5142  -1.4973  -1.4789
    -1.4621  -1.4277  -1.4238  -1.4090  -1.3991  -1.3662  -1.3533  -1.3140
    -1.2469  -0.8043  -0.7922  -0.7085  -0.6172   0.6236   0.6543   0.6632
     0.6858   0.7101   0.7377   0.7483   0.7674   0.7955   0.8119   0.8609
     0.8838   2.2894   2.2991   2.3206   2.3328   2.3377   2.3554   2.3673
     2.3715   2.3836   2.4043   2.4082   2.4182   2.4245   2.4388   2.4579
     2.4588   2.4741   2.4767   2.4998   2.5030   2.5091   2.5338   2.5523
     2.5629   2.6505   2.6862   2.7178   2.7482   2.7705   2.7841   3.2881
     3.3581   3.3913   3.4022   3.4262   3.4447   4.2054   4.2522   4.2685
     4.2912   4.3290   4.3436   4.3624   4.3680   4.3825   4.3959   4.4344
     4.4810   4.7394   4.7697   4.8249   4.8591   4.8767   4.8831   4.9100
     4.9232   4.9362   4.9480   4.9581   4.9741   4.9825   5.0169   5.0187
     5.0434   5.0956   5.1147   5.1362   5.2993   6.1042   6.2302   6.4025
     6.7706   6.8772   6.9067   6.9364   6.9556   7.0064   7.2626   7.2760
     7.3179   7.3511   7.3806   7.4109   7.6869   7.7119   7.7371   7.7390
     8.4838   8.5221   8.5816   8.5963   8.6155   8.6387   8.6448   8.6559
     8.6638   8.6959

     the Fermi energy is     6.5316 ev

!    total energy              =    -503.89480946 Ry
     estimated scf accuracy    <       0.00000021 Ry
     smearing contrib. (-TS)   =      -0.05251264 Ry
     internal energy E=F+TS    =    -503.84229682 Ry

     The total energy is F=E-TS. E is the sum of the following terms:
     one-electron contribution =     150.98808439 Ry
     hartree contribution      =      36.08084406 Ry
     xc contribution           =    -154.25051427 Ry
     ewald contribution        =    -536.66071099 Ry

     convergence has been achieved in  10 iterations

     Forces acting on atoms (cartesian axes, Ry/au):

     atom    1 type  1   force =     0.01122617   -0.00719421   -0.00797597
     atom    2 type  1   force =    -0.01766215   -0.00028888   -0.01885231
     atom    3 type  1   force =     0.00657520   -0.01257535   -0.01756028
     atom    4 type  1   force =    -0.00210704   -0.01070130   -0.04302934
     atom    5 type  1   force =    -0.00494382   -0.02237528    0.02764868
     atom    6 type  1   force =     0.03878156   -0.01268321   -0.00781964
     atom    7 type  1   force =     0.02616939    0.01864532   -0.01399854
     atom    8 type  1   force =    -0.03140314   -0.01478162    0.00030505
     atom    9 type  1   force =     0.01321949   -0.02718824    0.01203523
     atom   10 type  1   force =    -0.00140955   -0.01451821   -0.02427089
     atom   11 type  1   force =    -0.02011869   -0.01490152    0.00983105
     atom   12 type  1   force =     0.03322404    0.00486628    0.01315209
     atom   13 type  1   force =    -0.01401960    0.02268069    0.00717299
     atom   14 type  1   force =    -0.01369378    0.00627644    0.03418148
     atom   15 type  1   force =     0.01586221    0.00368905   -0.02343557
     atom   16 type  1   force =     0.00364636    0.02587007   -0.00932297
     atom   17 type  1   force =     0.03815361    0.02424818    0.01975364
     atom   18 type  1   force =     0.00768247   -0.00277206    0.01164642
     atom   19 type  1   force =     0.01381676   -0.00701149   -0.00680814
     atom   20 type  1   force =    -0.00595284    0.00805078   -0.00099524
     atom   21 type  1   force =    -0.01049339    0.01180344    0.03298466
     atom   22 type  1   force =     0.00470105    0.00698712   -0.02773269
     atom   23 type  1   force =     0.00969645   -0.01580093   -0.00407903
     atom   24 type  1   force =    -0.01264351    0.01017346    0.00827920
     atom   25 type  1   force =    -0.01105236    0.00586972   -0.01102667
     atom   26 type  1   force =     0.00204150   -0.01535504    0.01320474
     atom   27 type  1   force =    -0.01123069    0.00300274   -0.00932716
     atom   28 type  1   force =    -0.02453852   -0.00637790   -0.00186138
     atom   29 type  1   force =     0.02706595   -0.03639800   -0.00302781
     atom   30 type  1   force =    -0.03165063    0.01058905    0.00707490
     atom   31 type  1   force =     0.01959733   -0.01377981   -0.00665150
     atom   32 type  1   force =    -0.00307416    0.02116158   -0.01112456
     atom   33 type  1   force =    -0.01215955    0.01978042    0.00303193
     atom   34 type  1   force =     0.00517023   -0.00567984    0.00664166
     atom   35 type  1   force =    -0.03273709   -0.03492416    0.02685909
     atom   36 type  1   force =    -0.00057182   -0.02672898    0.00632341
     atom   37 type  1   force =    -0.03293828   -0.02514849    0.01393032
     atom   38 type  1   force =     0.00125005    0.01184909    0.00179863
     atom   39 type  1   force =    -0.00084229    0.01591133    0.01405964
     atom   40 type  1   force =    -0.03312900    0.00628468   -0.01042217
     atom   41 type  1   force =     0.00160701   -0.00940304   -0.00392797
     atom   42 type  1   force =    -0.00719727    0.02914063   -0.01895594
     atom   43 type  1   force =     0.00284849    0.01698481    0.00274249
     atom   44 type  1   force =     0.03694579    0.01929553   -0.03660855
     atom   45 type  1   force =    -0.02001933    0.04379570    0.00018521
     atom   46 type  1   force =    -0.02329374    0.02606470    0.02195657
     atom   47 type  1   force =     0.01043548   -0.00793334   -0.00573881
     atom   48 type  1   force =     0.00245210    0.01115927    0.01387572
     atom   49 type  1   force =     0.03613429   -0.01320457    0.02760637
     atom   50 type  1   force =     0.01941637   -0.03536913   -0.01548997
     atom   51 type  1   force =    -0.02687741    0.00988386    0.02065118
     atom   52 type  1   force =     0.02245635    0.01145570   -0.01335416
     atom   53 type  1   force =     0.03350097   -0.02226606    0.01484620
     atom   54 type  1   force =    -0.02311347   -0.00347894   -0.01123140
     atom   55 type  1   force =    -0.01496443   -0.03118808   -0.00671204
     atom   56 type  1   force =     0.02397362    0.02371465   -0.01553628
     atom   57 type  1   force =    -0.00776164   -0.00302590    0.00477287
     atom   58 type  1   force =    -0.01811084   -0.02775495   -0.00647546
     atom   59 type  1   force =    -0.00293679   -0.03147700   -0.00544817
     atom   60 type  1   force =     0.00493066    0.01977833    0.02991497
     atom   61 type  1   force =     0.00844577    0.01499137   -0.00240000
     atom   62 type  1   force =    -0.00451602    0.01200478    0.00007137
     atom   63 type  1   force =     0.02233107    0.01609750   -0.00893137
     atom   64 type  1   force =    -0.02619493    0.02017924    0.00359423

     Total force =     0.251205     Total SCF correction =     0.000819


     Computing stress (Cartesian axis) and pressure

          total   stress  (Ry/bohr**3)                   (kbar)     P=       28.01
   0.00022254   0.00004405   0.00002993           32.74        6.48        4.40
   0.00004405   0.00016971  -0.00007714            6.48       24.97      -11.35
   0.00002993  -0.00007714   0.00017904            4.40      -11.35       26.34

 
     init_run     :      1.23s CPU      4.24s WALL (       1 calls)
     electrons    :      1.10s CPU      1.17s WALL (       1 calls)
     forces       :      0.04s CPU      0.04s WALL (       1 calls)
     stress       :      0.15s CPU      0.15s WALL (       1 calls)

     Called by init_run:
     wfcinit      :      0.57s CPU      3.44s WALL (       1 calls)
                                        3.44s GPU  (       1 calls)
     potinit      :      0.15s CPU      0.22s WALL (       1 calls)
     hinit0       :      0.49s CPU      0.52s WALL (       1 calls)

     Called by electrons:
     c_bands      :      0.77s CPU      0.80s WALL (      11 calls)
     sum_band     :      0.18s CPU      0.20s WALL (      11 calls)
     v_of_rho     :      0.08s CPU      0.16s WALL (      11 calls)
     mix_rho      :      0.06s CPU      0.07s WALL (      11 calls)

     Called by c_bands:
     init_us_2    :      0.03s CPU      0.03s WALL (      23 calls)
     init_us_2:gp :      0.03s CPU      0.03s WALL (      23 calls)
     regterg      :      0.69s CPU      0.71s WALL (      11 calls)

     Called by *egterg:
     rdiaghg      :      0.32s CPU      0.91s WALL (      72 calls)
                                        0.90s GPU  (      72 calls)
     h_psi        :      0.80s CPU      3.09s WALL (      74 calls)
                                        3.09s GPU  (      74 calls)
     g_psi        :      0.00s CPU      0.00s WALL (      62 calls)
                                        0.00s GPU  (      62 calls)

     Called by h_psi:
     h_psi:calbec :      0.53s CPU      2.76s WALL (      74 calls)
                                        2.76s GPU  (      74 calls)
     vloc_psi     :      0.23s CPU      0.29s WALL (      74 calls)
                                        0.28s GPU  (      74 calls)
     add_vuspsi   :      0.03s CPU      0.04s WALL (      74 calls)
                                        0.04s GPU  (      74 calls)

     General routines
     calbec       :      0.54s CPU      2.77s WALL (      79 calls)
     fft          :      0.51s CPU      0.61s WALL (      95 calls)
                                        0.10s GPU  (      61 calls)
     ffts         :      0.02s CPU      0.02s WALL (      11 calls)
     fftw         :      0.28s CPU      0.37s WALL (    1227 calls)
                                        0.33s GPU  (    1227 calls)
 
     Parallel routines
 
     PWSCF        :      2.55s CPU      5.66s WALL

 
   This run was terminated on:  11:20:53  10May2023            

=------------------------------------------------------------------------------=
   JOB DONE.
=------------------------------------------------------------------------------=
