10.833390423400076 0.0 0.0 0.0 10.833390423400076 0.0 0.0 0.0 10.833390423400076
10.832211945757072 0.0 0.0 0.0 10.832211945757072 0.0 0.0 0.0 10.832211945757072
10.82867069187877 0.0 0.0 0.0 10.82867069187877 0.0 0.0 0.0 10.82867069187877
10.822946052838802 0.0 0.0 0.0 10.822946052838802 0.0 0.0 0.0 10.822946052838802
10.815265574836758 0.0 0.0 0.0 10.815265574836758 0.0 0.0 0.0 10.815265574836758
10.806068474955573 0.0 0.0 0.0 10.806068474955573 0.0 0.0 0.0 10.806068474955573
10.795387562182166 0.0 0.0 0.0 10.795387562182166 0.0 0.0 0.0 10.795387562182166
10.782996877848568 0.0 0.0 0.0 10.782996877848568 0.0 0.0 0.0 10.782996877848568
10.769010724231784 0.0 0.0 0.0 10.769010724231784 0.0 0.0 0.0 10.769010724231784
10.753274052409767 0.0 0.0 0.0 10.753274052409767 0.0 0.0 0.0 10.753274052409767
10.735707485801262 0.0 0.0 0.0 10.735707485801262 0.0 0.0 0.0 10.735707485801262
10.71652004940357 0.0 0.0 0.0 10.71652004940357 0.0 0.0 0.0 10.71652004940357
10.695964689922286 0.0 0.0 0.0 10.695964689922286 0.0 0.0 0.0 10.695964689922286
10.674271599443042 0.0 0.0 0.0 10.674271599443042 0.0 0.0 0.0 10.674271599443042
10.651611173026925 0.0 0.0 0.0 10.651611173026925 0.0 0.0 0.0 10.651611173026925
10.628026803205026 0.0 0.0 0.0 10.628026803205026 0.0 0.0 0.0 10.628026803205026
10.603602099976259 0.0 0.0 0.0 10.603602099976259 0.0 0.0 0.0 10.603602099976259
10.578749821563143 0.0 0.0 0.0 10.578749821563143 0.0 0.0 0.0 10.578749821563143
10.554185944728582 0.0 0.0 0.0 10.554185944728582 0.0 0.0 0.0 10.554185944728582
10.530445467630214 0.0 0.0 0.0 10.530445467630214 0.0 0.0 0.0 10.530445467630214
10.507913631275729 0.0 0.0 0.0 10.507913631275729 0.0 0.0 0.0 10.507913631275729
10.487249790466732 0.0 0.0 0.0 10.487249790466732 0.0 0.0 0.0 10.487249790466732
10.469286870129173 0.0 0.0 0.0 10.469286870129173 0.0 0.0 0.0 10.469286870129173
10.454617019559194 0.0 0.0 0.0 10.454617019559194 0.0 0.0 0.0 10.454617019559194
10.443615954574733 0.0 0.0 0.0 10.443615954574733 0.0 0.0 0.0 10.443615954574733
10.43637257694679 0.0 0.0 0.0 10.43637257694679 0.0 0.0 0.0 10.43637257694679
10.432648227754397 0.0 0.0 0.0 10.432648227754397 0.0 0.0 0.0 10.432648227754397
10.431697825488195 0.0 0.0 0.0 10.431697825488195 0.0 0.0 0.0 10.431697825488195
10.433020768509078 0.0 0.0 0.0 10.433020768509078 0.0 0.0 0.0 10.433020768509078
10.436586893716171 0.0 0.0 0.0 10.436586893716171 0.0 0.0 0.0 10.436586893716171
10.442082399024924 0.0 0.0 0.0 10.442082399024924 0.0 0.0 0.0 10.442082399024924
10.449004036910189 0.0 0.0 0.0 10.449004036910189 0.0 0.0 0.0 10.449004036910189
10.45721580882942 0.0 0.0 0.0 10.45721580882942 0.0 0.0 0.0 10.45721580882942
10.467159577751591 0.0 0.0 0.0 10.467159577751591 0.0 0.0 0.0 10.467159577751591
10.478960758675083 0.0 0.0 0.0 10.478960758675083 0.0 0.0 0.0 10.478960758675083
10.492038315025125 0.0 0.0 0.0 10.492038315025125 0.0 0.0 0.0 10.492038315025125
10.505887940922152 0.0 0.0 0.0 10.505887940922152 0.0 0.0 0.0 10.505887940922152
10.520395863266373 0.0 0.0 0.0 10.520395863266373 0.0 0.0 0.0 10.520395863266373
10.535475296995616 0.0 0.0 0.0 10.535475296995616 0.0 0.0 0.0 10.535475296995616
10.550941030086957 0.0 0.0 0.0 10.550941030086957 0.0 0.0 0.0 10.550941030086957
10.566598854504928 0.0 0.0 0.0 10.566598854504928 0.0 0.0 0.0 10.566598854504928
10.58255619322283 0.0 0.0 0.0 10.58255619322283 0.0 0.0 0.0 10.58255619322283
10.598994554023125 0.0 0.0 0.0 10.598994554023125 0.0 0.0 0.0 10.598994554023125
10.615560446530631 0.0 0.0 0.0 10.615560446530631 0.0 0.0 0.0 10.615560446530631
10.631964939989592 0.0 0.0 0.0 10.631964939989592 0.0 0.0 0.0 10.631964939989592
10.648093202945791 0.0 0.0 0.0 10.648093202945791 0.0 0.0 0.0 10.648093202945791
10.663525068695797 0.0 0.0 0.0 10.663525068695797 0.0 0.0 0.0 10.663525068695797
10.67787794211797 0.0 0.0 0.0 10.67787794211797 0.0 0.0 0.0 10.67787794211797
10.691070859099431 0.0 0.0 0.0 10.691070859099431 0.0 0.0 0.0 10.691070859099431
10.702993221603638 0.0 0.0 0.0 10.702993221603638 0.0 0.0 0.0 10.702993221603638
10.713014779575436 0.0 0.0 0.0 10.713014779575436 0.0 0.0 0.0 10.713014779575436
10.720524333339183 0.0 0.0 0.0 10.720524333339183 0.0 0.0 0.0 10.720524333339183
10.725309153657117 0.0 0.0 0.0 10.725309153657117 0.0 0.0 0.0 10.725309153657117
10.727921701534756 0.0 0.0 0.0 10.727921701534756 0.0 0.0 0.0 10.727921701534756
10.729272690947683 0.0 0.0 0.0 10.729272690947683 0.0 0.0 0.0 10.729272690947683
10.729928341508833 0.0 0.0 0.0 10.729928341508833 0.0 0.0 0.0 10.729928341508833
10.729752654675659 0.0 0.0 0.0 10.729752654675659 0.0 0.0 0.0 10.729752654675659
10.728181527544058 0.0 0.0 0.0 10.728181527544058 0.0 0.0 0.0 10.728181527544058
10.724937142079643 0.0 0.0 0.0 10.724937142079643 0.0 0.0 0.0 10.724937142079643
10.72018142650817 0.0 0.0 0.0 10.72018142650817 0.0 0.0 0.0 10.72018142650817
10.714103826270227 0.0 0.0 0.0 10.714103826270227 0.0 0.0 0.0 10.714103826270227
10.70722822680209 0.0 0.0 0.0 10.70722822680209 0.0 0.0 0.0 10.70722822680209
10.69992028955473 0.0 0.0 0.0 10.69992028955473 0.0 0.0 0.0 10.69992028955473
10.692202239970893 0.0 0.0 0.0 10.692202239970893 0.0 0.0 0.0 10.692202239970893
10.68383647748403 0.0 0.0 0.0 10.68383647748403 0.0 0.0 0.0 10.68383647748403
10.674638848425639 0.0 0.0 0.0 10.674638848425639 0.0 0.0 0.0 10.674638848425639
10.664777101970762 0.0 0.0 0.0 10.664777101970762 0.0 0.0 0.0 10.664777101970762
10.654722205834835 0.0 0.0 0.0 10.654722205834835 0.0 0.0 0.0 10.654722205834835
10.644814420962833 0.0 0.0 0.0 10.644814420962833 0.0 0.0 0.0 10.644814420962833
10.635202446150299 0.0 0.0 0.0 10.635202446150299 0.0 0.0 0.0 10.635202446150299
10.62589104399211 0.0 0.0 0.0 10.62589104399211 0.0 0.0 0.0 10.62589104399211
10.616813538160013 0.0 0.0 0.0 10.616813538160013 0.0 0.0 0.0 10.616813538160013
10.607757199416252 0.0 0.0 0.0 10.607757199416252 0.0 0.0 0.0 10.607757199416252
10.598511944409106 0.0 0.0 0.0 10.598511944409106 0.0 0.0 0.0 10.598511944409106
10.589292619085171 0.0 0.0 0.0 10.589292619085171 0.0 0.0 0.0 10.589292619085171
10.580189712747073 0.0 0.0 0.0 10.580189712747073 0.0 0.0 0.0 10.580189712747073
10.571293714697442 0.0 0.0 0.0 10.571293714697442 0.0 0.0 0.0 10.571293714697442
10.562501435380648 0.0 0.0 0.0 10.562501435380648 0.0 0.0 0.0 10.562501435380648
10.553818166568774 0.0 0.0 0.0 10.553818166568774 0.0 0.0 0.0 10.553818166568774
10.545362443956494 0.0 0.0 0.0 10.545362443956494 0.0 0.0 0.0 10.545362443956494
10.53723216532735 0.0 0.0 0.0 10.53723216532735 0.0 0.0 0.0 10.53723216532735
10.529596138210808 0.0 0.0 0.0 10.529596138210808 0.0 0.0 0.0 10.529596138210808
10.522754935261213 0.0 0.0 0.0 10.522754935261213 0.0 0.0 0.0 10.522754935261213
10.51691599394424 0.0 0.0 0.0 10.51691599394424 0.0 0.0 0.0 10.51691599394424
10.512085664386388 0.0 0.0 0.0 10.512085664386388 0.0 0.0 0.0 10.512085664386388
10.508264475764868 0.0 0.0 0.0 10.508264475764868 0.0 0.0 0.0 10.508264475764868
10.505198952196876 0.0 0.0 0.0 10.505198952196876 0.0 0.0 0.0 10.505198952196876
10.503015567035211 0.0 0.0 0.0 10.503015567035211 0.0 0.0 0.0 10.503015567035211
10.501824918316414 0.0 0.0 0.0 10.501824918316414 0.0 0.0 0.0 10.501824918316414
10.501196784970098 0.0 0.0 0.0 10.501196784970098 0.0 0.0 0.0 10.501196784970098
10.50055648054799 0.0 0.0 0.0 10.50055648054799 0.0 0.0 0.0 10.50055648054799
10.499419278727238 0.0 0.0 0.0 10.499419278727238 0.0 0.0 0.0 10.499419278727238
10.498054530706895 0.0 0.0 0.0 10.498054530706895 0.0 0.0 0.0 10.498054530706895
10.497117887048109 0.0 0.0 0.0 10.497117887048109 0.0 0.0 0.0 10.497117887048109
10.496935850088436 0.0 0.0 0.0 10.496935850088436 0.0 0.0 0.0 10.496935850088436
10.497661881218297 0.0 0.0 0.0 10.497661881218297 0.0 0.0 0.0 10.497661881218297
10.499342018854819 0.0 0.0 0.0 10.499342018854819 0.0 0.0 0.0 10.499342018854819
10.502052464516005 0.0 0.0 0.0 10.502052464516005 0.0 0.0 0.0 10.502052464516005
10.505842431682234 0.0 0.0 0.0 10.505842431682234 0.0 0.0 0.0 10.505842431682234
10.510923591236846 0.0 0.0 0.0 10.510923591236846 0.0 0.0 0.0 10.510923591236846
10.517582757226766 0.0 0.0 0.0 10.517582757226766 0.0 0.0 0.0 10.517582757226766
