-0.406687584970506 0.2578225117042657 0.42977377736600825 0.17246265808052233 0.26948940651923264 0.421009658020133 -0.4299316431001111 -1.3982162927292305 0.7974811244185749 -0.24559614484140285 0.1325480812737717 0.6494632296439782 0.4383419786509935 -0.8027845389093594 -0.13820065157385877 -0.01746987464998927 -0.08391849319152644 0.7542035446768625 -1.0566429237595543 -0.15120452003269444 0.5447563389521908 0.0486900090065355 -1.444882843547834 -0.45604453813707907 0.1940504115536271 0.006233639614537652 -0.554388205615 1.4801108135121928 0.13781755720282718 -1.9591677533840455 0.09621839360480203 0.5109779569501651 1.3525663561005996 -1.1920737258977598 0.45721284741356744 -0.42975012321692435 0.39509705191942923 0.40761472477046573 0.5366169976745081 1.2132454748793686 1.931812244189228 -1.5311271566590596 -0.29733213976311373 0.23921569523635577 0.12458511767295319 0.09088001211102413 0.09152741588703592 -0.30538560619520955 -0.15785982056568298 0.04256666971761701 -0.49244775935646157 -0.12779025487381218 -0.2892619611604696 1.238199573721545 -1.721339168303203 -0.6299572984005667 0.6266755423255014 0.611274891499715 0.1368222831690934 1.8814882991236952 0.5599394744505325 -0.5701583239650633 1.3720010677864436 0.913412165960956 -0.6309546293168294 -0.12583930179502845 0.15015165328814786 0.02021298461276519 -0.8556533618839329 -0.054483989980493266 0.7479994727486795 -0.34807466042330376 2.399289706753597 -0.20692855306787586 -0.37184990846603055 0.4083585449150257 0.19980222643573978 -0.8384120583049818 -1.7396405377155524 0.44056341178234454 -0.7010282462054637 0.554306187424155 0.3225981134187541 0.13423395361662688 0.5414961801436803 -3.7648874421168577 -1.3474321201978279 1.2180223274427215 1.1691873082178896 -0.05171311210357546 -0.7220269599443179 0.2961196075122513 0.17753750150026842 1.4276955331352703 1.1587565998028688 1.5050618270305756 0.5779269121668885 -0.9472563682039106 -2.0678415991433803 0.542633379071917 1.0721448760498955 0.5909382368248919 -0.27951388063477023 0.27177023213360935 -0.30677271635072334 -0.3358606348556151 0.29421981938637715 0.45729486560441246 -0.3334736226806773 -0.7980439389005803 -0.4027157448069516 -0.3339274223886442 -0.6994794136611051 0.08708043585927584 -0.6726445528564481 -0.13086555136502623 -0.24997164820127912 0.009940399042163525 0.09682825927465906 0.0653381590861778 -1.493971630654685 0.24346495743101293 -1.0271068619736505 -0.03837911399883068 -0.6740249781437424 0.5138655629106054 -0.42477195327604267 -0.6500792659614224 -2.3199562618295912 -1.2291240937828378 -1.2703100811028445 -0.9296754218973537 -0.6696682438369435 0.5357266246497547 0.34552926829363073 -1.116905725205354 -0.8731713161630381 2.43007172513146 -0.22865925987674815 3.8828961921238734 0.36124642191857137 0.5663240378206376 -1.2232262402411642 1.847337364273599 0.6529221347268562 -0.3649693792961134 -0.10628066293681052 0.09318783430859436 -1.51565168673128 0.06131489685939764 -0.3632958482484324 1.3166295329946744 0.3422035463545074 -0.3783815389369612 -1.4478115871588548 0.728565532393784 0.14589236379116163 0.5340852323915899 0.5226883034085579 -0.655571142313929 0.09760730353252868 0.19957905468134016 -1.2030412806528572 1.362300552669228 -0.9874861622582349 0.1175994303837394 -0.1026590070238232 -0.9431269194165692 0.9045421171648357 -0.1074955091805181 0.8293160095409847 0.704425959033103 -0.3049539179744296 0.2403030147632636 -1.4239952014655475 1.4148731845596212 0.757671962841437 0.2584776287897613 -1.133007515863223 -0.31580885841106254 0.2704006054795924 0.3143991225477295 -0.6939019195733275 0.4203028617610955 0.1655823860209213 0.5228507971283511 0.6431267459029891 -0.03822716180199868 -2.054149960588901 0.5293137791448754 1.6749595525973993 -0.5375395094887774
-0.6597183317130833 0.1376280668998404 0.25240442601248786 -0.6118204795905399 -0.2395489102060584 0.8578531977487291 -0.7653649606103206 -0.963770820919166 1.1490031199605308 -0.22310876237216412 -0.24162893266353866 -0.028164378249357944 0.21833576646355302 -0.2867700479765513 0.05975912233650353 -0.014845806763580884 0.2834695228484086 0.8272174751407432 -0.5421744371576275 -0.08871077237384722 -0.5386060030800789 0.2888554697506703 -0.6321075119743501 -0.032589761010563226 0.8547563039909603 0.21297167393816227 -0.40454765580936775 -0.6683693225198618 -0.5712505285879775 0.9259684053594118 0.19420699173614941 0.7923800557465838 1.303490424509555 -0.7507220138861651 -0.10999564989455249 0.0013310601065977077 0.23034976020529363 -0.22353685104851823 0.20446415068778334 0.6611689481166806 0.7107858398128598 -0.8634741434799322 0.2328401307273151 -0.17619769964292237 0.07265371891098456 -0.11622748973687726 0.010961641217826282 -0.3658618092033957 -0.3879262452026028 0.3047081205122107 -0.362981145221491 -1.3099981437210857 1.1004468083183823 0.4497594764593157 -1.6458276682284494 -0.6677268038398565 -0.15063424935152123 1.6739493661653297 1.0502632454854557 2.5839278238543884 -1.5214850055836056 -1.9626703672206651 1.3598641753135936 0.7200515813855018 -0.5413465419396934 -0.2872161343750344 -0.030748594036766403 0.27577446819699597 -1.1707184001504354 -0.2623926475734513 0.983727723657067 -0.9493718718850166 2.6607760404626952 -0.1992036736197924 -0.2308110161124283 1.5161260552645375 0.7785878870584979 -1.7715404717479426 -1.8292650801529204 0.4916491747145662 -0.44581514709958703 1.0657448860608225 0.4553462265184739 -0.6880845415606021 0.1675189409220018 -0.1405303281482999 -1.0516426423314855 0.9535020920033062 0.5828359194327317 -0.04860156305778727 -0.07408633759245305 0.05763204869117171 -0.17540888519303982 1.5673164620954234 1.808546102438014 1.4737619884760296 -0.2786602743852233 -0.19675032698329342 -0.5842736803205227 0.332969172240433 3.025727164926363 1.8906146869049953 0.7333585829070532 2.4649261138064835 -0.4692679788058886 0.014812639532800294 0.18484637645685584 0.5738596840760504 0.5299077039751325 -1.34007876515655 -1.3177603041650081 -1.113381256991863 0.08602294112903895 0.626404805162618 -1.2519575467375856 -1.8739495675444886 0.04328812126467383 0.00212167432869312 0.30283044387352365 -0.003963612633438335 -1.0321940466885708 -0.7370100636167114 -0.06137634622495237 0.4090619987399536 -1.0522419664783813 1.167402448403325 -1.1601905040359182 -0.21864455595322344 -2.7723662885378766 -2.6744046869897233 -1.6417408997535856 -1.228102594496859 -0.8568383833309695 0.4117017503556458 0.11979026738747112 1.6151240684970056 1.4210422894848107 0.8365721768827658 1.3625250099752084 -0.397335968552277 1.50449438456288 0.18401848123892178 0.03082367024907595 1.1419307864947819 -0.3086246819577975 -0.1890251904248938 0.6150395007484698 0.1593096656383321 -1.2241806337346335 0.5681081263042538 0.25163078107125697 1.010380550357905 -0.26625547296296725 0.8716998738238343 -1.7488342883996784 -0.3323917024704082 0.19907871800615393 0.11449970841249313 0.7967547877755116 -0.36945004077528626 0.4027620246638548 -0.03833103436971463 -0.41506449618029156 0.40442244308541314 -0.455936294693989 0.03931088178448069 -0.5513180513301086 -0.16491929851562567 0.04857250959206474 0.10341568268418964 0.4065983676908094 0.41083940235535055 -0.5602266666736481 -0.22011291296863383 0.2708078682203401 -0.36155238319476446 -0.4445517070061311 0.15338481551346486 -2.9801067959840872 -1.5136074026077415 0.1826948773314918 0.12431309495848912 -0.6938844360718308 -0.5206697303166323 -0.8932719435676552 0.9350122607292348 -0.16271586310640362 0.07414907250958842 -1.9180231608249354 0.7815048035949766 2.8116853978524734 -0.6961346655585883
-0.5585132835269672 -0.031221934128759128 0.15683960683128473 -1.6074434120232959 -0.9792223795875457 1.4964470887783712 -1.0304184428453866 0.1419799161106329 0.015857021636914624 -0.5457786095691181 -0.580998866223993 -1.2836782748796345 -0.08519016081509843 0.5346966407233437 -0.023078736196334448 0.02180552591086567 0.5445061706145977 0.6058933154728275 -0.35049304005680926 -0.08505003569280836 -1.0502483330871202 0.5902309263452222 0.24691254965998122 0.6619590481181438 0.9762357861553961 0.49901435683038575 -0.20579032569837458 -1.4057200573054436 -0.80617685242036 1.8623456647569732 0.6158416849347911 0.6233161389349652 0.8439772110975852 -0.1980909001715879 -0.48098629568408136 0.7659012927297648 -0.025087281985930986 -0.3700917881243433 -0.3652465442169 0.2192186832891386 -0.39711485368040644 -0.4805846893702885 1.017830578878047 -0.8943302096288404 -0.09586512403044135 -0.6701894064477362 -0.04504289917225146 -0.556787301974796 -0.35997295452278644 0.5247876091397479 -0.4030906116478671 -2.3317175161305776 2.2575656154075117 -0.2843460119160909 -1.2555619762593926 -0.6361351450765044 -0.584084190017536 0.2218417227342825 1.0140520856722213 0.895960803253728 -2.421827482844797 -2.4168940500989216 1.089427060169111 0.4112590063912724 -0.3349131833406813 -0.30547713746775135 -0.22279225957300983 0.2902173830952034 -1.115285930213744 -0.7070482271472984 0.42853939073827485 -0.9185453734224631 1.4504081442414376 -0.04393501082005336 -0.07036209466333045 1.8221402961826811 0.6883892172852144 -1.8595506185103392 -0.3874793874731714 0.4005647599022198 0.10388490901112431 1.2939367193828488 0.39626664674749823 -0.8087749521648394 0.9818284497518251 1.121188411741108 -1.1276218260712774 0.42298632213052956 -0.06003140216128371 0.029543003764439444 0.43871298883716703 -0.2945584336727185 -0.5480602065144432 1.1310678756383488 1.2530098992615002 0.5289777359616954 -1.248868623399617 0.4497569053561545 0.7412194737123686 -0.20073682243486718 3.069965823029764 2.047873897772202 1.503824869299681 2.6465051323659776 -0.6045432292028363 0.3077584773027603 0.26842419847951193 0.4651089623321925 1.281244211516845 -1.0566637496951607 -2.0459134316117216 -1.812238720798253 0.7064918404231962 0.7743504519383825 -1.2311524370667766 -2.1488740290363637 0.23674023711266973 0.08826520019599637 0.42148788320813224 0.03025777044327692 -0.15811615955086317 -1.8560505757768808 0.19433220446010402 0.5804008276286778 -0.8187665161599125 1.2422740009012347 -1.4557051309743188 -0.13428511856953648 -1.9986269878209322 -1.1317417617769219 -0.05741041959866887 0.679333020620217 -0.9850580124327164 0.16952568693938547 0.20857483042204725 2.5452990557385973 2.036030111059739 0.13791037402694958 1.3076067606707737 -1.2149629717911075 1.643223654946699 0.1405706944679321 0.7670325781207306 0.5782395583113009 -0.9465508574964537 -0.1720502531334521 1.3386764854923847 0.5163171097748914 0.0035206115587487754 0.8404730545990687 0.4421857778771159 0.697192160288825 -0.6000065176747472 1.2844084681774395 -1.031330670247011 -0.29577662235053576 0.3688653719164099 -0.10142179218261242 0.8854930709531845 -0.052053783272445836 0.3577844315118999 -0.3255353416702071 0.15794620963190217 0.06655403377114989 0.2580055742493492 0.2741302477253537 -0.973822291617897 0.3748884381820382 -0.6095882478259115 0.1378941760770335 -0.001173708593127011 0.018058657273923737 -0.5940449007746738 -0.6397310899578789 2.1144731829589904 -1.6436221759366985 -1.302762030983963 0.3608139623668431 -3.1246822407360377 -1.5953653978128397 0.10346839029899599 -0.44117893387915635 -0.21699056528956825 -0.6764420722256672 -1.1602254710389115 0.5919016291794258 -0.6984424877561584 0.44349781182032 -0.508216335044628 0.3590375871927107 1.7794257880332902 -0.10477013982955505
-0.12482860114232695 -0.4138745896372485 -0.056661200137470155 -1.380371551238326 -0.7194777111599029 1.2137692085933223 -1.4864462688119175 0.6301964109945662 -0.9584128990413624 -0.8016375697891097 -0.3128376915978806 -2.6306576238107597 -0.3947854342162814 1.5268642676176478 -0.34192355322024337 -0.05489613781724739 0.7565072531093746 0.06728859794432927 -0.3420258831260626 0.013312400838189976 -1.1219954810234354 0.7414303041715941 0.775267050215381 1.0895676995120334 0.5681806314134021 0.8575976300944972 -0.0062637215215246966 -0.6008542103870232 -0.48954087012231173 1.129904708568183 1.5067986072160244 0.4202537536907149 -1.1269983335546654 0.24159216588833232 -0.5225471498450033 1.2188461088955977 -0.18777846250198627 -0.4224541037761434 -0.96946941396584 0.09830870047492746 -1.4944848228456777 -0.6575958860534417 1.6952892652936866 -1.4683593294032196 -0.07420666522040123 -1.7202238237518375 -0.15452304288296612 -1.0339902193570452 -0.004154388488005749 0.8813443388921337 -0.6514110973989685 -0.5412920345526743 1.8809671365129024 -1.0170553912749194 -0.8957191195565671 -0.7747726270774656 0.002498855162453761 -0.7488093702444846 1.2314650832111889 -0.9085710358185708 -1.093326395223517 -0.24030224343231518 0.6284118082903177 -0.21007918288171565 0.034780598014294936 -0.23011990358267465 -0.5834524699708081 -0.10183908222568912 -0.42050392202830805 -1.1769073025699668 -0.9290367598720902 -0.3487894271021412 -0.10960818464814671 -0.14434918767375787 0.47126238352809807 1.013769778545112 -0.15931995005097724 -0.796153663856403 0.9286806620842523 0.49870813844387657 0.9859453001336762 0.4616032631717792 -0.3406516284863553 -0.06167896506703571 0.6245163298906535 0.5509796941540833 -0.7063859109729512 -0.40274685515520314 -0.09802613623750216 0.43534355814430187 0.7414745271459682 -0.7119497782139739 -0.9176884247388066 0.568494305999079 0.5073179916000747 -0.36218821700655046 -2.0063415828563707 0.78914535085937 1.238115241537855 -0.18411078384241197 0.6692864350174925 0.6269390803995332 1.118699069660351 0.057702496917790946 -0.5560087719375585 0.9532624651886744 0.27629485947684024 -0.13081207241927148 0.6539804007880414 0.488701662050468 -1.801921655142961 -0.8725583651693877 0.49798103046986497 0.2454015123320935 0.5097371425645285 -0.33236779121100823 0.6192692225591012 0.27224948576287306 0.2899628438822361 0.1659305133889594 0.6481098009398774 -2.1535966313230137 -0.08358604955277217 0.4331799748340798 -0.010487272684569034 0.9010562154987644 -0.5282987076167999 -0.4199308231336575 -0.35455461172069264 0.28603059870736547 1.124961762740611 2.312862588207604 -0.7976886124436908 -0.09884914635942976 0.44867369959430475 1.4448977559461695 -0.05162929414051753 -0.7353663573657012 -0.08897199645503387 -0.7959628880018357 0.9575330675395703 0.04154337065942523 0.8362299630519985 0.1959658834087851 -0.8694956670836639 -0.11152288517235631 1.4849740551417652 0.8947909513153428 1.3026712710423693 1.1321503100692503 0.04490688781501943 -0.01289999589111972 -0.4628471628812093 0.6344374456591074 0.7096784656812939 0.6741764161199422 0.7077786775554198 -0.08032049142762296 0.5626627869189664 0.2033619187625401 0.04467471719955532 -0.6713733994535083 0.5226901031807708 0.0766183599856874 1.1568598970007882 0.7439520421521834 -1.1489051609300858 0.5464316697720848 -1.0720772560367535 -0.11146092158616934 -0.1749525143819116 -0.374684035480716 -0.40067608866910354 -0.6852007922549038 1.5363768350937732 -1.0298124338302714 -1.5894117513325658 -0.5317676400020068 -0.8450750721474543 1.2493555903383644 -0.037620638566251335 -1.2172504822737036 0.6622698944903432 0.4055856101555789 -0.6371401893022511 -0.6783158922096124 -0.9749201526677661 0.5640727798926157 0.7354198363114559 -0.047231165072821886 0.6626910411881619 0.16418627700434305
0.39085653147552046 -0.9882348674988013 -0.5894014884653914 -0.6089038201643772 -0.20118239461271803 -0.22592077789966253 -1.282394008850572 0.4614309992599731 -0.8841787230171354 -0.5015456078926717 0.31654187992234517 -2.8117424763426544 -0.48832191011354614 1.771087443370924 -0.3622902898020535 -0.2934819127790881 0.8356890029468639 -0.27863842000835237 -0.3819283757479552 0.1498292369517226 -0.9520517327100247 0.46825290727781294 0.4438683077858614 0.8818973831821263 0.08861127068150546 1.1756101810250978 0.3388053193062359 0.3758855119879849 -0.03254039582986654 0.3644785557026239 3.0427288416906824 0.30654388816936884 -5.370936287785472 0.21387850202314776 -0.02694901778501811 0.33483887845932014 -0.07982658251033994 -0.44076601471145377 -0.8370450027541262 0.3261351800377351 -1.6548496692214016 -1.0118725615223991 1.487217342649987 -0.7450097939927361 0.15227229917557647 -2.047468177693351 -0.17376954981740395 -1.4675350337297115 0.3913393846492099 0.8660015378874762 -0.8199181132658524 1.7943736675923743 1.2741999030755538 -1.49698444933908 -0.6224887579376635 -0.7846618611667195 1.11723405507905 -0.8733263536836637 1.1332887945490677 -1.0027598005878537 -0.4952062959382052 1.8370673498061587 -0.224488159218194 -1.5957448926394453 0.6441724135586843 -0.2527857206113066 -1.093180356563956 -0.6134873257700015 0.2971205379729399 -1.5100148001604767 -2.1629035105462364 0.1916230330590571 -1.3662124861291243 -0.5797745068985887 1.1568280153215882 0.23101721858596347 -0.8053792962197291 0.5151315741072224 1.6126393544019388 1.1392216150937349 1.252503906159359 -0.6637750182809601 -1.3558085171869811 0.12832787254483705 -0.3394198129617832 -0.1632928186557962 0.2842596228498717 -1.559005628236883 0.2858171971449787 1.1605761695101109 0.9987110844397767 -0.6888525300748781 -1.2517647140004893 -0.015030411970561208 0.024537580130048066 -0.5834475848748016 -2.3553536674922793 0.7784865855939431 0.3338194360558703 0.34343947564413757 -1.082229771089723 0.0722557121416175 0.9705266515857609 -2.0482202253680275 -0.43602747158520394 1.9436416327239883 -0.08819552330032553 -0.9439926098509742 0.14263117654138663 1.0162781467892625 -0.5091907831427553 0.7772617120479066 0.6716400228513335 -0.06468561310384344 1.6692560744547187 0.6095350259904728 0.9247931541043879 0.28866263701357386 0.0045547092502179615 0.34988574549011353 0.7255892233742794 -0.9648134032510673 -0.11765393777075867 0.40018295108276886 0.7474914227640095 0.5335640697807972 0.4736712500799068 0.09688482354420734 0.8577979190307614 0.837246577241971 0.979538625276384 1.8491841876743507 -0.11161338800363359 -0.25365861013456314 0.37969408710079766 0.8608269356650722 -1.3634788892480452 -1.229721875267837 -1.0560292014349553 -0.8960762457856696 0.36447804148199164 -0.37669515237347384 0.680676422021989 -0.029082262077937012 -0.4057607022808625 0.2543687488277103 1.0891681500807693 0.9395916525698013 1.5053490192536914 1.0173757507288157 -0.4784326760242922 -0.9939018359765914 -0.20763843465070692 0.10031647493357562 1.733725457782698 1.4014990772455604 1.1500199912608196 0.042817609386158514 -0.02956305836909747 0.23459259464204762 -0.44322193245111413 -0.8028837834913849 1.0845820733719838 -0.03675803345563992 1.977432098910872 0.7463087153098179 -0.8252827200118754 0.6179721010142326 -1.5159280803211181 -0.5761111991143885 -0.1357868999260436 -0.721325563001919 -0.24653793992938183 -0.2819669701609531 0.04376583223204075 -0.005730474725874002 -1.1184843825463835 -2.614544777409297 0.4965800363572802 5.632621367768937 -0.19868508211216104 -1.275937197481635 1.015445109365006 1.3592540525334205 -0.216340333300079 -1.404568974420136 -0.6303442494263402 0.3157052429536627 0.9336680879965146 -0.23102596033671183 0.13541717529145064 0.20845707389726037
0.6442318060417098 -0.9402043464531356 -0.8493299907690663 -0.1287863002384943 0.015559802111469978 -1.2319623345625814 -0.4015947438286309 0.0601805261446383 -0.37692655165798955 -0.020957576088273585 0.31893043475917976 -1.758023411098114 -0.41538074186912977 0.9339917898845205 -0.06828541463995981 -0.3815285692063752 0.7645116114710898 -0.3038203185906187 -0.4065022084325773 0.20409314050160982 -0.7153474910416132 0.12699141312160064 0.002731797108866263 0.616867297985828 0.2552213266359927 1.603165867693865 0.8802760455286194 0.8610459936544139 0.326010995755045 0.09330224839927158 0.7675498840767814 0.4039650438330204 -3.267306475298889 0.012594805945875082 0.7707912738322145 -1.4959583220674109 0.07001242463339555 -0.44788745624758347 -0.10306678398520314 0.479350045632239 -0.7028025644970669 -0.8603638799857247 0.42385201256493454 0.6337910703243601 -0.04547895826840555 -0.13273165803948753 0.2807595801164133 -1.03683900165975 0.8157817224999757 0.29524337555488506 -0.23156820599342698 2.1692086268286577 0.37522910935090864 -0.3290089020411043 -0.16217130345684327 -0.3440025472364592 1.580464569441607 -0.7509765530991324 0.6613880061060222 -0.28641112197523577 0.1887678229984491 1.499847372709172 -0.9099548035399747 -2.860321156582306 1.020761379371597 -0.2968459441553146 -1.2570431887906095 -0.9986843449668993 0.5553595683893339 -1.3038136121769288 -2.3970675022912977 0.157887845590141 -1.489634436731912 -0.3759024812688494 0.5426428921536138 -0.15366609419930954 -1.2171854333637229 1.9443867384201285 1.6288403896418333 1.4673892521804666 0.3446954595384257 -1.3887438344624212 -2.0094191933404297 -0.11660415635000562 -1.0270094171638375 -0.08480963754722813 1.1669712744031773 -2.070225525994525 0.43863971239707034 1.2477987873742058 1.1871855445675232 -0.11269787931706397 -1.3788255469074446 -0.7705627027611762 -0.3562659379848445 -0.07881022543068363 -1.5622403331240966 0.3438696212030207 -1.1811935886501463 0.7372808007795948 -2.0303505441764584 0.10658559577173901 0.4328218201637126 -1.5441654779002567 -0.7066520201501443 2.04895324687931 -0.602561422886117 -1.246511178911034 -0.3782079894735744 0.07936404105162462 0.7498565805620764 2.0956000002035715 1.0560045188446072 0.08641066348576086 0.9957574011280916 0.5608427029910921 0.4406161193971509 0.13044569021878824 -0.06923569436837108 0.26077053858899607 0.3951991247149323 0.7199487372590504 -0.38722150582609444 0.4649485254949283 0.9204137940897698 0.11707363978725643 0.92272161628734 0.7914732276615982 1.249392871334203 0.8456785100594081 0.439212811291721 0.570759704994488 0.864117690601202 -0.45287693904237486 0.24928156411279 0.10171412661205063 -0.7919635370344554 -0.527473126391711 -1.3813030619136597 -1.30213262493008 0.1177881493557778 -0.7014555635508694 0.6602582633769533 -0.3145729291214324 0.045721670406830936 0.9326360471875743 0.5275469170524398 1.0201563987977462 0.4530008662147489 0.33256242372031763 -0.8704714007333719 -1.5033085917848947 0.12215311119269284 0.5144466322250558 1.2669828165018244 0.9624950395305358 1.3310696196794045 0.16353784478706676 -0.340862973166213 -0.055564367528865594 -0.9655731642352273 -0.5137946004633538 1.5723434829963696 -0.03934122080178386 2.0539591847343335 0.3472863601940535 -0.4026627800818291 0.46210180007475254 -1.809625965765754 -0.9577076454442216 -0.020172361182816873 -0.8207249254378639 -0.09012667888476736 0.3271371389396882 -0.9721276775242936 0.6613769503624287 -0.3046189032325141 -1.6381876351846882 0.5994177350508129 3.04254037982896 -0.18115735764104285 -0.43138174528307643 0.6472950183480658 1.4895681022703506 -0.1551359938766167 -1.1463690247717935 -0.1603825869875367 -0.08211743542704568 0.6632479421328965 -0.33336640767885173 -0.31775055551846565 0.20995268460618038
0.1930829054340352 0.08179861863504623 -0.642772447887364 0.872779222930942 0.5334604543233974 -0.4405387291919961 0.6219822506148901 -0.4960586166361715 -0.023275168477856687 0.34622732280191987 0.11761331434081035 -0.5748261617543778 -0.2575201499724984 -0.21798275399950845 -0.05003649573210092 -0.20157474495513025 0.6395665393555566 -0.2256407847653985 -0.02151987634964681 -0.1381921669334265 -0.45959831692660846 -0.02303117078785066 -0.24691460654251024 0.4678088777618588 1.3826780878843155 2.2322417919307425 1.3555118118821687 1.012188035880289 0.5154568186571251 0.01918300068635406 -2.212697294139912 0.18186132568660293 -0.9753873221121718 -0.1978116783682722 0.7417342085652581 -1.5789573887684614 0.04191823750034071 -0.45024618628774715 0.5696870407555996 -0.5066618460733144 -0.10036326901111102 1.0623258330769445 -0.785448361623757 1.0225403256488905 -0.8180548348048686 2.2013553867645315 0.7925813731241125 0.1229846059550527 1.2229745292416745 -0.18817132706503076 0.6243867462913246 1.8585134354950765 -0.5036510842714488 1.2909786651957895 0.2665256959052184 0.19099748365991623 1.2553035803916832 0.10499459713553531 0.38391146761625494 -1.5674545303351846 1.1023707648139724 0.33713461647203224 -1.382129671580013 -1.8659112706210446 0.715273186160252 0.14413398633915822 -0.9098820413205104 -0.953549400301474 0.2863460730652553 -0.5853972524020047 -1.970207813248291 -0.2299604951866749 -1.1167080073722508 0.11622568996466434 -0.4643792832550196 -0.02552308397176895 -0.9961186411222522 1.733591503307995 1.0314437987861074 1.1636717777162993 -0.46409209103190396 -1.1091330232384706 -1.5481604579922628 0.10951048272801785 -1.2409534823175983 0.4839682611305407 1.5245621018470326 -1.0693259185438615 0.04249982103542358 0.399269438129564 0.7422887955171474 0.7207506643350555 -0.983445673640274 -1.7121893834831352 -0.7727059743564241 1.0502246789380365 0.29508088183509185 -0.08732391932864962 -2.1163598584587424 0.23033870446170007 -1.2730071683190336 0.2321986404885743 -0.6234130695241458 -0.11384176311352007 -0.9275928283367122 0.2356896843609683 -1.0253479703010149 -1.1897437922130027 -1.6978320863201983 -1.271794378957855 0.47043166009668663 1.7356463289544946 0.6361397730621948 0.19479397458787098 0.17375566586033303 0.3758924539665204 -0.15596825996992492 0.14842592884629277 0.14212544054956167 -0.11615087086267094 -0.21604388510558278 1.5180546397458177 -0.8985059382730849 0.3854549008439749 0.5231811838845764 -0.2001639806505327 0.4454065988072587 0.28635378637473907 0.7055718997120881 0.8003743868059698 0.10365890904324727 -0.21799072441930845 1.267859819790139 -0.7129429953651787 0.05699107267306314 -0.5320653737480837 0.0022399450741122716 0.30127646912284245 -1.3426400981258233 -1.4589454922884872 0.18330885676640687 -0.6132476989553697 0.8318182071375481 -0.4698217944268296 0.26914307892340744 1.4635863334946086 -0.045907046944759645 1.1366988486718812 -0.4924688424023841 -0.20412039419511943 -0.9705485059626316 -1.0162442082275336 0.6514334659964716 0.9068784786074962 0.7476212634736543 0.2860555384080299 1.2496816062192158 0.1823385224333376 -0.16104027517619363 -0.5350087726471237 -1.088259779333887 -0.10667429883080339 1.172215296410936 0.0691279651459132 1.244570253134579 -0.18347597847189046 0.0060264086997380084 0.029613194880742547 -1.613189570478454 -0.8564280352664283 0.023375955721779095 -0.3513188783922143 0.309553364419654 0.7208666210876294 -1.519250202715816 0.7819490902212468 0.05982185725363891 -0.18189706402054479 0.055887298085923104 -0.09838043425312733 0.12424753182787635 0.4090496574447794 0.3465589951097257 0.9230720576482233 -0.4396599261314686 -0.3278405927646161 0.11377722842417178 -0.30116591168690715 0.46962947591036536 -0.39385135243778624 -0.7381392921251482 0.12450387081305654