An instance of this daemon is already running
An instance of this daemon is already running

     Program PWSCF v.7.1 starts on 11May2023 at 12:11:30 

     This program is part of the open-source Quantum ESPRESSO suite
     for quantum simulation of materials; please cite
         "P. Giannozzi et al., J. Phys.:Condens. Matter 21 395502 (2009);
         "P. Giannozzi et al., J. Phys.:Condens. Matter 29 465901 (2017);
         "P. Giannozzi et al., J. Chem. Phys. 152 154105 (2020);
          URL http://www.quantum-espresso.org", 
     in publications or presentations arising from this work. More details at
     http://www.quantum-espresso.org/quote

     Parallel version (MPI & OpenMP), running on       4 processor cores
     Number of MPI processes:                 4
     Threads/MPI process:                     1

     MPI processes distributed on     1 nodes
     636613 MiB available memory on the printing compute node when the environment starts
 
     Reading input from pw-si-56.in
Warning: card &CELL ignored
Warning: card / ignored

     Current dimensions of program PWSCF are:
     Max number of different atomic species (ntypx) = 10
     Max number of k-points (npk) =  40000
     Max angular momentum in pseudopotentials (lmaxx) =  4

     IMPORTANT: XC functional enforced from input :
     Exchange-correlation= PBE
                           (   1   4   3   4   0   0   0)
     Any further DFT definition will be discarded
     Please, verify this is what you really want


     gamma-point specific algorithms are used
 
     K-points division:     npool     =       2
     R & G space division:  proc/nbgrp/npool/nimage =       2
     Subspace diagonalization in iterative solution of the eigenvalue problem:
     a serial algorithm will be used

     Message from routine divide_et_impera:
     suboptimal parallelization: some nodes have no k-points
 
     Parallelization info
     --------------------
     sticks:   dense  smooth     PW     G-vecs:    dense   smooth      PW
     Min        1955    1955    520                92369    92369   12632
     Max        1962    1962    521                92370    92370   12637
     Sum        3917    3917   1041               184739   184739   25269
 
     Using Slab Decomposition
 


     bravais-lattice index     =            0
     lattice parameter (alat)  =      20.2763  a.u.
     unit-cell volume          =    8336.1537 (a.u.)^3
     number of atoms/cell      =           64
     number of atomic types    =            1
     number of electrons       =       256.00
     number of Kohn-Sham states=          154
     kinetic-energy cutoff     =      30.0000  Ry
     charge density cutoff     =     120.0000  Ry
     scf convergence threshold =      1.0E-06
     mixing beta               =       0.5000
     number of iterations used =            8  plain     mixing
     Exchange-correlation= PBE
                           (   1   4   3   4   0   0   0)

     GPU acceleration is ACTIVE.
     GPU-aware MPI enabled

     Message from routine print_cuda_info:
     High GPU oversubscription detected. Are you sure this is what you want?

     celldm(1)=  20.276294  celldm(2)=   0.000000  celldm(3)=   0.000000
     celldm(4)=   0.000000  celldm(5)=   0.000000  celldm(6)=   0.000000

     crystal axes: (cart. coord. in units of alat)
               a(1) = (   1.000000   0.000000   0.000000 )  
               a(2) = (   0.000000   1.000000   0.000000 )  
               a(3) = (   0.000000   0.000000   1.000000 )  

     reciprocal axes: (cart. coord. in units 2 pi/alat)
               b(1) = (  1.000000  0.000000  0.000000 )  
               b(2) = (  0.000000  1.000000  0.000000 )  
               b(3) = (  0.000000  0.000000  1.000000 )  


     PseudoPot. # 1 for Si read from file:
     /home/ppiaggi/pseudos/Si_ONCV_PBE_sr.upf
     MD5 check sum: 8553c464762ac42b85b1eed164b4d029
     Pseudo is Norm-conserving, Zval =  4.0
     Generated using ONCVPSP code by D. R. Hamann
     Using radial grid of 1510 points,  4 beta functions with: 
                l(1) =   0
                l(2) =   0
                l(3) =   1
                l(4) =   1

     atomic species   valence    mass     pseudopotential
        Si             4.00    28.08500     Si( 1.00)

     No symmetry found



   Cartesian axes

     site n.     atom                  positions (alat units)
         1           Si  tau(   1) = (   0.9653100   0.2568550   0.3300040  )
         2           Si  tau(   2) = (   0.2687880   0.2345260   0.6624350  )
         3           Si  tau(   3) = (   0.8049780   0.1622880   0.0325821  )
         4           Si  tau(   4) = (   0.4752640   0.8000180   0.1398670  )
         5           Si  tau(   5) = (   0.3114050   0.1099810   0.8347870  )
         6           Si  tau(   6) = (   0.3306530   0.0354911   0.1264400  )
         7           Si  tau(   7) = (   0.1649400   0.4389950   0.2712780  )
         8           Si  tau(   8) = (   0.5924980   0.0311487   0.1749300  )
         9           Si  tau(   9) = (   0.6925960   0.9047310   0.8919220  )
        10           Si  tau(  10) = (   0.1581800   0.0281896   0.5162450  )
        11           Si  tau(  11) = (   0.3197520   0.6405180   0.2646360  )
        12           Si  tau(  12) = (   0.9831430   0.5177590   0.0393459  )
        13           Si  tau(  13) = (   0.6828550   0.5741110   0.5797840  )
        14           Si  tau(  14) = (   0.7157740   0.2345930   0.4475500  )
        15           Si  tau(  15) = (   0.1203160   0.6916360   0.5852670  )
        16           Si  tau(  16) = (   0.4976980   0.5562620   0.4626360  )
        17           Si  tau(  17) = (   0.4277410   0.6784650   0.9511360  )
        18           Si  tau(  18) = (   0.9143360   0.2109620   0.8573160  )
        19           Si  tau(  19) = (   0.6190000   0.3284300   0.8917680  )
        20           Si  tau(  20) = (   0.2439740   0.5355770   0.9423300  )
        21           Si  tau(  21) = (   0.4726600   0.0160475   0.7500020  )
        22           Si  tau(  22) = (   0.9443540   0.7949910   0.6458480  )
        23           Si  tau(  23) = (   0.1027510   0.4760230   0.5267280  )
        24           Si  tau(  24) = (   0.7052710   0.6964130   0.1792780  )
        25           Si  tau(  25) = (   0.7999970   0.9532180   0.2369420  )
        26           Si  tau(  26) = (   0.8426520   0.5771740   0.4186990  )
        27           Si  tau(  27) = (   0.5854920   0.0219701   0.3960660  )
        28           Si  tau(  28) = (   0.9638040   0.9843420   0.3817560  )
        29           Si  tau(  29) = (   0.5540640   0.7405010   0.3314460  )
        30           Si  tau(  30) = (   0.7863160   0.9082310   0.4871430  )
        31           Si  tau(  31) = (   0.6367760   0.5612880   0.0274015  )
        32           Si  tau(  32) = (   0.9309190   0.6809690   0.2323580  )
        33           Si  tau(  33) = (   0.1603510   0.7543870   0.9589760  )
        34           Si  tau(  34) = (   0.0223231   0.5968690   0.7621150  )
        35           Si  tau(  35) = (   0.4790970   0.7273870   0.5865300  )
        36           Si  tau(  36) = (   0.3779040   0.9732950   0.3392240  )
        37           Si  tau(  37) = (   0.1387570   0.9749790   0.9267800  )
        38           Si  tau(  38) = (   0.2874670   0.8446370   0.5161200  )
        39           Si  tau(  39) = (   0.3631340   0.8198650   0.7729870  )
        40           Si  tau(  40) = (   0.2454620   0.2156590   0.3576630  )
        41           Si  tau(  41) = (   0.8613620   0.9314840   0.0194331  )
        42           Si  tau(  42) = (   0.6236500   0.9204800   0.5934800  )
        43           Si  tau(  43) = (   0.3551550   0.2632600   0.0476401  )
        44           Si  tau(  44) = (   0.9789200   0.2778230   0.0939582  )
        45           Si  tau(  45) = (   0.0331923   0.9051400   0.1668400  )
        46           Si  tau(  46) = (   0.9396230   0.1926260   0.5416240  )
        47           Si  tau(  47) = (   0.4921330   0.1523280   0.5576630  )
        48           Si  tau(  48) = (   0.4570940   0.1884820   0.2770760  )
        49           Si  tau(  49) = (   0.5239850   0.5094890   0.7875330  )
        50           Si  tau(  50) = (   0.1154130   0.6738320   0.3545290  )
        51           Si  tau(  51) = (   0.3548430   0.4802310   0.6360880  )
        52           Si  tau(  52) = (   0.7343400   0.0809442   0.7792970  )
        53           Si  tau(  53) = (   0.8578550   0.6854750   0.9970920  )
        54           Si  tau(  54) = (   0.4997560   0.0485700   0.9945060  )
        55           Si  tau(  55) = (   0.2380340   0.8292810   0.1456100  )
        56           Si  tau(  56) = (   0.1073950   0.3697740   0.9118740  )
        57           Si  tau(  57) = (   0.6299260   0.6760790   0.8122900  )
        58           Si  tau(  58) = (   0.5603790   0.3810010   0.1321950  )
        59           Si  tau(  59) = (   0.0174474   0.9969600   0.6964030  )
        60           Si  tau(  60) = (   0.0777695   0.2706520   0.7092570  )
        61           Si  tau(  61) = (   0.0859884   0.1216400   0.1950070  )
        62           Si  tau(  62) = (   0.5622660   0.3693460   0.3552230  )
        63           Si  tau(  63) = (   0.7926410   0.4155620   0.7842790  )
        64           Si  tau(  64) = (   0.8443100   0.4296770   0.5926730  )

     number of k points=     1  Fermi-Dirac smearing, width (Ry)=  0.0100
                       cart. coord. in units 2pi/alat
        k(    1) = (   0.0000000   0.0000000   0.0000000), wk =   2.0000000

     Dense  grid:    92370 G-vectors     FFT dimensions: (  72,  72,  72)

     Estimated max dynamical RAM per process >     148.17 MB

     Estimated total dynamical RAM >     570.12 MB

     Initial potential from superposition of free atoms

     starting charge     255.9608, renormalised to     256.0000
     Starting wfcs are  256 randomized atomic wfcs

     total cpu time spent up to now is        4.5 secs

     Self-consistent Calculation

     iteration #  1     ecut=    30.00 Ry     beta= 0.50
     Davidson diagonalization with overlap
     ethr =  1.00E-02,  avg # of iterations =  3.0

     Threshold (ethr) on eigenvalues was too large:
     Diagonalizing with lowered threshold

     Davidson diagonalization with overlap
     ethr =  6.23E-04,  avg # of iterations =  4.0

     total cpu time spent up to now is        4.7 secs

     total energy              =    -500.21454779 Ry
     estimated scf accuracy    <       2.04347013 Ry

     iteration #  2     ecut=    30.00 Ry     beta= 0.50
     Davidson diagonalization with overlap
     ethr =  7.98E-04,  avg # of iterations =  5.0

     total cpu time spent up to now is        4.8 secs

     total energy              =    -498.91735501 Ry
     estimated scf accuracy    <      20.17478965 Ry

     iteration #  3     ecut=    30.00 Ry     beta= 0.50
     Davidson diagonalization with overlap
     ethr =  7.98E-04,  avg # of iterations =  4.0

     total cpu time spent up to now is        4.9 secs

     total energy              =    -500.59159137 Ry
     estimated scf accuracy    <       2.59026396 Ry

     iteration #  4     ecut=    30.00 Ry     beta= 0.50
     Davidson diagonalization with overlap
     ethr =  7.98E-04,  avg # of iterations =  2.0

     total cpu time spent up to now is        5.0 secs

     total energy              =    -500.74070330 Ry
     estimated scf accuracy    <       1.11269329 Ry

     iteration #  5     ecut=    30.00 Ry     beta= 0.50
     Davidson diagonalization with overlap
     ethr =  4.35E-04,  avg # of iterations =  2.0

     total cpu time spent up to now is        5.1 secs

     total energy              =    -500.81060978 Ry
     estimated scf accuracy    <       0.71010827 Ry

     iteration #  6     ecut=    30.00 Ry     beta= 0.50
     Davidson diagonalization with overlap
     ethr =  2.77E-04,  avg # of iterations =  2.0

     total cpu time spent up to now is        5.2 secs

     total energy              =    -500.87384690 Ry
     estimated scf accuracy    <       0.06234389 Ry

     iteration #  7     ecut=    30.00 Ry     beta= 0.50
     Davidson diagonalization with overlap
     c_bands:  1 eigenvalues not converged
     ethr =  2.44E-05,  avg # of iterations = 20.0

     total cpu time spent up to now is        5.4 secs

     total energy              =    -500.87811769 Ry
     estimated scf accuracy    <       0.09037824 Ry

     iteration #  8     ecut=    30.00 Ry     beta= 0.50
     Davidson diagonalization with overlap
     ethr =  2.44E-05,  avg # of iterations = 10.0

     total cpu time spent up to now is        5.5 secs

     total energy              =    -500.88677803 Ry
     estimated scf accuracy    <       0.01697735 Ry

     iteration #  9     ecut=    30.00 Ry     beta= 0.50
     Davidson diagonalization with overlap
     ethr =  6.63E-06,  avg # of iterations =  2.0

     total cpu time spent up to now is        5.6 secs

     total energy              =    -500.88801294 Ry
     estimated scf accuracy    <       0.00334732 Ry

     iteration # 10     ecut=    30.00 Ry     beta= 0.50
     Davidson diagonalization with overlap
     ethr =  1.31E-06,  avg # of iterations = 11.0

     total cpu time spent up to now is        5.8 secs

     total energy              =    -500.88828332 Ry
     estimated scf accuracy    <       0.00369964 Ry

     iteration # 11     ecut=    30.00 Ry     beta= 0.50
     Davidson diagonalization with overlap
     ethr =  1.31E-06,  avg # of iterations =  2.0

     total cpu time spent up to now is        5.8 secs

     total energy              =    -500.88855280 Ry
     estimated scf accuracy    <       0.00054436 Ry

     iteration # 12     ecut=    30.00 Ry     beta= 0.50
     Davidson diagonalization with overlap
     ethr =  2.13E-07,  avg # of iterations =  4.0

     total cpu time spent up to now is        5.9 secs

     total energy              =    -500.88860791 Ry
     estimated scf accuracy    <       0.00074864 Ry

     iteration # 13     ecut=    30.00 Ry     beta= 0.50
     Davidson diagonalization with overlap
     ethr =  2.13E-07,  avg # of iterations =  2.0

     total cpu time spent up to now is        6.0 secs

     total energy              =    -500.88865710 Ry
     estimated scf accuracy    <       0.00034583 Ry

     iteration # 14     ecut=    30.00 Ry     beta= 0.50
     Davidson diagonalization with overlap
     ethr =  1.35E-07,  avg # of iterations =  2.0

     total cpu time spent up to now is        6.1 secs

     total energy              =    -500.88867893 Ry
     estimated scf accuracy    <       0.00006838 Ry

     iteration # 15     ecut=    30.00 Ry     beta= 0.50
     Davidson diagonalization with overlap
     ethr =  2.67E-08,  avg # of iterations =  3.0

     total cpu time spent up to now is        6.2 secs

     total energy              =    -500.88868610 Ry
     estimated scf accuracy    <       0.00007044 Ry

     iteration # 16     ecut=    30.00 Ry     beta= 0.50
     Davidson diagonalization with overlap
     ethr =  2.67E-08,  avg # of iterations =  2.0

     total cpu time spent up to now is        6.3 secs

     total energy              =    -500.88869006 Ry
     estimated scf accuracy    <       0.00002385 Ry

     iteration # 17     ecut=    30.00 Ry     beta= 0.50
     Davidson diagonalization with overlap
     ethr =  9.32E-09,  avg # of iterations =  2.0

     total cpu time spent up to now is        6.4 secs

     total energy              =    -500.88869199 Ry
     estimated scf accuracy    <       0.00000920 Ry

     iteration # 18     ecut=    30.00 Ry     beta= 0.50
     Davidson diagonalization with overlap
     ethr =  3.60E-09,  avg # of iterations =  2.0

     total cpu time spent up to now is        6.5 secs

     total energy              =    -500.88869285 Ry
     estimated scf accuracy    <       0.00000206 Ry

     iteration # 19     ecut=    30.00 Ry     beta= 0.50
     Davidson diagonalization with overlap
     ethr =  8.05E-10,  avg # of iterations =  3.0

     total cpu time spent up to now is        6.5 secs

     total energy              =    -500.88869284 Ry
     estimated scf accuracy    <       0.00000248 Ry

     iteration # 20     ecut=    30.00 Ry     beta= 0.50
     Davidson diagonalization with overlap
     ethr =  8.05E-10,  avg # of iterations =  2.0

     total cpu time spent up to now is        6.6 secs

     End of self-consistent calculation

          k = 0.0000 0.0000 0.0000 ( 11516 PWs)   bands (ev):

    -6.0338  -5.2891  -5.0663  -4.8320  -4.6572  -4.5535  -4.3848  -4.1574
    -3.9852  -3.9497  -3.7753  -3.7205  -3.6689  -3.4053  -3.3288  -3.1927
    -3.0651  -2.9967  -2.8113  -2.5873  -2.3733  -2.2843  -2.1804  -1.9521
    -1.8154  -1.6805  -1.4957  -1.4364  -1.2481  -1.1270  -1.0911  -0.9056
    -0.8333  -0.6822  -0.6171  -0.3803  -0.3129  -0.2286  -0.1193  -0.0633
    -0.0387  -0.0095   0.0479   0.1179   0.3432   0.4391   0.5349   0.6971
     0.8475   0.9290   0.9946   1.0080   1.0722   1.1116   1.2260   1.3316
     1.4993   1.5864   1.6841   1.8090   1.8638   1.9002   2.0185   2.0998
     2.2359   2.4080   2.4309   2.4989   2.6334   2.7352   2.7578   2.8842
     2.9435   3.0565   3.0659   3.1992   3.3242   3.4591   3.5295   3.6285
     3.7041   3.7898   3.8546   3.9159   4.0550   4.1433   4.2259   4.3915
     4.4509   4.5115   4.5839   4.6082   4.7242   4.7395   4.8368   4.8681
     4.9151   5.0451   5.0837   5.1561   5.2183   5.2437   5.2881   5.3403
     5.4209   5.4270   5.4593   5.6015   5.6285   5.7055   5.7406   5.8622
     5.9107   5.9719   6.0081   6.0496   6.1192   6.2217   6.2880   6.3124
     6.3589   6.4533   6.5112   6.5467   6.6221   6.6582   6.7169   6.8044
     6.8130   6.8709   6.9399   7.0288   7.0446   7.1462   7.2272   7.2732
     7.3284   7.3624   7.4184   7.4876   7.5350   7.6080   7.6735   7.7252
     7.8763   7.9252   7.9936   8.0372   8.0733   8.1812   8.1939   8.2709
     8.2755   8.3649

     the Fermi energy is     6.8086 ev

!    total energy              =    -500.88869266 Ry
     estimated scf accuracy    <       0.00000063 Ry
     smearing contrib. (-TS)   =      -0.15429601 Ry
     internal energy E=F+TS    =    -500.73439664 Ry

     The total energy is F=E-TS. E is the sum of the following terms:
     one-electron contribution =     152.62607942 Ry
     hartree contribution      =      38.82099296 Ry
     xc contribution           =    -151.21666370 Ry
     ewald contribution        =    -540.96480533 Ry

     convergence has been achieved in  20 iterations

     Forces acting on atoms (cartesian axes, Ry/au):

     atom    1 type  1   force =    -0.00160209   -0.00020835    0.01926976
     atom    2 type  1   force =     0.10560652    0.00199727   -0.06132603
     atom    3 type  1   force =    -0.05991041   -0.04248591    0.01667129
     atom    4 type  1   force =     0.00070979    0.01628761   -0.03028447
     atom    5 type  1   force =    -0.04953257    0.02083798    0.07224748
     atom    6 type  1   force =    -0.03517634   -0.00608583    0.01272011
     atom    7 type  1   force =    -0.00620274    0.00786870    0.02128786
     atom    8 type  1   force =     0.04436238    0.00558526    0.02695440
     atom    9 type  1   force =    -0.05999264   -0.02791687   -0.00010524
     atom   10 type  1   force =     0.00504947    0.02149868    0.00333011
     atom   11 type  1   force =     0.01042483   -0.01434293    0.00210401
     atom   12 type  1   force =     0.02892048   -0.04192269    0.03935544
     atom   13 type  1   force =     0.01440409    0.03784512    0.02285159
     atom   14 type  1   force =     0.00590739   -0.01092689    0.00600144
     atom   15 type  1   force =     0.04839417    0.02954617   -0.05435703
     atom   16 type  1   force =    -0.03608470   -0.02850708   -0.04373649
     atom   17 type  1   force =     0.00172274   -0.00381993   -0.01642995
     atom   18 type  1   force =    -0.00465632    0.01941657   -0.05493496
     atom   19 type  1   force =    -0.00141448   -0.01048845    0.03156298
     atom   20 type  1   force =     0.01236035    0.03074285   -0.00742595
     atom   21 type  1   force =     0.07140122   -0.03878611   -0.02006500
     atom   22 type  1   force =    -0.03687213    0.00722025   -0.00616848
     atom   23 type  1   force =     0.00621553   -0.00729770   -0.00909028
     atom   24 type  1   force =     0.04276979    0.03725717    0.02694758
     atom   25 type  1   force =    -0.03914186   -0.02290125   -0.01146537
     atom   26 type  1   force =    -0.00557826   -0.00020325   -0.00843966
     atom   27 type  1   force =     0.02989806    0.01228340    0.02655514
     atom   28 type  1   force =     0.02783080    0.03714120    0.00269857
     atom   29 type  1   force =    -0.00296112   -0.00881443    0.04670875
     atom   30 type  1   force =     0.11475015   -0.03030715   -0.05889366
     atom   31 type  1   force =    -0.01352353    0.00184793   -0.02207481
     atom   32 type  1   force =    -0.02014333   -0.00232516   -0.03024183
     atom   33 type  1   force =     0.00773021   -0.01969988   -0.03839213
     atom   34 type  1   force =    -0.02140938   -0.00785024    0.03435638
     atom   35 type  1   force =    -0.00564153    0.07823898    0.04076240
     atom   36 type  1   force =    -0.02264955   -0.01115115    0.00534367
     atom   37 type  1   force =    -0.01010115    0.00920365   -0.03952955
     atom   38 type  1   force =     0.00112387   -0.01424306    0.00852592
     atom   39 type  1   force =     0.00615087   -0.01630897    0.00266395
     atom   40 type  1   force =    -0.02753987   -0.01613571    0.00044402
     atom   41 type  1   force =     0.02981606    0.01554960    0.02295231
     atom   42 type  1   force =    -0.12527164    0.00123412    0.07410435
     atom   43 type  1   force =     0.02341455   -0.00871002    0.00213879
     atom   44 type  1   force =     0.01712659    0.05150390   -0.01699434
     atom   45 type  1   force =    -0.01097813   -0.01070352    0.00470413
     atom   46 type  1   force =    -0.02358829   -0.01387571   -0.00088513
     atom   47 type  1   force =    -0.00194231   -0.00615444    0.00862948
     atom   48 type  1   force =    -0.00798487    0.01317643   -0.00977679
     atom   49 type  1   force =    -0.08220614   -0.09314423   -0.01131626
     atom   50 type  1   force =     0.01175242   -0.02084319    0.03800338
     atom   51 type  1   force =    -0.02527691   -0.00815128    0.01048843
     atom   52 type  1   force =     0.00180110    0.03287833   -0.03517986
     atom   53 type  1   force =    -0.02579057    0.02263969   -0.00554522
     atom   54 type  1   force =    -0.00807363   -0.00095764   -0.08475939
     atom   55 type  1   force =     0.00943963   -0.01237549    0.01608675
     atom   56 type  1   force =    -0.00715258   -0.00248149   -0.00011340
     atom   57 type  1   force =     0.05107856    0.09396201   -0.00253717
     atom   58 type  1   force =    -0.01815823   -0.02151380   -0.03531635
     atom   59 type  1   force =     0.01043416    0.02549982    0.03016033
     atom   60 type  1   force =    -0.08936126    0.02483220    0.01767227
     atom   61 type  1   force =     0.04715373   -0.01071310    0.02060357
     atom   62 type  1   force =     0.01655292   -0.01410124   -0.00799296
     atom   63 type  1   force =     0.02151978   -0.01400898    0.10224272
     atom   64 type  1   force =     0.06009641   -0.03563175   -0.09377163

     Total force =     0.478465     Total SCF correction =     0.001572


     Computing stress (Cartesian axis) and pressure

          total   stress  (Ry/bohr**3)                   (kbar)     P=       -3.23
   0.00002302  -0.00006712  -0.00003929            3.39       -9.87       -5.78
  -0.00006712  -0.00021046   0.00003913           -9.87      -30.96        5.76
  -0.00003929   0.00003913   0.00012159           -5.78        5.76       17.89

 
     init_run     :      0.95s CPU      4.44s WALL (       1 calls)
     electrons    :      1.94s CPU      2.12s WALL (       1 calls)
     forces       :      0.03s CPU      0.03s WALL (       1 calls)
     stress       :      0.14s CPU      0.14s WALL (       1 calls)

     Called by init_run:
     wfcinit      :      0.44s CPU      3.77s WALL (       1 calls)
                                        3.77s GPU  (       1 calls)
     potinit      :      0.04s CPU      0.13s WALL (       1 calls)
     hinit0       :      0.45s CPU      0.48s WALL (       1 calls)

     Called by electrons:
     c_bands      :      1.26s CPU      1.35s WALL (      21 calls)
     sum_band     :      0.35s CPU      0.40s WALL (      21 calls)
     v_of_rho     :      0.14s CPU      0.24s WALL (      21 calls)
     mix_rho      :      0.15s CPU      0.17s WALL (      21 calls)

     Called by c_bands:
     init_us_2    :      0.05s CPU      0.06s WALL (      43 calls)
     init_us_2:gp :      0.05s CPU      0.06s WALL (      43 calls)
     regterg      :      1.11s CPU      1.19s WALL (      21 calls)

     Called by *egterg:
     rdiaghg      :      0.48s CPU      1.17s WALL (     109 calls)
                                        1.15s GPU  (     109 calls)
     h_psi        :      0.89s CPU      3.59s WALL (     111 calls)
                                        3.59s GPU  (     111 calls)
     g_psi        :      0.00s CPU      0.00s WALL (      89 calls)
                                        0.00s GPU  (      89 calls)

     Called by h_psi:
     h_psi:calbec :      0.43s CPU      3.06s WALL (     111 calls)
                                        3.06s GPU  (     111 calls)
     vloc_psi     :      0.39s CPU      0.46s WALL (     111 calls)
                                        0.45s GPU  (     111 calls)
     add_vuspsi   :      0.05s CPU      0.06s WALL (     111 calls)
                                        0.06s GPU  (     111 calls)

     General routines
     calbec       :      0.44s CPU      3.06s WALL (     116 calls)
     fft          :      0.56s CPU      0.69s WALL (     175 calls)
                                        0.12s GPU  (     111 calls)
     ffts         :      0.04s CPU      0.04s WALL (      21 calls)
     fftw         :      0.48s CPU      0.63s WALL (    2243 calls)
                                        0.55s GPU  (    2243 calls)
 
     Parallel routines
 
     PWSCF        :      3.09s CPU      6.81s WALL

 
   This run was terminated on:  12:11:37  11May2023            

=------------------------------------------------------------------------------=
   JOB DONE.
=------------------------------------------------------------------------------=
