An instance of this daemon is already running

     Program PWSCF v.7.1 starts on 11May2023 at 12:12:41 

     This program is part of the open-source Quantum ESPRESSO suite
     for quantum simulation of materials; please cite
         "P. Giannozzi et al., J. Phys.:Condens. Matter 21 395502 (2009);
         "P. Giannozzi et al., J. Phys.:Condens. Matter 29 465901 (2017);
         "P. Giannozzi et al., J. Chem. Phys. 152 154105 (2020);
          URL http://www.quantum-espresso.org", 
     in publications or presentations arising from this work. More details at
     http://www.quantum-espresso.org/quote

     Parallel version (MPI & OpenMP), running on       4 processor cores
     Number of MPI processes:                 4
     Threads/MPI process:                     1

     MPI processes distributed on     1 nodes
     636733 MiB available memory on the printing compute node when the environment starts
 
     Reading input from pw-si-64.in
Warning: card &CELL ignored
Warning: card / ignored

     Current dimensions of program PWSCF are:
     Max number of different atomic species (ntypx) = 10
     Max number of k-points (npk) =  40000
     Max angular momentum in pseudopotentials (lmaxx) =  4

     IMPORTANT: XC functional enforced from input :
     Exchange-correlation= PBE
                           (   1   4   3   4   0   0   0)
     Any further DFT definition will be discarded
     Please, verify this is what you really want


     gamma-point specific algorithms are used
 
     K-points division:     npool     =       2
     R & G space division:  proc/nbgrp/npool/nimage =       2
     Subspace diagonalization in iterative solution of the eigenvalue problem:
     a serial algorithm will be used

     Message from routine divide_et_impera:
     suboptimal parallelization: some nodes have no k-points
 
     Parallelization info
     --------------------
     sticks:   dense  smooth     PW     G-vecs:    dense   smooth      PW
     Min        1945    1945    516                91383    91383   12416
     Max        1948    1948    517                91388    91388   12421
     Sum        3893    3893   1033               182771   182771   24837
 
     Using Slab Decomposition
 


     bravais-lattice index     =            0
     lattice parameter (alat)  =      20.1895  a.u.
     unit-cell volume          =    8229.5923 (a.u.)^3
     number of atoms/cell      =           64
     number of atomic types    =            1
     number of electrons       =       256.00
     number of Kohn-Sham states=          154
     kinetic-energy cutoff     =      30.0000  Ry
     charge density cutoff     =     120.0000  Ry
     scf convergence threshold =      1.0E-06
     mixing beta               =       0.5000
     number of iterations used =            8  plain     mixing
     Exchange-correlation= PBE
                           (   1   4   3   4   0   0   0)

     GPU acceleration is ACTIVE.
     GPU-aware MPI enabled

     Message from routine print_cuda_info:
     High GPU oversubscription detected. Are you sure this is what you want?

     celldm(1)=  20.189525  celldm(2)=   0.000000  celldm(3)=   0.000000
     celldm(4)=   0.000000  celldm(5)=   0.000000  celldm(6)=   0.000000

     crystal axes: (cart. coord. in units of alat)
               a(1) = (   1.000000   0.000000   0.000000 )  
               a(2) = (   0.000000   1.000000   0.000000 )  
               a(3) = (   0.000000   0.000000   1.000000 )  

     reciprocal axes: (cart. coord. in units 2 pi/alat)
               b(1) = (  1.000000  0.000000  0.000000 )  
               b(2) = (  0.000000  1.000000  0.000000 )  
               b(3) = (  0.000000  0.000000  1.000000 )  


     PseudoPot. # 1 for Si read from file:
     /home/ppiaggi/pseudos/Si_ONCV_PBE_sr.upf
     MD5 check sum: 8553c464762ac42b85b1eed164b4d029
     Pseudo is Norm-conserving, Zval =  4.0
     Generated using ONCVPSP code by D. R. Hamann
     Using radial grid of 1510 points,  4 beta functions with: 
                l(1) =   0
                l(2) =   0
                l(3) =   1
                l(4) =   1

     atomic species   valence    mass     pseudopotential
        Si             4.00    28.08500     Si( 1.00)

     No symmetry found



   Cartesian axes

     site n.     atom                  positions (alat units)
         1           Si  tau(   1) = (   0.0531063   0.3106900   0.3474060  )
         2           Si  tau(   2) = (   0.3426250   0.2389560   0.6506710  )
         3           Si  tau(   3) = (   0.7734630   0.1246100   0.0492866  )
         4           Si  tau(   4) = (   0.4567520   0.8019880   0.1589090  )
         5           Si  tau(   5) = (   0.2233650   0.1731940   0.8282590  )
         6           Si  tau(   6) = (   0.1975300   0.0766174   0.0546285  )
         7           Si  tau(   7) = (   0.1639600   0.4684160   0.2828690  )
         8           Si  tau(   8) = (   0.5400450   0.0207322   0.1978620  )
         9           Si  tau(   9) = (   0.7380790   0.8537790   0.9164020  )
        10           Si  tau(  10) = (   0.1242270   0.1043870   0.5441740  )
        11           Si  tau(  11) = (   0.3440980   0.5933800   0.1901390  )
        12           Si  tau(  12) = (   0.0642706   0.5390990   0.0773251  )
        13           Si  tau(  13) = (   0.7176180   0.5757470   0.5785730  )
        14           Si  tau(  14) = (   0.6857400   0.2357250   0.5053310  )
        15           Si  tau(  15) = (   0.1629240   0.7087620   0.5351600  )
        16           Si  tau(  16) = (   0.4013150   0.6011950   0.4186270  )
        17           Si  tau(  17) = (   0.5172660   0.6015830   0.9284610  )
        18           Si  tau(  18) = (   0.9161600   0.1628570   0.8478710  )
        19           Si  tau(  19) = (   0.5933560   0.2784300   0.9724430  )
        20           Si  tau(  20) = (   0.2504970   0.5572030   0.8851540  )
        21           Si  tau(  21) = (   0.4090220   0.9963970   0.8041650  )
        22           Si  tau(  22) = (   0.9688460   0.7741490   0.6574220  )
        23           Si  tau(  23) = (   0.1880680   0.4633150   0.5286120  )
        24           Si  tau(  24) = (   0.7030840   0.7724490   0.1520330  )
        25           Si  tau(  25) = (   0.7773080   0.9621150   0.2941410  )
        26           Si  tau(  26) = (   0.8790530   0.6218490   0.4418150  )
        27           Si  tau(  27) = (   0.6537600   0.9645680   0.4939220  )
        28           Si  tau(  28) = (   0.9780280   0.9938840   0.3976530  )
        29           Si  tau(  29) = (   0.5591160   0.7728360   0.3492090  )
        30           Si  tau(  30) = (   0.7840420   0.7959800   0.4795760  )
        31           Si  tau(  31) = (   0.7232970   0.5680540   0.0337936  )
        32           Si  tau(  32) = (   0.8926790   0.6223610   0.1846740  )
        33           Si  tau(  33) = (   0.1648280   0.8211850   0.9420820  )
        34           Si  tau(  34) = (   0.0896072   0.5818510   0.6965140  )
        35           Si  tau(  35) = (   0.4265650   0.7642210   0.6110320  )
        36           Si  tau(  36) = (   0.3843560   0.0298750   0.3607440  )
        37           Si  tau(  37) = (   0.0565662   0.9933780   0.9009990  )
        38           Si  tau(  38) = (   0.2972880   0.8938130   0.4966220  )
        39           Si  tau(  39) = (   0.3503260   0.7603780   0.8295640  )
        40           Si  tau(  40) = (   0.2335690   0.1915120   0.3174650  )
        41           Si  tau(  41) = (   0.8962780   0.9060230   0.0286447  )
        42           Si  tau(  42) = (   0.6383840   0.9080720   0.7068830  )
        43           Si  tau(  43) = (   0.3652730   0.2592530   0.9894230  )
        44           Si  tau(  44) = (   0.9603970   0.3162470   0.1103730  )
        45           Si  tau(  45) = (   0.9733990   0.8377720   0.2148080  )
        46           Si  tau(  46) = (   0.8997880   0.1854550   0.5018610  )
        47           Si  tau(  47) = (   0.5288870   0.1399620   0.6142880  )
        48           Si  tau(  48) = (   0.4872430   0.2124040   0.2979510  )
        49           Si  tau(  49) = (   0.5090490   0.4321790   0.7618880  )
        50           Si  tau(  50) = (   0.1017040   0.7126700   0.3205600  )
        51           Si  tau(  51) = (   0.3936000   0.4526430   0.5780860  )
        52           Si  tau(  52) = (   0.6776830   0.1186570   0.7854970  )
        53           Si  tau(  53) = (   0.8569550   0.6669240   0.8548490  )
        54           Si  tau(  54) = (   0.5412560   0.9088010   0.9940810  )
        55           Si  tau(  55) = (   0.2234610   0.8235350   0.1673600  )
        56           Si  tau(  56) = (   0.1310170   0.3532350   0.9033300  )
        57           Si  tau(  57) = (   0.6315140   0.6989250   0.7520220  )
        58           Si  tau(  58) = (   0.4937090   0.4510520   0.1612020  )
        59           Si  tau(  59) = (   0.9729320   0.9801690   0.6864500  )
        60           Si  tau(  60) = (   0.0536051   0.3179100   0.6838940  )
        61           Si  tau(  61) = (   0.0704025   0.1006790   0.2160580  )
        62           Si  tau(  62) = (   0.6006490   0.4123920   0.3681840  )
        63           Si  tau(  63) = (   0.7256330   0.4607660   0.8262300  )
        64           Si  tau(  64) = (   0.9136040   0.4316730   0.5523850  )

     number of k points=     1  Fermi-Dirac smearing, width (Ry)=  0.0100
                       cart. coord. in units 2pi/alat
        k(    1) = (   0.0000000   0.0000000   0.0000000), wk =   2.0000000

     Dense  grid:    91386 G-vectors     FFT dimensions: (  72,  72,  72)

     Estimated max dynamical RAM per process >     146.52 MB

     Estimated total dynamical RAM >     563.75 MB

     Initial potential from superposition of free atoms

     starting charge     255.9608, renormalised to     256.0000
     Starting wfcs are  256 randomized atomic wfcs

     total cpu time spent up to now is        4.5 secs

     Self-consistent Calculation

     iteration #  1     ecut=    30.00 Ry     beta= 0.50
     Davidson diagonalization with overlap
     ethr =  1.00E-02,  avg # of iterations =  3.0

     Threshold (ethr) on eigenvalues was too large:
     Diagonalizing with lowered threshold

     Davidson diagonalization with overlap
     ethr =  6.14E-04,  avg # of iterations =  4.0

     total cpu time spent up to now is        4.7 secs

     total energy              =    -500.24059113 Ry
     estimated scf accuracy    <       1.99154524 Ry

     iteration #  2     ecut=    30.00 Ry     beta= 0.50
     Davidson diagonalization with overlap
     ethr =  7.78E-04,  avg # of iterations =  5.0

     total cpu time spent up to now is        4.8 secs

     total energy              =    -499.08075697 Ry
     estimated scf accuracy    <      19.10274890 Ry

     iteration #  3     ecut=    30.00 Ry     beta= 0.50
     Davidson diagonalization with overlap
     ethr =  7.78E-04,  avg # of iterations =  4.0

     total cpu time spent up to now is        4.9 secs

     total energy              =    -500.66213853 Ry
     estimated scf accuracy    <       2.08590895 Ry

     iteration #  4     ecut=    30.00 Ry     beta= 0.50
     Davidson diagonalization with overlap
     ethr =  7.78E-04,  avg # of iterations =  2.0

     total cpu time spent up to now is        5.0 secs

     total energy              =    -500.83261443 Ry
     estimated scf accuracy    <       0.68731464 Ry

     iteration #  5     ecut=    30.00 Ry     beta= 0.50
     Davidson diagonalization with overlap
     ethr =  2.68E-04,  avg # of iterations =  2.0

     total cpu time spent up to now is        5.1 secs

     total energy              =    -500.85702399 Ry
     estimated scf accuracy    <       0.73385357 Ry

     iteration #  6     ecut=    30.00 Ry     beta= 0.50
     Davidson diagonalization with overlap
     ethr =  2.68E-04,  avg # of iterations =  2.0

     total cpu time spent up to now is        5.2 secs

     total energy              =    -500.91706112 Ry
     estimated scf accuracy    <       0.07562007 Ry

     iteration #  7     ecut=    30.00 Ry     beta= 0.50
     Davidson diagonalization with overlap
     ethr =  2.95E-05,  avg # of iterations = 16.0

     total cpu time spent up to now is        5.3 secs

     total energy              =    -500.92565568 Ry
     estimated scf accuracy    <       0.06333929 Ry

     iteration #  8     ecut=    30.00 Ry     beta= 0.50
     Davidson diagonalization with overlap
     ethr =  2.47E-05,  avg # of iterations =  2.0

     total cpu time spent up to now is        5.4 secs

     total energy              =    -500.93146402 Ry
     estimated scf accuracy    <       0.02194039 Ry

     iteration #  9     ecut=    30.00 Ry     beta= 0.50
     Davidson diagonalization with overlap
     ethr =  8.57E-06,  avg # of iterations =  2.0

     total cpu time spent up to now is        5.5 secs

     total energy              =    -500.93332167 Ry
     estimated scf accuracy    <       0.00339313 Ry

     iteration # 10     ecut=    30.00 Ry     beta= 0.50
     Davidson diagonalization with overlap
     ethr =  1.33E-06,  avg # of iterations = 11.0

     total cpu time spent up to now is        5.7 secs

     total energy              =    -500.93351237 Ry
     estimated scf accuracy    <       0.00575798 Ry

     iteration # 11     ecut=    30.00 Ry     beta= 0.50
     Davidson diagonalization with overlap
     ethr =  1.33E-06,  avg # of iterations =  2.0

     total cpu time spent up to now is        5.7 secs

     total energy              =    -500.93393231 Ry
     estimated scf accuracy    <       0.00065095 Ry

     iteration # 12     ecut=    30.00 Ry     beta= 0.50
     Davidson diagonalization with overlap
     ethr =  2.54E-07,  avg # of iterations =  3.0

     total cpu time spent up to now is        5.8 secs

     total energy              =    -500.93399077 Ry
     estimated scf accuracy    <       0.00047980 Ry

     iteration # 13     ecut=    30.00 Ry     beta= 0.50
     Davidson diagonalization with overlap
     ethr =  1.87E-07,  avg # of iterations =  2.0

     total cpu time spent up to now is        5.9 secs

     total energy              =    -500.93402338 Ry
     estimated scf accuracy    <       0.00051672 Ry

     iteration # 14     ecut=    30.00 Ry     beta= 0.50
     Davidson diagonalization with overlap
     ethr =  1.87E-07,  avg # of iterations =  1.0

     total cpu time spent up to now is        6.0 secs

     total energy              =    -500.93405638 Ry
     estimated scf accuracy    <       0.00003763 Ry

     iteration # 15     ecut=    30.00 Ry     beta= 0.50
     Davidson diagonalization with overlap
     ethr =  1.47E-08,  avg # of iterations =  4.0

     total cpu time spent up to now is        6.1 secs

     total energy              =    -500.93406334 Ry
     estimated scf accuracy    <       0.00003197 Ry

     iteration # 16     ecut=    30.00 Ry     beta= 0.50
     Davidson diagonalization with overlap
     ethr =  1.25E-08,  avg # of iterations =  2.0

     total cpu time spent up to now is        6.2 secs

     total energy              =    -500.93406546 Ry
     estimated scf accuracy    <       0.00002295 Ry

     iteration # 17     ecut=    30.00 Ry     beta= 0.50
     Davidson diagonalization with overlap
     ethr =  8.96E-09,  avg # of iterations =  2.0

     total cpu time spent up to now is        6.3 secs

     total energy              =    -500.93406649 Ry
     estimated scf accuracy    <       0.00000788 Ry

     iteration # 18     ecut=    30.00 Ry     beta= 0.50
     Davidson diagonalization with overlap
     ethr =  3.08E-09,  avg # of iterations =  2.0

     total cpu time spent up to now is        6.3 secs

     total energy              =    -500.93406730 Ry
     estimated scf accuracy    <       0.00000460 Ry

     iteration # 19     ecut=    30.00 Ry     beta= 0.50
     Davidson diagonalization with overlap
     ethr =  1.80E-09,  avg # of iterations =  2.0

     total cpu time spent up to now is        6.4 secs

     total energy              =    -500.93406750 Ry
     estimated scf accuracy    <       0.00000128 Ry

     iteration # 20     ecut=    30.00 Ry     beta= 0.50
     Davidson diagonalization with overlap
     ethr =  5.01E-10,  avg # of iterations =  2.0

     total cpu time spent up to now is        6.5 secs

     End of self-consistent calculation

          k = 0.0000 0.0000 0.0000 ( 11444 PWs)   bands (ev):

    -5.8718  -5.1178  -4.8814  -4.7423  -4.6655  -4.5581  -4.2799  -3.9897
    -3.9295  -3.8561  -3.6092  -3.5587  -3.4571  -3.3668  -3.1843  -3.0102
    -2.8935  -2.7540  -2.6747  -2.6323  -2.5985  -2.2413  -2.1421  -1.9724
    -1.7059  -1.5555  -1.4639  -1.2497  -1.1503  -0.9260  -0.9014  -0.6696
    -0.5934  -0.5296  -0.4039  -0.3216  -0.2647  -0.2533  -0.0394   0.0160
     0.1301   0.1797   0.2913   0.3349   0.4112   0.5180   0.5803   0.6284
     0.7494   0.9387   1.0852   1.1538   1.1861   1.2666   1.3479   1.4375
     1.6073   1.7482   1.8134   1.8695   1.9833   2.0948   2.1659   2.2547
     2.3726   2.4747   2.5753   2.6241   2.6869   2.7882   2.8863   2.9901
     2.9934   3.1242   3.1961   3.3158   3.3703   3.5503   3.6005   3.7163
     3.7542   3.9450   3.9512   4.1494   4.1902   4.2611   4.3055   4.3451
     4.4232   4.5513   4.6425   4.6768   4.8498   4.8749   4.9892   5.1049
     5.1104   5.1683   5.2036   5.2268   5.3486   5.3964   5.4255   5.4653
     5.5085   5.6225   5.7101   5.7588   5.8831   5.9210   5.9264   6.0536
     6.0690   6.1046   6.2097   6.2701   6.3157   6.4025   6.4497   6.4953
     6.5422   6.5505   6.6999   6.7136   6.7387   6.7923   6.8584   6.9261
     6.9576   7.0144   7.0488   7.1504   7.2173   7.2810   7.3609   7.3850
     7.5030   7.5343   7.5685   7.6356   7.7066   7.8150   7.8852   7.9263
     7.9825   8.0242   8.1113   8.1379   8.2281   8.2874   8.3119   8.4361
     8.5597   8.6130

     the Fermi energy is     6.9482 ev

!    total energy              =    -500.93406707 Ry
     estimated scf accuracy    <       0.00000077 Ry
     smearing contrib. (-TS)   =      -0.15769338 Ry
     internal energy E=F+TS    =    -500.77637369 Ry

     The total energy is F=E-TS. E is the sum of the following terms:
     one-electron contribution =     155.28231599 Ry
     hartree contribution      =      38.80363566 Ry
     xc contribution           =    -151.50187309 Ry
     ewald contribution        =    -543.36045225 Ry

     convergence has been achieved in  20 iterations

     Forces acting on atoms (cartesian axes, Ry/au):

     atom    1 type  1   force =    -0.07413159   -0.06190882    0.02976684
     atom    2 type  1   force =    -0.02282575    0.01956516    0.00055255
     atom    3 type  1   force =     0.02125352    0.01316403   -0.01064582
     atom    4 type  1   force =    -0.03833373   -0.01573013    0.00127371
     atom    5 type  1   force =     0.04131064   -0.04164213   -0.02327028
     atom    6 type  1   force =     0.04548046   -0.02958692   -0.02263668
     atom    7 type  1   force =     0.04558951    0.09896760   -0.02801331
     atom    8 type  1   force =     0.04105098    0.01143331   -0.01600872
     atom    9 type  1   force =    -0.05280348   -0.04072277   -0.03123073
     atom   10 type  1   force =     0.02943070   -0.01571513    0.01493783
     atom   11 type  1   force =    -0.05258466    0.03387707    0.02361441
     atom   12 type  1   force =     0.01417019   -0.03014676   -0.00405698
     atom   13 type  1   force =    -0.02197828   -0.01935648    0.02751693
     atom   14 type  1   force =     0.00167441    0.01570369   -0.03571838
     atom   15 type  1   force =     0.02958947    0.03954059   -0.02725115
     atom   16 type  1   force =     0.00441088    0.03679940   -0.01310465
     atom   17 type  1   force =    -0.01219475    0.00528928   -0.00930551
     atom   18 type  1   force =    -0.03406803    0.02103997   -0.00747330
     atom   19 type  1   force =     0.00806064    0.00448108   -0.02433911
     atom   20 type  1   force =    -0.02201211   -0.01018362   -0.00854738
     atom   21 type  1   force =     0.02275302   -0.02177145   -0.00119159
     atom   22 type  1   force =    -0.03086626   -0.06746581   -0.00837774
     atom   23 type  1   force =    -0.04448681   -0.00562543   -0.01952882
     atom   24 type  1   force =     0.00354289    0.00671433    0.01065304
     atom   25 type  1   force =    -0.02668035   -0.00398659   -0.02015525
     atom   26 type  1   force =     0.08540127   -0.04205591   -0.07674744
     atom   27 type  1   force =    -0.05476319    0.03483804   -0.01765733
     atom   28 type  1   force =     0.00281101    0.00144910   -0.01910249
     atom   29 type  1   force =     0.02536654    0.00287779    0.03517498
     atom   30 type  1   force =     0.00439715    0.02919860    0.01397789
     atom   31 type  1   force =    -0.02027807    0.00390198    0.01518659
     atom   32 type  1   force =    -0.00874576    0.00502931    0.02533042
     atom   33 type  1   force =     0.04485633   -0.05273206    0.03918081
     atom   34 type  1   force =     0.00095694   -0.02533109    0.04461860
     atom   35 type  1   force =     0.01814264   -0.01842432    0.02548796
     atom   36 type  1   force =    -0.00687564   -0.01565518    0.00369995
     atom   37 type  1   force =    -0.01468999    0.03765725   -0.01371865
     atom   38 type  1   force =    -0.03974639    0.00795623    0.02377146
     atom   39 type  1   force =     0.00924902    0.01145184   -0.01225326
     atom   40 type  1   force =     0.06471579    0.01437415    0.02889051
     atom   41 type  1   force =     0.04572612    0.06366120    0.03854440
     atom   42 type  1   force =    -0.01553899    0.05757968   -0.00969372
     atom   43 type  1   force =    -0.00730119    0.00252007    0.01226743
     atom   44 type  1   force =     0.00808317   -0.02397329   -0.01677623
     atom   45 type  1   force =    -0.03869351    0.02592961    0.01236593
     atom   46 type  1   force =     0.01674502    0.01484075    0.00311321
     atom   47 type  1   force =    -0.00139260   -0.03940317    0.00675610
     atom   48 type  1   force =     0.00063539    0.05201178    0.00234466
     atom   49 type  1   force =     0.00041223   -0.01483937    0.05178572
     atom   50 type  1   force =     0.02691862   -0.06882450    0.02592179
     atom   51 type  1   force =     0.02836781   -0.03084232    0.00105700
     atom   52 type  1   force =     0.02864375    0.00281017    0.01730164
     atom   53 type  1   force =    -0.01013384    0.00592093   -0.01901618
     atom   54 type  1   force =    -0.02447468    0.02287469   -0.01881319
     atom   55 type  1   force =     0.02286992    0.02143767   -0.03361695
     atom   56 type  1   force =    -0.01284470    0.03984908    0.01949203
     atom   57 type  1   force =    -0.00957051   -0.03515163   -0.01709542
     atom   58 type  1   force =     0.06815698   -0.06186910   -0.03739654
     atom   59 type  1   force =    -0.00081262    0.06822658   -0.00305203
     atom   60 type  1   force =     0.00077037   -0.02730046    0.01986620
     atom   61 type  1   force =    -0.07904019    0.01160220    0.00740527
     atom   62 type  1   force =    -0.01903689   -0.01306789    0.01352806
     atom   63 type  1   force =    -0.00042294   -0.00895454    0.00439445
     atom   64 type  1   force =    -0.01421588   -0.00230730    0.00601642

     Total force =     0.420002     Total SCF correction =     0.001764


     Computing stress (Cartesian axis) and pressure

          total   stress  (Ry/bohr**3)                   (kbar)     P=        0.05
   0.00004023  -0.00003191   0.00003126            5.92       -4.69        4.60
  -0.00003191   0.00005072  -0.00003698           -4.69        7.46       -5.44
   0.00003126  -0.00003698  -0.00009000            4.60       -5.44      -13.24

 
     init_run     :      0.94s CPU      4.43s WALL (       1 calls)
     electrons    :      1.83s CPU      2.02s WALL (       1 calls)
     forces       :      0.03s CPU      0.03s WALL (       1 calls)
     stress       :      0.14s CPU      0.14s WALL (       1 calls)

     Called by init_run:
     wfcinit      :      0.43s CPU      3.76s WALL (       1 calls)
                                        3.76s GPU  (       1 calls)
     potinit      :      0.04s CPU      0.13s WALL (       1 calls)
     hinit0       :      0.45s CPU      0.48s WALL (       1 calls)

     Called by electrons:
     c_bands      :      1.17s CPU      1.27s WALL (      21 calls)
     sum_band     :      0.34s CPU      0.39s WALL (      21 calls)
     v_of_rho     :      0.14s CPU      0.24s WALL (      21 calls)
     mix_rho      :      0.15s CPU      0.17s WALL (      21 calls)

     Called by c_bands:
     init_us_2    :      0.05s CPU      0.06s WALL (      43 calls)
     init_us_2:gp :      0.05s CPU      0.06s WALL (      43 calls)
     regterg      :      1.02s CPU      1.11s WALL (      21 calls)

     Called by *egterg:
     rdiaghg      :      0.44s CPU      1.11s WALL (      95 calls)
                                        1.09s GPU  (      95 calls)
     h_psi        :      0.84s CPU      3.55s WALL (      97 calls)
                                        3.55s GPU  (      97 calls)
     g_psi        :      0.00s CPU      0.00s WALL (      75 calls)
                                        0.00s GPU  (      75 calls)

     Called by h_psi:
     h_psi:calbec :      0.41s CPU      3.04s WALL (      97 calls)
                                        3.04s GPU  (      97 calls)
     vloc_psi     :      0.38s CPU      0.45s WALL (      97 calls)
                                        0.45s GPU  (      97 calls)
     add_vuspsi   :      0.03s CPU      0.05s WALL (      97 calls)
                                        0.05s GPU  (      97 calls)

     General routines
     calbec       :      0.41s CPU      3.04s WALL (     102 calls)
     fft          :      0.55s CPU      0.69s WALL (     175 calls)
                                        0.12s GPU  (     111 calls)
     ffts         :      0.03s CPU      0.04s WALL (      21 calls)
     fftw         :      0.46s CPU      0.61s WALL (    2215 calls)
                                        0.54s GPU  (    2215 calls)
 
     Parallel routines
 
     PWSCF        :      2.97s CPU      6.70s WALL

 
   This run was terminated on:  12:12:48  11May2023            

=------------------------------------------------------------------------------=
   JOB DONE.
=------------------------------------------------------------------------------=
