An instance of this daemon is already running

     Program PWSCF v.7.1 starts on 11May2023 at 12:10:29 

     This program is part of the open-source Quantum ESPRESSO suite
     for quantum simulation of materials; please cite
         "P. Giannozzi et al., J. Phys.:Condens. Matter 21 395502 (2009);
         "P. Giannozzi et al., J. Phys.:Condens. Matter 29 465901 (2017);
         "P. Giannozzi et al., J. Chem. Phys. 152 154105 (2020);
          URL http://www.quantum-espresso.org", 
     in publications or presentations arising from this work. More details at
     http://www.quantum-espresso.org/quote

     Parallel version (MPI & OpenMP), running on       4 processor cores
     Number of MPI processes:                 4
     Threads/MPI process:                     1

     MPI processes distributed on     1 nodes
     636708 MiB available memory on the printing compute node when the environment starts
 
     Reading input from pw-si-49.in
Warning: card &CELL ignored
Warning: card / ignored

     Current dimensions of program PWSCF are:
     Max number of different atomic species (ntypx) = 10
     Max number of k-points (npk) =  40000
     Max angular momentum in pseudopotentials (lmaxx) =  4

     IMPORTANT: XC functional enforced from input :
     Exchange-correlation= PBE
                           (   1   4   3   4   0   0   0)
     Any further DFT definition will be discarded
     Please, verify this is what you really want


     gamma-point specific algorithms are used
 
     K-points division:     npool     =       2
     R & G space division:  proc/nbgrp/npool/nimage =       2
     Subspace diagonalization in iterative solution of the eigenvalue problem:
     a serial algorithm will be used

     Message from routine divide_et_impera:
     suboptimal parallelization: some nodes have no k-points
 
     Parallelization info
     --------------------
     sticks:   dense  smooth     PW     G-vecs:    dense   smooth      PW
     Min        1953    1953    519                91863    91863   12442
     Max        1956    1956    522                91868    91868   12443
     Sum        3909    3909   1041               183731   183731   24885
 
     Using Slab Decomposition
 


     bravais-lattice index     =            0
     lattice parameter (alat)  =      20.2257  a.u.
     unit-cell volume          =    8273.9399 (a.u.)^3
     number of atoms/cell      =           64
     number of atomic types    =            1
     number of electrons       =       256.00
     number of Kohn-Sham states=          154
     kinetic-energy cutoff     =      30.0000  Ry
     charge density cutoff     =     120.0000  Ry
     scf convergence threshold =      1.0E-06
     mixing beta               =       0.5000
     number of iterations used =            8  plain     mixing
     Exchange-correlation= PBE
                           (   1   4   3   4   0   0   0)

     GPU acceleration is ACTIVE.
     GPU-aware MPI enabled

     Message from routine print_cuda_info:
     High GPU oversubscription detected. Are you sure this is what you want?

     celldm(1)=  20.225726  celldm(2)=   0.000000  celldm(3)=   0.000000
     celldm(4)=   0.000000  celldm(5)=   0.000000  celldm(6)=   0.000000

     crystal axes: (cart. coord. in units of alat)
               a(1) = (   1.000000   0.000000   0.000000 )  
               a(2) = (   0.000000   1.000000   0.000000 )  
               a(3) = (   0.000000   0.000000   1.000000 )  

     reciprocal axes: (cart. coord. in units 2 pi/alat)
               b(1) = (  1.000000  0.000000  0.000000 )  
               b(2) = (  0.000000  1.000000  0.000000 )  
               b(3) = (  0.000000  0.000000  1.000000 )  


     PseudoPot. # 1 for Si read from file:
     /home/ppiaggi/pseudos/Si_ONCV_PBE_sr.upf
     MD5 check sum: 8553c464762ac42b85b1eed164b4d029
     Pseudo is Norm-conserving, Zval =  4.0
     Generated using ONCVPSP code by D. R. Hamann
     Using radial grid of 1510 points,  4 beta functions with: 
                l(1) =   0
                l(2) =   0
                l(3) =   1
                l(4) =   1

     atomic species   valence    mass     pseudopotential
        Si             4.00    28.08500     Si( 1.00)

     No symmetry found



   Cartesian axes

     site n.     atom                  positions (alat units)
         1           Si  tau(   1) = (   0.9327940   0.2504040   0.2891160  )
         2           Si  tau(   2) = (   0.2941270   0.2485150   0.6290900  )
         3           Si  tau(   3) = (   0.7649820   0.1694390   0.0173768  )
         4           Si  tau(   4) = (   0.5541770   0.8306640   0.1093040  )
         5           Si  tau(   5) = (   0.2876110   0.1620990   0.8564670  )
         6           Si  tau(   6) = (   0.3483540   0.9910270   0.1388240  )
         7           Si  tau(   7) = (   0.1826980   0.3661860   0.3024520  )
         8           Si  tau(   8) = (   0.6303790   0.0591312   0.1540180  )
         9           Si  tau(   9) = (   0.6166650   0.9224710   0.8956200  )
        10           Si  tau(  10) = (   0.1683580   0.0071210   0.5245260  )
        11           Si  tau(  11) = (   0.3402360   0.6022370   0.3155320  )
        12           Si  tau(  12) = (   0.9218000   0.5243840   0.0374372  )
        13           Si  tau(  13) = (   0.6911580   0.6069440   0.6395130  )
        14           Si  tau(  14) = (   0.7724750   0.2312770   0.4300620  )
        15           Si  tau(  15) = (   0.1185050   0.6537740   0.6259300  )
        16           Si  tau(  16) = (   0.4526870   0.4785000   0.4984670  )
        17           Si  tau(  17) = (   0.3876460   0.7012130   0.9050830  )
        18           Si  tau(  18) = (   0.9219020   0.1962640   0.8571580  )
        19           Si  tau(  19) = (   0.6405790   0.3220550   0.8545850  )
        20           Si  tau(  20) = (   0.2892270   0.5188310   0.0115423  )
        21           Si  tau(  21) = (   0.5273130   0.0447120   0.7336700  )
        22           Si  tau(  22) = (   0.8901400   0.8394740   0.6858040  )
        23           Si  tau(  23) = (   0.0673296   0.4405100   0.5556440  )
        24           Si  tau(  24) = (   0.6670370   0.6655870   0.2320920  )
        25           Si  tau(  25) = (   0.8166430   0.9609570   0.2701430  )
        26           Si  tau(  26) = (   0.7841200   0.5701490   0.3778300  )
        27           Si  tau(  27) = (   0.6039900   0.0831470   0.3735330  )
        28           Si  tau(  28) = (   0.0266859   0.0486252   0.3515020  )
        29           Si  tau(  29) = (   0.5096180   0.7353780   0.3531190  )
        30           Si  tau(  30) = (   0.8503070   0.9338270   0.4937480  )
        31           Si  tau(  31) = (   0.5321280   0.5368860   0.9824160  )
        32           Si  tau(  32) = (   0.0007798   0.6670230   0.2159450  )
        33           Si  tau(  33) = (   0.1338490   0.7031820   0.9413560  )
        34           Si  tau(  34) = (   0.9078490   0.6596930   0.7989730  )
        35           Si  tau(  35) = (   0.5033360   0.7246660   0.5921910  )
        36           Si  tau(  36) = (   0.3257840   0.9073040   0.3855320  )
        37           Si  tau(  37) = (   0.1947000   0.9358950   0.8564020  )
        38           Si  tau(  38) = (   0.2661070   0.8114280   0.5752240  )
        39           Si  tau(  39) = (   0.3691500   0.8545330   0.7738830  )
        40           Si  tau(  40) = (   0.1901660   0.2044240   0.4366500  )
        41           Si  tau(  41) = (   0.8399870   0.9419030   0.9732440  )
        42           Si  tau(  42) = (   0.6323020   0.9151680   0.5056460  )
        43           Si  tau(  43) = (   0.3107430   0.2605930   0.0621541  )
        44           Si  tau(  44) = (   0.9383650   0.2845190   0.0837420  )
        45           Si  tau(  45) = (   0.0532141   0.9270520   0.1479130  )
        46           Si  tau(  46) = (   0.9059920   0.1300580   0.5813760  )
        47           Si  tau(  47) = (   0.4777230   0.1549270   0.5254950  )
        48           Si  tau(  48) = (   0.4228570   0.2240890   0.2727000  )
        49           Si  tau(  49) = (   0.4596460   0.4641260   0.7703730  )
        50           Si  tau(  50) = (   0.1199070   0.6447400   0.4070640  )
        51           Si  tau(  51) = (   0.2773240   0.4644950   0.6345210  )
        52           Si  tau(  52) = (   0.7666400   0.1150870   0.7254980  )
        53           Si  tau(  53) = (   0.8466130   0.7368910   0.0359243  )
        54           Si  tau(  54) = (   0.5289820   0.1563580   0.9187840  )
        55           Si  tau(  55) = (   0.3011310   0.7640430   0.1422510  )
        56           Si  tau(  56) = (   0.1293730   0.3780540   0.9253680  )
        57           Si  tau(  57) = (   0.7036050   0.7143550   0.8501370  )
        58           Si  tau(  58) = (   0.6000850   0.3153970   0.0842283  )
        59           Si  tau(  59) = (   0.0691682   0.0223276   0.7078840  )
        60           Si  tau(  60) = (   0.0981683   0.2931820   0.7063900  )
        61           Si  tau(  61) = (   0.1794380   0.1363810   0.1714180  )
        62           Si  tau(  62) = (   0.6042840   0.3705440   0.3293770  )
        63           Si  tau(  63) = (   0.8439050   0.4655640   0.8248320  )
        64           Si  tau(  64) = (   0.8393840   0.4091250   0.5538160  )

     number of k points=     1  Fermi-Dirac smearing, width (Ry)=  0.0100
                       cart. coord. in units 2pi/alat
        k(    1) = (   0.0000000   0.0000000   0.0000000), wk =   2.0000000

     Dense  grid:    91866 G-vectors     FFT dimensions: (  72,  72,  72)

     Estimated max dynamical RAM per process >     147.20 MB

     Estimated total dynamical RAM >     566.38 MB

     Initial potential from superposition of free atoms

     starting charge     255.9608, renormalised to     256.0000
     Starting wfcs are  256 randomized atomic wfcs

     total cpu time spent up to now is        4.5 secs

     Self-consistent Calculation

     iteration #  1     ecut=    30.00 Ry     beta= 0.50
     Davidson diagonalization with overlap
     ethr =  1.00E-02,  avg # of iterations =  3.0

     Threshold (ethr) on eigenvalues was too large:
     Diagonalizing with lowered threshold

     Davidson diagonalization with overlap
     ethr =  6.70E-04,  avg # of iterations =  4.0

     total cpu time spent up to now is        4.7 secs

     total energy              =    -500.10031493 Ry
     estimated scf accuracy    <       2.16942594 Ry

     iteration #  2     ecut=    30.00 Ry     beta= 0.50
     Davidson diagonalization with overlap
     ethr =  8.47E-04,  avg # of iterations =  5.0

     total cpu time spent up to now is        4.8 secs

     total energy              =    -498.62042005 Ry
     estimated scf accuracy    <      23.54479286 Ry

     iteration #  3     ecut=    30.00 Ry     beta= 0.50
     Davidson diagonalization with overlap
     ethr =  8.47E-04,  avg # of iterations =  4.0

     total cpu time spent up to now is        4.9 secs

     total energy              =    -500.58386597 Ry
     estimated scf accuracy    <       2.37754480 Ry

     iteration #  4     ecut=    30.00 Ry     beta= 0.50
     Davidson diagonalization with overlap
     ethr =  8.47E-04,  avg # of iterations =  2.0

     total cpu time spent up to now is        5.0 secs

     total energy              =    -500.75414884 Ry
     estimated scf accuracy    <       0.84377333 Ry

     iteration #  5     ecut=    30.00 Ry     beta= 0.50
     Davidson diagonalization with overlap
     ethr =  3.30E-04,  avg # of iterations =  2.0

     total cpu time spent up to now is        5.1 secs

     total energy              =    -500.79280947 Ry
     estimated scf accuracy    <       0.85639289 Ry

     iteration #  6     ecut=    30.00 Ry     beta= 0.50
     Davidson diagonalization with overlap
     ethr =  3.30E-04,  avg # of iterations =  1.0

     total cpu time spent up to now is        5.2 secs

     total energy              =    -500.86212327 Ry
     estimated scf accuracy    <       0.06962294 Ry

     iteration #  7     ecut=    30.00 Ry     beta= 0.50
     Davidson diagonalization with overlap
     ethr =  2.72E-05,  avg # of iterations =  3.0

     total cpu time spent up to now is        5.3 secs

     total energy              =    -500.86880236 Ry
     estimated scf accuracy    <       0.07844579 Ry

     iteration #  8     ecut=    30.00 Ry     beta= 0.50
     Davidson diagonalization with overlap
     ethr =  2.72E-05,  avg # of iterations =  2.0

     total cpu time spent up to now is        5.4 secs

     total energy              =    -500.87628662 Ry
     estimated scf accuracy    <       0.01962934 Ry

     iteration #  9     ecut=    30.00 Ry     beta= 0.50
     Davidson diagonalization with overlap
     c_bands:  1 eigenvalues not converged
     ethr =  7.67E-06,  avg # of iterations = 20.0

     total cpu time spent up to now is        5.5 secs

     total energy              =    -500.87769881 Ry
     estimated scf accuracy    <       0.00517974 Ry

     iteration # 10     ecut=    30.00 Ry     beta= 0.50
     Davidson diagonalization with overlap
     ethr =  2.02E-06,  avg # of iterations = 19.0

     total cpu time spent up to now is        5.7 secs

     total energy              =    -500.87803939 Ry
     estimated scf accuracy    <       0.00631208 Ry

     iteration # 11     ecut=    30.00 Ry     beta= 0.50
     Davidson diagonalization with overlap
     ethr =  2.02E-06,  avg # of iterations =  2.0

     total cpu time spent up to now is        5.8 secs

     total energy              =    -500.87846393 Ry
     estimated scf accuracy    <       0.00043902 Ry

     iteration # 12     ecut=    30.00 Ry     beta= 0.50
     Davidson diagonalization with overlap
     ethr =  1.71E-07,  avg # of iterations =  5.0

     total cpu time spent up to now is        5.9 secs

     total energy              =    -500.87853185 Ry
     estimated scf accuracy    <       0.00062937 Ry

     iteration # 13     ecut=    30.00 Ry     beta= 0.50
     Davidson diagonalization with overlap
     ethr =  1.71E-07,  avg # of iterations =  3.0

     total cpu time spent up to now is        6.0 secs

     total energy              =    -500.87858272 Ry
     estimated scf accuracy    <       0.00036127 Ry

     iteration # 14     ecut=    30.00 Ry     beta= 0.50
     Davidson diagonalization with overlap
     ethr =  1.41E-07,  avg # of iterations =  2.0

     total cpu time spent up to now is        6.1 secs

     total energy              =    -500.87860449 Ry
     estimated scf accuracy    <       0.00004361 Ry

     iteration # 15     ecut=    30.00 Ry     beta= 0.50
     Davidson diagonalization with overlap
     ethr =  1.70E-08,  avg # of iterations =  4.0

     total cpu time spent up to now is        6.2 secs

     total energy              =    -500.87860832 Ry
     estimated scf accuracy    <       0.00008991 Ry

     iteration # 16     ecut=    30.00 Ry     beta= 0.50
     Davidson diagonalization with overlap
     ethr =  1.70E-08,  avg # of iterations =  2.0

     total cpu time spent up to now is        6.3 secs

     total energy              =    -500.87861431 Ry
     estimated scf accuracy    <       0.00000403 Ry

     iteration # 17     ecut=    30.00 Ry     beta= 0.50
     Davidson diagonalization with overlap
     ethr =  1.57E-09,  avg # of iterations =  4.0

     total cpu time spent up to now is        6.4 secs

     total energy              =    -500.87861439 Ry
     estimated scf accuracy    <       0.00001507 Ry

     iteration # 18     ecut=    30.00 Ry     beta= 0.50
     Davidson diagonalization with overlap
     ethr =  1.57E-09,  avg # of iterations =  3.0

     total cpu time spent up to now is        6.5 secs

     total energy              =    -500.87861547 Ry
     estimated scf accuracy    <       0.00000290 Ry

     iteration # 19     ecut=    30.00 Ry     beta= 0.50
     Davidson diagonalization with overlap
     ethr =  1.13E-09,  avg # of iterations =  2.0

     total cpu time spent up to now is        6.6 secs

     total energy              =    -500.87861555 Ry
     estimated scf accuracy    <       0.00000133 Ry

     iteration # 20     ecut=    30.00 Ry     beta= 0.50
     Davidson diagonalization with overlap
     ethr =  5.19E-10,  avg # of iterations =  2.0

     total cpu time spent up to now is        6.6 secs

     End of self-consistent calculation

          k = 0.0000 0.0000 0.0000 ( 11492 PWs)   bands (ev):

    -5.8507  -5.1958  -4.9061  -4.7926  -4.6368  -4.4001  -4.3666  -3.9661
    -3.9175  -3.6897  -3.5779  -3.5364  -3.4450  -3.2934  -3.1608  -3.0516
    -3.0000  -2.7963  -2.5804  -2.4950  -2.3348  -2.0592  -2.0404  -1.8896
    -1.8147  -1.7536  -1.5976  -1.4116  -1.2314  -0.9820  -0.8860  -0.7455
    -0.5596  -0.5433  -0.4487  -0.2997  -0.1701  -0.1028  -0.0309   0.0583
     0.1060   0.1608   0.2340   0.3083   0.4477   0.5180   0.6037   0.7208
     0.8252   0.9939   1.0277   1.1294   1.1886   1.2743   1.2986   1.4294
     1.4502   1.5656   1.6249   1.9118   2.0126   2.0594   2.1405   2.2662
     2.3278   2.5304   2.5483   2.5773   2.7005   2.7727   2.8619   2.9034
     2.9515   3.1029   3.1930   3.3462   3.3686   3.4223   3.5074   3.5895
     3.8540   3.8720   3.9590   4.0469   4.1579   4.3111   4.3246   4.4374
     4.4852   4.5603   4.6193   4.7014   4.7307   4.8029   4.8970   5.0134
     5.0646   5.1435   5.1612   5.1941   5.2356   5.3218   5.3749   5.4563
     5.5421   5.5838   5.6648   5.7341   5.7882   5.8399   5.9199   5.9445
     6.0073   6.1121   6.1577   6.2316   6.2787   6.3071   6.3145   6.4125
     6.4794   6.5321   6.5418   6.6720   6.7296   6.7878   6.8292   6.8754
     6.9744   7.0498   7.1149   7.1800   7.1908   7.2665   7.2843   7.3955
     7.4434   7.4969   7.5219   7.6092   7.6206   7.7011   7.7375   7.8422
     7.9008   7.9186   7.9677   8.0862   8.1144   8.1548   8.2593   8.3023
     8.4061   8.4856

     the Fermi energy is     6.9346 ev

!    total energy              =    -500.87861543 Ry
     estimated scf accuracy    <       0.00000033 Ry
     smearing contrib. (-TS)   =      -0.14662494 Ry
     internal energy E=F+TS    =    -500.73199049 Ry

     The total energy is F=E-TS. E is the sum of the following terms:
     one-electron contribution =     161.56226366 Ry
     hartree contribution      =      35.23843752 Ry
     xc contribution           =    -151.12171790 Ry
     ewald contribution        =    -546.41097377 Ry

     convergence has been achieved in  20 iterations

     Forces acting on atoms (cartesian axes, Ry/au):

     atom    1 type  1   force =     0.05257541   -0.02237352    0.03318170
     atom    2 type  1   force =     0.03945086   -0.03791423    0.02385555
     atom    3 type  1   force =    -0.01040107   -0.02636227    0.00858024
     atom    4 type  1   force =    -0.01636728    0.03072384   -0.01912712
     atom    5 type  1   force =     0.02292058   -0.02236651   -0.01263036
     atom    6 type  1   force =     0.02123789    0.00823728    0.02821419
     atom    7 type  1   force =    -0.01585594    0.03850001   -0.01266519
     atom    8 type  1   force =    -0.00955478   -0.01473817    0.00251538
     atom    9 type  1   force =     0.03526942   -0.02130968    0.03124260
     atom   10 type  1   force =     0.02382510   -0.00590175   -0.06098809
     atom   11 type  1   force =    -0.04365686   -0.01307229   -0.00551837
     atom   12 type  1   force =     0.04097970   -0.03632833    0.00409544
     atom   13 type  1   force =    -0.00053295   -0.01065145    0.00601406
     atom   14 type  1   force =    -0.04505644    0.00636698    0.00362505
     atom   15 type  1   force =    -0.01846837    0.00026293    0.02901393
     atom   16 type  1   force =     0.02698456    0.02673589   -0.02833276
     atom   17 type  1   force =     0.00120884   -0.06552906    0.07250784
     atom   18 type  1   force =     0.05182604    0.01226750   -0.01355661
     atom   19 type  1   force =     0.03776941    0.04874140   -0.03640011
     atom   20 type  1   force =     0.01045211   -0.00929961    0.00870499
     atom   21 type  1   force =    -0.00518985   -0.02775752   -0.05567638
     atom   22 type  1   force =     0.02964384    0.02812361    0.01110829
     atom   23 type  1   force =    -0.03973853    0.02787620   -0.05836052
     atom   24 type  1   force =     0.02448769    0.00376396   -0.07558859
     atom   25 type  1   force =     0.01670110   -0.00028766   -0.02213625
     atom   26 type  1   force =     0.02047569   -0.04315711    0.03396439
     atom   27 type  1   force =     0.04056805    0.02750315   -0.04235353
     atom   28 type  1   force =    -0.02115604    0.00805530   -0.01845630
     atom   29 type  1   force =    -0.04393060    0.05400311    0.06423923
     atom   30 type  1   force =    -0.00139069   -0.00602568   -0.01318526
     atom   31 type  1   force =    -0.02339486    0.00138239   -0.01005516
     atom   32 type  1   force =    -0.01425527    0.00350688   -0.02519355
     atom   33 type  1   force =     0.01468005    0.00051911    0.01734345
     atom   34 type  1   force =     0.08270849    0.04011316   -0.01287863
     atom   35 type  1   force =     0.00726108    0.00391258   -0.02723541
     atom   36 type  1   force =     0.02701195    0.00672640   -0.02139388
     atom   37 type  1   force =    -0.01233068    0.02748191    0.05666361
     atom   38 type  1   force =     0.02508702   -0.03655362    0.01674228
     atom   39 type  1   force =     0.05061286    0.06696996   -0.08541824
     atom   40 type  1   force =     0.01223929   -0.01363907    0.01514752
     atom   41 type  1   force =    -0.02428776    0.05007695   -0.02251440
     atom   42 type  1   force =    -0.03784146   -0.04781774    0.02693454
     atom   43 type  1   force =     0.03421630    0.04362315   -0.02482935
     atom   44 type  1   force =     0.03162979    0.04909415   -0.06286011
     atom   45 type  1   force =    -0.01468846   -0.00708436    0.00011606
     atom   46 type  1   force =     0.06667095    0.02394005   -0.07267463
     atom   47 type  1   force =    -0.04412847   -0.00149766    0.05191192
     atom   48 type  1   force =     0.00082589   -0.00533704    0.00102948
     atom   49 type  1   force =     0.01628620    0.01117408    0.00626609
     atom   50 type  1   force =     0.03816355   -0.01732986   -0.01926684
     atom   51 type  1   force =     0.01480217    0.02623610    0.01488496
     atom   52 type  1   force =    -0.09666135   -0.01055295    0.06935334
     atom   53 type  1   force =    -0.02952282   -0.02255449    0.02984619
     atom   54 type  1   force =    -0.06566629   -0.02853570    0.05382476
     atom   55 type  1   force =    -0.00140756   -0.02498697   -0.01789850
     atom   56 type  1   force =    -0.02866103   -0.00724489    0.00179872
     atom   57 type  1   force =    -0.04198419    0.00751831   -0.01064295
     atom   58 type  1   force =    -0.01587499    0.01034250    0.02748492
     atom   59 type  1   force =    -0.07668167    0.00191673    0.03845865
     atom   60 type  1   force =    -0.03601908   -0.02843881    0.06409075
     atom   61 type  1   force =    -0.04729412   -0.03633544    0.03681749
     atom   62 type  1   force =    -0.00657824    0.01655855    0.01261467
     atom   63 type  1   force =    -0.02204616   -0.09405396   -0.01518990
     atom   64 type  1   force =    -0.00794799    0.03278328    0.00083467

     Total force =     0.467050     Total SCF correction =     0.001145


     Computing stress (Cartesian axis) and pressure

          total   stress  (Ry/bohr**3)                   (kbar)     P=       -4.55
  -0.00005518  -0.00004289  -0.00001527           -8.12       -6.31       -2.25
  -0.00004289  -0.00003237  -0.00003643           -6.31       -4.76       -5.36
  -0.00001527  -0.00003643  -0.00000524           -2.25       -5.36       -0.77

 
     init_run     :      0.92s CPU      4.44s WALL (       1 calls)
     electrons    :      1.96s CPU      2.15s WALL (       1 calls)
     forces       :      0.03s CPU      0.03s WALL (       1 calls)
     stress       :      0.14s CPU      0.14s WALL (       1 calls)

     Called by init_run:
     wfcinit      :      0.40s CPU      3.77s WALL (       1 calls)
                                        3.77s GPU  (       1 calls)
     potinit      :      0.04s CPU      0.13s WALL (       1 calls)
     hinit0       :      0.45s CPU      0.48s WALL (       1 calls)

     Called by electrons:
     c_bands      :      1.29s CPU      1.38s WALL (      21 calls)
     sum_band     :      0.34s CPU      0.40s WALL (      21 calls)
     v_of_rho     :      0.15s CPU      0.25s WALL (      21 calls)
     mix_rho      :      0.15s CPU      0.17s WALL (      21 calls)

     Called by c_bands:
     init_us_2    :      0.05s CPU      0.06s WALL (      43 calls)
     init_us_2:gp :      0.05s CPU      0.06s WALL (      43 calls)
     regterg      :      1.13s CPU      1.21s WALL (      21 calls)

     Called by *egterg:
     rdiaghg      :      0.49s CPU      1.18s WALL (     114 calls)
                                        1.16s GPU  (     114 calls)
     h_psi        :      0.86s CPU      3.59s WALL (     116 calls)
                                        3.58s GPU  (     116 calls)
     g_psi        :      0.00s CPU      0.00s WALL (      94 calls)
                                        0.00s GPU  (      94 calls)

     Called by h_psi:
     h_psi:calbec :      0.40s CPU      3.04s WALL (     116 calls)
                                        3.04s GPU  (     116 calls)
     vloc_psi     :      0.39s CPU      0.47s WALL (     116 calls)
                                        0.46s GPU  (     116 calls)
     add_vuspsi   :      0.05s CPU      0.07s WALL (     116 calls)
                                        0.07s GPU  (     116 calls)

     General routines
     calbec       :      0.41s CPU      3.05s WALL (     121 calls)
     fft          :      0.57s CPU      0.69s WALL (     175 calls)
                                        0.12s GPU  (     111 calls)
     ffts         :      0.04s CPU      0.04s WALL (      21 calls)
     fftw         :      0.48s CPU      0.64s WALL (    2255 calls)
                                        0.56s GPU  (    2255 calls)
 
     Parallel routines
 
     PWSCF        :      3.08s CPU      6.84s WALL

 
   This run was terminated on:  12:10:35  11May2023            

=------------------------------------------------------------------------------=
   JOB DONE.
=------------------------------------------------------------------------------=
