An instance of this daemon is already running
An instance of this daemon is already running

     Program PWSCF v.7.1 starts on 11May2023 at 12: 8:26 

     This program is part of the open-source Quantum ESPRESSO suite
     for quantum simulation of materials; please cite
         "P. Giannozzi et al., J. Phys.:Condens. Matter 21 395502 (2009);
         "P. Giannozzi et al., J. Phys.:Condens. Matter 29 465901 (2017);
         "P. Giannozzi et al., J. Chem. Phys. 152 154105 (2020);
          URL http://www.quantum-espresso.org", 
     in publications or presentations arising from this work. More details at
     http://www.quantum-espresso.org/quote

     Parallel version (MPI & OpenMP), running on       4 processor cores
     Number of MPI processes:                 4
     Threads/MPI process:                     1

     MPI processes distributed on     1 nodes
     617286 MiB available memory on the printing compute node when the environment starts
 
     Reading input from pw-si-35.in
Warning: card &CELL ignored
Warning: card / ignored

     Current dimensions of program PWSCF are:
     Max number of different atomic species (ntypx) = 10
     Max number of k-points (npk) =  40000
     Max angular momentum in pseudopotentials (lmaxx) =  4

     IMPORTANT: XC functional enforced from input :
     Exchange-correlation= PBE
                           (   1   4   3   4   0   0   0)
     Any further DFT definition will be discarded
     Please, verify this is what you really want


     gamma-point specific algorithms are used
 
     K-points division:     npool     =       2
     R & G space division:  proc/nbgrp/npool/nimage =       2
     Subspace diagonalization in iterative solution of the eigenvalue problem:
     a serial algorithm will be used

     Message from routine divide_et_impera:
     suboptimal parallelization: some nodes have no k-points
 
     Parallelization info
     --------------------
     sticks:   dense  smooth     PW     G-vecs:    dense   smooth      PW
     Min        1880    1880    493                86576    86576   11791
     Max        1881    1881    496                86581    86581   11792
     Sum        3761    3761    989               173157   173157   23583
 
     Using Slab Decomposition
 


     bravais-lattice index     =            0
     lattice parameter (alat)  =      19.8271  a.u.
     unit-cell volume          =    7794.2839 (a.u.)^3
     number of atoms/cell      =           64
     number of atomic types    =            1
     number of electrons       =       256.00
     number of Kohn-Sham states=          154
     kinetic-energy cutoff     =      30.0000  Ry
     charge density cutoff     =     120.0000  Ry
     scf convergence threshold =      1.0E-06
     mixing beta               =       0.5000
     number of iterations used =            8  plain     mixing
     Exchange-correlation= PBE
                           (   1   4   3   4   0   0   0)

     GPU acceleration is ACTIVE.
     GPU-aware MPI enabled

     Message from routine print_cuda_info:
     High GPU oversubscription detected. Are you sure this is what you want?

     celldm(1)=  19.827079  celldm(2)=   0.000000  celldm(3)=   0.000000
     celldm(4)=   0.000000  celldm(5)=   0.000000  celldm(6)=   0.000000

     crystal axes: (cart. coord. in units of alat)
               a(1) = (   1.000000   0.000000   0.000000 )  
               a(2) = (   0.000000   1.000000   0.000000 )  
               a(3) = (   0.000000   0.000000   1.000000 )  

     reciprocal axes: (cart. coord. in units 2 pi/alat)
               b(1) = (  1.000000  0.000000  0.000000 )  
               b(2) = (  0.000000  1.000000  0.000000 )  
               b(3) = (  0.000000  0.000000  1.000000 )  


     PseudoPot. # 1 for Si read from file:
     /home/ppiaggi/pseudos/Si_ONCV_PBE_sr.upf
     MD5 check sum: 8553c464762ac42b85b1eed164b4d029
     Pseudo is Norm-conserving, Zval =  4.0
     Generated using ONCVPSP code by D. R. Hamann
     Using radial grid of 1510 points,  4 beta functions with: 
                l(1) =   0
                l(2) =   0
                l(3) =   1
                l(4) =   1

     atomic species   valence    mass     pseudopotential
        Si             4.00    28.08500     Si( 1.00)

     No symmetry found



   Cartesian axes

     site n.     atom                  positions (alat units)
         1           Si  tau(   1) = (   0.9623230   0.2989850   0.2634410  )
         2           Si  tau(   2) = (   0.3368500   0.1213630   0.6508000  )
         3           Si  tau(   3) = (   0.6970400   0.2269810   0.9692030  )
         4           Si  tau(   4) = (   0.5560440   0.8500450   0.0752579  )
         5           Si  tau(   5) = (   0.2133030   0.1723850   0.9467260  )
         6           Si  tau(   6) = (   0.4229900   0.9675590   0.2113830  )
         7           Si  tau(   7) = (   0.2098380   0.2769780   0.3364070  )
         8           Si  tau(   8) = (   0.5934340   0.0925965   0.1630680  )
         9           Si  tau(   9) = (   0.5572700   0.9673890   0.8185390  )
        10           Si  tau(  10) = (   0.1205270   0.9014910   0.5751870  )
        11           Si  tau(  11) = (   0.2886660   0.5451120   0.3345630  )
        12           Si  tau(  12) = (   0.8419540   0.5676410   0.0848128  )
        13           Si  tau(  13) = (   0.7562820   0.6512720   0.7484280  )
        14           Si  tau(  14) = (   0.7805420   0.2937280   0.4170200  )
        15           Si  tau(  15) = (   0.0981504   0.6185500   0.7608700  )
        16           Si  tau(  16) = (   0.4422040   0.5380110   0.4972660  )
        17           Si  tau(  17) = (   0.4640640   0.6913670   0.9199880  )
        18           Si  tau(  18) = (   0.0106692   0.0700176   0.0053310  )
        19           Si  tau(  19) = (   0.6580230   0.3705100   0.6504140  )
        20           Si  tau(  20) = (   0.2089720   0.4965980   0.1205930  )
        21           Si  tau(  21) = (   0.5868310   0.0708217   0.6055990  )
        22           Si  tau(  22) = (   0.8769830   0.9242320   0.6888380  )
        23           Si  tau(  23) = (   0.0263142   0.4269430   0.4940540  )
        24           Si  tau(  24) = (   0.5878410   0.6709270   0.2335730  )
        25           Si  tau(  25) = (   0.8783050   0.9938920   0.1813660  )
        26           Si  tau(  26) = (   0.8551070   0.5678290   0.3553550  )
        27           Si  tau(  27) = (   0.6723910   0.1177850   0.3786190  )
        28           Si  tau(  28) = (   0.0823770   0.1096640   0.2769010  )
        29           Si  tau(  29) = (   0.5019470   0.7766350   0.4196450  )
        30           Si  tau(  30) = (   0.9255930   0.8079010   0.4595430  )
        31           Si  tau(  31) = (   0.5029960   0.4748600   0.9062580  )
        32           Si  tau(  32) = (   0.0140804   0.6849170   0.1850160  )
        33           Si  tau(  33) = (   0.1625560   0.6784750   0.9756470  )
        34           Si  tau(  34) = (   0.9388080   0.8519790   0.9240720  )
        35           Si  tau(  35) = (   0.5848510   0.6583300   0.5984670  )
        36           Si  tau(  36) = (   0.2135050   0.7959930   0.3585130  )
        37           Si  tau(  37) = (   0.2892180   0.8557260   0.8770110  )
        38           Si  tau(  38) = (   0.1808720   0.6975640   0.5846270  )
        39           Si  tau(  39) = (   0.3878050   0.7678180   0.6861030  )
        40           Si  tau(  40) = (   0.1407010   0.1899500   0.5261020  )
        41           Si  tau(  41) = (   0.7984820   0.0219367   0.9178400  )
        42           Si  tau(  42) = (   0.7476920   0.8829600   0.3543780  )
        43           Si  tau(  43) = (   0.3169740   0.2465610   0.1422650  )
        44           Si  tau(  44) = (   0.9172690   0.3376250   0.0362032  )
        45           Si  tau(  45) = (   0.0661788   0.8723960   0.0977004  )
        46           Si  tau(  46) = (   0.9103910   0.1256550   0.5718640  )
        47           Si  tau(  47) = (   0.4419960   0.1354970   0.4441200  )
        48           Si  tau(  48) = (   0.4399540   0.3451080   0.3351740  )
        49           Si  tau(  49) = (   0.4251340   0.3722520   0.7037600  )
        50           Si  tau(  50) = (   0.0887701   0.6093090   0.3989300  )
        51           Si  tau(  51) = (   0.2353870   0.4716800   0.6217370  )
        52           Si  tau(  52) = (   0.7599680   0.1976580   0.7491620  )
        53           Si  tau(  53) = (   0.7777080   0.7755510   0.1413680  )
        54           Si  tau(  54) = (   0.4520790   0.1856480   0.8927290  )
        55           Si  tau(  55) = (   0.3925720   0.6748070   0.1443940  )
        56           Si  tau(  56) = (   0.1058490   0.4042500   0.9103100  )
        57           Si  tau(  57) = (   0.7112210   0.8050480   0.9142150  )
        58           Si  tau(  58) = (   0.5196050   0.3165610   0.0821502  )
        59           Si  tau(  59) = (   0.1363220   0.0338073   0.7640800  )
        60           Si  tau(  60) = (   0.9804320   0.2988610   0.7459570  )
        61           Si  tau(  61) = (   0.2369480   0.9778410   0.0663423  )
        62           Si  tau(  62) = (   0.6280870   0.4608190   0.2670170  )
        63           Si  tau(  63) = (   0.8852080   0.5345360   0.8683120  )
        64           Si  tau(  64) = (   0.8297730   0.5317280   0.5832780  )

     number of k points=     1  Fermi-Dirac smearing, width (Ry)=  0.0100
                       cart. coord. in units 2pi/alat
        k(    1) = (   0.0000000   0.0000000   0.0000000), wk =   2.0000000

     Dense  grid:    86579 G-vectors     FFT dimensions: (  72,  72,  72)

     Estimated max dynamical RAM per process >     139.61 MB

     Estimated total dynamical RAM >     537.30 MB

     Initial potential from superposition of free atoms

     starting charge     255.9608, renormalised to     256.0000
     Starting wfcs are  256 randomized atomic wfcs

     total cpu time spent up to now is        4.5 secs

     Self-consistent Calculation

     iteration #  1     ecut=    30.00 Ry     beta= 0.50
     Davidson diagonalization with overlap
     ethr =  1.00E-02,  avg # of iterations =  3.0

     Threshold (ethr) on eigenvalues was too large:
     Diagonalizing with lowered threshold

     Davidson diagonalization with overlap
     ethr =  5.73E-04,  avg # of iterations =  4.0

     total cpu time spent up to now is        4.7 secs

     total energy              =    -500.42859732 Ry
     estimated scf accuracy    <       1.92726149 Ry

     iteration #  2     ecut=    30.00 Ry     beta= 0.50
     Davidson diagonalization with overlap
     ethr =  7.53E-04,  avg # of iterations =  5.0

     total cpu time spent up to now is        4.8 secs

     total energy              =    -499.24908071 Ry
     estimated scf accuracy    <      18.55158195 Ry

     iteration #  3     ecut=    30.00 Ry     beta= 0.50
     Davidson diagonalization with overlap
     ethr =  7.53E-04,  avg # of iterations =  4.0

     total cpu time spent up to now is        4.9 secs

     total energy              =    -500.81023512 Ry
     estimated scf accuracy    <       2.38832656 Ry

     iteration #  4     ecut=    30.00 Ry     beta= 0.50
     Davidson diagonalization with overlap
     ethr =  7.53E-04,  avg # of iterations =  2.0

     total cpu time spent up to now is        5.0 secs

     total energy              =    -500.99250023 Ry
     estimated scf accuracy    <       0.56379019 Ry

     iteration #  5     ecut=    30.00 Ry     beta= 0.50
     Davidson diagonalization with overlap
     ethr =  2.20E-04,  avg # of iterations =  2.0

     total cpu time spent up to now is        5.1 secs

     total energy              =    -501.01515879 Ry
     estimated scf accuracy    <       0.59964347 Ry

     iteration #  6     ecut=    30.00 Ry     beta= 0.50
     Davidson diagonalization with overlap
     ethr =  2.20E-04,  avg # of iterations =  2.0

     total cpu time spent up to now is        5.2 secs

     total energy              =    -501.06790829 Ry
     estimated scf accuracy    <       0.09460653 Ry

     iteration #  7     ecut=    30.00 Ry     beta= 0.50
     Davidson diagonalization with overlap
     ethr =  3.70E-05,  avg # of iterations =  2.0

     total cpu time spent up to now is        5.3 secs

     total energy              =    -501.07739956 Ry
     estimated scf accuracy    <       0.03179049 Ry

     iteration #  8     ecut=    30.00 Ry     beta= 0.50
     Davidson diagonalization with overlap
     ethr =  1.24E-05,  avg # of iterations = 15.0

     total cpu time spent up to now is        5.4 secs

     total energy              =    -501.08036043 Ry
     estimated scf accuracy    <       0.03558346 Ry

     iteration #  9     ecut=    30.00 Ry     beta= 0.50
     Davidson diagonalization with overlap
     ethr =  1.24E-05,  avg # of iterations =  2.0

     total cpu time spent up to now is        5.5 secs

     total energy              =    -501.08285977 Ry
     estimated scf accuracy    <       0.00212565 Ry

     iteration # 10     ecut=    30.00 Ry     beta= 0.50
     Davidson diagonalization with overlap
     ethr =  8.30E-07,  avg # of iterations = 13.0

     total cpu time spent up to now is        5.7 secs

     total energy              =    -501.08309179 Ry
     estimated scf accuracy    <       0.00393887 Ry

     iteration # 11     ecut=    30.00 Ry     beta= 0.50
     Davidson diagonalization with overlap
     ethr =  8.30E-07,  avg # of iterations =  3.0

     total cpu time spent up to now is        5.8 secs

     total energy              =    -501.08337187 Ry
     estimated scf accuracy    <       0.00083230 Ry

     iteration # 12     ecut=    30.00 Ry     beta= 0.50
     Davidson diagonalization with overlap
     ethr =  3.25E-07,  avg # of iterations =  2.0

     total cpu time spent up to now is        5.9 secs

     total energy              =    -501.08343599 Ry
     estimated scf accuracy    <       0.00046433 Ry

     iteration # 13     ecut=    30.00 Ry     beta= 0.50
     Davidson diagonalization with overlap
     ethr =  1.81E-07,  avg # of iterations =  2.0

     total cpu time spent up to now is        6.0 secs

     total energy              =    -501.08347131 Ry
     estimated scf accuracy    <       0.00031317 Ry

     iteration # 14     ecut=    30.00 Ry     beta= 0.50
     Davidson diagonalization with overlap
     ethr =  1.22E-07,  avg # of iterations =  1.0

     total cpu time spent up to now is        6.0 secs

     total energy              =    -501.08349243 Ry
     estimated scf accuracy    <       0.00003175 Ry

     iteration # 15     ecut=    30.00 Ry     beta= 0.50
     Davidson diagonalization with overlap
     ethr =  1.24E-08,  avg # of iterations =  4.0

     total cpu time spent up to now is        6.1 secs

     total energy              =    -501.08349571 Ry
     estimated scf accuracy    <       0.00005320 Ry

     iteration # 16     ecut=    30.00 Ry     beta= 0.50
     Davidson diagonalization with overlap
     ethr =  1.24E-08,  avg # of iterations =  2.0

     total cpu time spent up to now is        6.2 secs

     total energy              =    -501.08349961 Ry
     estimated scf accuracy    <       0.00000576 Ry

     iteration # 17     ecut=    30.00 Ry     beta= 0.50
     Davidson diagonalization with overlap
     ethr =  2.25E-09,  avg # of iterations =  2.0

     total cpu time spent up to now is        6.3 secs

     total energy              =    -501.08350007 Ry
     estimated scf accuracy    <       0.00000152 Ry

     iteration # 18     ecut=    30.00 Ry     beta= 0.50
     Davidson diagonalization with overlap
     ethr =  5.95E-10,  avg # of iterations =  5.0

     total cpu time spent up to now is        6.4 secs

     total energy              =    -501.08350002 Ry
     estimated scf accuracy    <       0.00000634 Ry

     iteration # 19     ecut=    30.00 Ry     beta= 0.50
     Davidson diagonalization with overlap
     ethr =  5.95E-10,  avg # of iterations =  3.0

     total cpu time spent up to now is        6.5 secs

     End of self-consistent calculation

          k = 0.0000 0.0000 0.0000 ( 10816 PWs)   bands (ev):

    -5.7207  -5.0527  -4.5526  -4.4513  -4.1990  -3.9684  -3.7619  -3.5611
    -3.5211  -3.4215  -3.1964  -3.0548  -3.0228  -2.8937  -2.7930  -2.6145
    -2.5227  -2.3346  -2.1148  -2.0597  -1.9088  -1.8469  -1.6352  -1.4701
    -1.3442  -1.2832  -1.1263  -0.7696  -0.6902  -0.5034  -0.2316  -0.2254
    -0.0845  -0.0179   0.1734   0.2415   0.3688   0.3911   0.4367   0.5314
     0.6568   0.6979   0.8020   0.8773   1.0132   1.0828   1.1700   1.2039
     1.3270   1.4243   1.5114   1.5920   1.6781   1.7762   1.9074   1.9748
     2.0865   2.1594   2.3051   2.3199   2.5591   2.5927   2.7564   2.7766
     2.7963   2.9168   3.0015   3.0452   3.0757   3.1729   3.2590   3.2892
     3.4351   3.5074   3.5811   3.7239   3.7504   3.9212   3.9679   4.0864
     4.2658   4.5232   4.6376   4.7245   4.7358   4.8443   4.9541   5.0295
     5.1591   5.1901   5.2092   5.3203   5.3774   5.4969   5.5181   5.6419
     5.6781   5.7516   5.7761   5.8344   5.9175   5.9932   6.0677   6.1023
     6.1792   6.2497   6.2968   6.3052   6.4162   6.4977   6.5218   6.5849
     6.6287   6.7445   6.8381   6.9018   6.9639   6.9706   7.0025   7.1377
     7.1549   7.2066   7.2704   7.3472   7.4307   7.4530   7.5487   7.6035
     7.6706   7.7317   7.7833   7.8468   7.9070   7.9509   7.9980   8.0493
     8.0867   8.2049   8.2721   8.3199   8.3480   8.4758   8.5168   8.5815
     8.6340   8.6392   8.7081   8.7646   8.8055   8.8672   9.0431   9.0705
     9.1433   9.2061

     the Fermi energy is     7.6285 ev

!    total energy              =    -501.08349968 Ry
     estimated scf accuracy    <       0.00000098 Ry
     smearing contrib. (-TS)   =      -0.14738284 Ry
     internal energy E=F+TS    =    -500.93611684 Ry

     The total energy is F=E-TS. E is the sum of the following terms:
     one-electron contribution =     182.09082822 Ry
     hartree contribution      =      31.12323703 Ry
     xc contribution           =    -152.80775022 Ry
     ewald contribution        =    -561.34243187 Ry

     convergence has been achieved in  19 iterations

     Forces acting on atoms (cartesian axes, Ry/au):

     atom    1 type  1   force =     0.00868650    0.00941789    0.00909729
     atom    2 type  1   force =     0.00087959    0.02559711    0.01834296
     atom    3 type  1   force =     0.01752122    0.00333586    0.01034883
     atom    4 type  1   force =     0.01910910    0.00413774   -0.00848394
     atom    5 type  1   force =     0.02605689    0.01828028   -0.00315131
     atom    6 type  1   force =    -0.06014747   -0.01464848    0.02364307
     atom    7 type  1   force =    -0.00352025    0.05104048   -0.01515411
     atom    8 type  1   force =     0.04519823    0.02276832   -0.01226186
     atom    9 type  1   force =    -0.02934070   -0.00376842   -0.01070286
     atom   10 type  1   force =    -0.05353470    0.03778818   -0.02069355
     atom   11 type  1   force =     0.01617514   -0.00657509   -0.03723754
     atom   12 type  1   force =    -0.00025970   -0.02562061    0.00882412
     atom   13 type  1   force =    -0.05469641    0.05588881   -0.00687940
     atom   14 type  1   force =     0.02940970    0.05793635    0.02953233
     atom   15 type  1   force =    -0.05508126   -0.04661793    0.10974047
     atom   16 type  1   force =    -0.02560039   -0.04524509   -0.01876132
     atom   17 type  1   force =    -0.01292752    0.03089883    0.00284211
     atom   18 type  1   force =    -0.01920137    0.05090193   -0.00675375
     atom   19 type  1   force =     0.01160368    0.02295272   -0.02744407
     atom   20 type  1   force =     0.00020322   -0.00198183   -0.01081364
     atom   21 type  1   force =     0.03921103   -0.00289795    0.02420297
     atom   22 type  1   force =     0.02964415   -0.00635987   -0.00760283
     atom   23 type  1   force =    -0.02056222   -0.07136167    0.02861686
     atom   24 type  1   force =     0.04147627    0.02467593    0.03551005
     atom   25 type  1   force =     0.00732900    0.01154756    0.03114360
     atom   26 type  1   force =    -0.00992826    0.01895773   -0.00101736
     atom   27 type  1   force =    -0.03336855   -0.08783865   -0.00911261
     atom   28 type  1   force =    -0.02904042   -0.03650055   -0.01527688
     atom   29 type  1   force =     0.02528495    0.01639998   -0.01699530
     atom   30 type  1   force =     0.03179908   -0.02429987    0.04233100
     atom   31 type  1   force =     0.01906280   -0.03100037   -0.01614880
     atom   32 type  1   force =    -0.00383003   -0.07533744    0.01139147
     atom   33 type  1   force =     0.00789751   -0.01166552   -0.00338793
     atom   34 type  1   force =     0.02282163   -0.03917329   -0.07634704
     atom   35 type  1   force =     0.02238074    0.03326680    0.02114338
     atom   36 type  1   force =     0.02306868    0.01437461   -0.00752643
     atom   37 type  1   force =     0.00722215    0.00619816   -0.01351923
     atom   38 type  1   force =     0.07045025    0.00978110   -0.01395312
     atom   39 type  1   force =    -0.00036627    0.01240073    0.01844766
     atom   40 type  1   force =    -0.02175235    0.00175464    0.01759276
     atom   41 type  1   force =    -0.04494636    0.04614121   -0.01549554
     atom   42 type  1   force =    -0.03885878    0.03987588   -0.01659196
     atom   43 type  1   force =    -0.01627879    0.01212518   -0.00786864
     atom   44 type  1   force =    -0.01760835   -0.00114352    0.00715537
     atom   45 type  1   force =    -0.03874946   -0.03319104    0.05136725
     atom   46 type  1   force =     0.00912528    0.03045951    0.00820061
     atom   47 type  1   force =    -0.01449285   -0.00536531   -0.03233165
     atom   48 type  1   force =    -0.00437007    0.01731335    0.01379468
     atom   49 type  1   force =     0.02088601   -0.03928833    0.02439566
     atom   50 type  1   force =    -0.03297637    0.04388677   -0.03278279
     atom   51 type  1   force =    -0.00788455    0.00133533   -0.00348833
     atom   52 type  1   force =     0.00608178   -0.00639416   -0.00145933
     atom   53 type  1   force =    -0.02816877    0.00956756    0.00901564
     atom   54 type  1   force =    -0.01060046   -0.01516128   -0.04579668
     atom   55 type  1   force =    -0.08206120   -0.01189876   -0.02121587
     atom   56 type  1   force =     0.00093615   -0.00542069    0.00932157
     atom   57 type  1   force =    -0.03782440   -0.00259132   -0.00092971
     atom   58 type  1   force =     0.02452726    0.02969641    0.00311224
     atom   59 type  1   force =     0.00325502   -0.01805499    0.00756289
     atom   60 type  1   force =    -0.02076126   -0.01399178   -0.02192802
     atom   61 type  1   force =     0.11932080    0.04705345    0.00596497
     atom   62 type  1   force =     0.04102574   -0.04565368    0.01020282
     atom   63 type  1   force =     0.07727057   -0.03139455    0.01112293
     atom   64 type  1   force =     0.00381941   -0.05731435   -0.04485416

     Total force =     0.430980     Total SCF correction =     0.002078


     Computing stress (Cartesian axis) and pressure

          total   stress  (Ry/bohr**3)                   (kbar)     P=       16.47
   0.00015035   0.00004845   0.00000565           22.12        7.13        0.83
   0.00004845   0.00009902  -0.00005260            7.13       14.57       -7.74
   0.00000565  -0.00005260   0.00008652            0.83       -7.74       12.73

 
     init_run     :      0.96s CPU      4.46s WALL (       1 calls)
     electrons    :      1.79s CPU      1.98s WALL (       1 calls)
     forces       :      0.03s CPU      0.03s WALL (       1 calls)
     stress       :      0.13s CPU      0.14s WALL (       1 calls)

     Called by init_run:
     wfcinit      :      0.45s CPU      3.79s WALL (       1 calls)
                                        3.79s GPU  (       1 calls)
     potinit      :      0.03s CPU      0.12s WALL (       1 calls)
     hinit0       :      0.46s CPU      0.48s WALL (       1 calls)

     Called by electrons:
     c_bands      :      1.18s CPU      1.28s WALL (      20 calls)
     sum_band     :      0.32s CPU      0.37s WALL (      20 calls)
     v_of_rho     :      0.13s CPU      0.23s WALL (      20 calls)
     mix_rho      :      0.14s CPU      0.15s WALL (      20 calls)

     Called by c_bands:
     init_us_2    :      0.05s CPU      0.06s WALL (      41 calls)
     init_us_2:gp :      0.05s CPU      0.05s WALL (      41 calls)
     regterg      :      1.04s CPU      1.12s WALL (      20 calls)

     Called by *egterg:
     rdiaghg      :      0.46s CPU      1.15s WALL (      97 calls)
                                        1.13s GPU  (      97 calls)
     h_psi        :      0.87s CPU      3.56s WALL (      99 calls)
                                        3.56s GPU  (      99 calls)
     g_psi        :      0.00s CPU      0.00s WALL (      78 calls)
                                        0.00s GPU  (      78 calls)

     Called by h_psi:
     h_psi:calbec :      0.44s CPU      3.06s WALL (      99 calls)
                                        3.06s GPU  (      99 calls)
     vloc_psi     :      0.37s CPU      0.44s WALL (      99 calls)
                                        0.44s GPU  (      99 calls)
     add_vuspsi   :      0.04s CPU      0.05s WALL (      99 calls)
                                        0.05s GPU  (      99 calls)

     General routines
     calbec       :      0.44s CPU      3.07s WALL (     104 calls)
     fft          :      0.56s CPU      0.68s WALL (     167 calls)
                                        0.12s GPU  (     106 calls)
     ffts         :      0.03s CPU      0.04s WALL (      20 calls)
     fftw         :      0.45s CPU      0.59s WALL (    2128 calls)
                                        0.52s GPU  (    2128 calls)
 
     Parallel routines
 
     PWSCF        :      2.95s CPU      6.68s WALL

 
   This run was terminated on:  12: 8:33  11May2023            

=------------------------------------------------------------------------------=
   JOB DONE.
=------------------------------------------------------------------------------=
