An instance of this daemon is already running

     Program PWSCF v.7.1 starts on 11May2023 at 12:12:33 

     This program is part of the open-source Quantum ESPRESSO suite
     for quantum simulation of materials; please cite
         "P. Giannozzi et al., J. Phys.:Condens. Matter 21 395502 (2009);
         "P. Giannozzi et al., J. Phys.:Condens. Matter 29 465901 (2017);
         "P. Giannozzi et al., J. Chem. Phys. 152 154105 (2020);
          URL http://www.quantum-espresso.org", 
     in publications or presentations arising from this work. More details at
     http://www.quantum-espresso.org/quote

     Parallel version (MPI & OpenMP), running on       4 processor cores
     Number of MPI processes:                 4
     Threads/MPI process:                     1

     MPI processes distributed on     1 nodes
     636628 MiB available memory on the printing compute node when the environment starts
 
     Reading input from pw-si-63.in
Warning: card &CELL ignored
Warning: card / ignored

     Current dimensions of program PWSCF are:
     Max number of different atomic species (ntypx) = 10
     Max number of k-points (npk) =  40000
     Max angular momentum in pseudopotentials (lmaxx) =  4

     IMPORTANT: XC functional enforced from input :
     Exchange-correlation= PBE
                           (   1   4   3   4   0   0   0)
     Any further DFT definition will be discarded
     Please, verify this is what you really want


     gamma-point specific algorithms are used
 
     K-points division:     npool     =       2
     R & G space division:  proc/nbgrp/npool/nimage =       2
     Subspace diagonalization in iterative solution of the eigenvalue problem:
     a serial algorithm will be used

     Message from routine divide_et_impera:
     suboptimal parallelization: some nodes have no k-points
 
     Parallelization info
     --------------------
     sticks:   dense  smooth     PW     G-vecs:    dense   smooth      PW
     Min        1945    1945    519                91431    91431   12442
     Max        1948    1948    522                91436    91436   12443
     Sum        3893    3893   1041               182867   182867   24885
 
     Using Slab Decomposition
 


     bravais-lattice index     =            0
     lattice parameter (alat)  =      20.2053  a.u.
     unit-cell volume          =    8248.9394 (a.u.)^3
     number of atoms/cell      =           64
     number of atomic types    =            1
     number of electrons       =       256.00
     number of Kohn-Sham states=          154
     kinetic-energy cutoff     =      30.0000  Ry
     charge density cutoff     =     120.0000  Ry
     scf convergence threshold =      1.0E-06
     mixing beta               =       0.5000
     number of iterations used =            8  plain     mixing
     Exchange-correlation= PBE
                           (   1   4   3   4   0   0   0)

     GPU acceleration is ACTIVE.
     GPU-aware MPI enabled

     Message from routine print_cuda_info:
     High GPU oversubscription detected. Are you sure this is what you want?

     celldm(1)=  20.205334  celldm(2)=   0.000000  celldm(3)=   0.000000
     celldm(4)=   0.000000  celldm(5)=   0.000000  celldm(6)=   0.000000

     crystal axes: (cart. coord. in units of alat)
               a(1) = (   1.000000   0.000000   0.000000 )  
               a(2) = (   0.000000   1.000000   0.000000 )  
               a(3) = (   0.000000   0.000000   1.000000 )  

     reciprocal axes: (cart. coord. in units 2 pi/alat)
               b(1) = (  1.000000  0.000000  0.000000 )  
               b(2) = (  0.000000  1.000000  0.000000 )  
               b(3) = (  0.000000  0.000000  1.000000 )  


     PseudoPot. # 1 for Si read from file:
     /home/ppiaggi/pseudos/Si_ONCV_PBE_sr.upf
     MD5 check sum: 8553c464762ac42b85b1eed164b4d029
     Pseudo is Norm-conserving, Zval =  4.0
     Generated using ONCVPSP code by D. R. Hamann
     Using radial grid of 1510 points,  4 beta functions with: 
                l(1) =   0
                l(2) =   0
                l(3) =   1
                l(4) =   1

     atomic species   valence    mass     pseudopotential
        Si             4.00    28.08500     Si( 1.00)

     No symmetry found



   Cartesian axes

     site n.     atom                  positions (alat units)
         1           Si  tau(   1) = (   0.0423502   0.3033440   0.3408650  )
         2           Si  tau(   2) = (   0.3402120   0.2468720   0.6468710  )
         3           Si  tau(   3) = (   0.7747440   0.1283420   0.0508806  )
         4           Si  tau(   4) = (   0.4575240   0.8116140   0.1488470  )
         5           Si  tau(   5) = (   0.2272430   0.1569320   0.8441330  )
         6           Si  tau(   6) = (   0.2077370   0.0737163   0.0574596  )
         7           Si  tau(   7) = (   0.1589170   0.4726220   0.2807130  )
         8           Si  tau(   8) = (   0.5445930   0.0145408   0.2020800  )
         9           Si  tau(   9) = (   0.7276410   0.8587780   0.9181520  )
        10           Si  tau(  10) = (   0.1196530   0.0948753   0.5337180  )
        11           Si  tau(  11) = (   0.3388480   0.6021040   0.1941070  )
        12           Si  tau(  12) = (   0.0492609   0.5331090   0.0813616  )
        13           Si  tau(  13) = (   0.7118510   0.5874690   0.5856470  )
        14           Si  tau(  14) = (   0.6893620   0.2309140   0.5038290  )
        15           Si  tau(  15) = (   0.1603110   0.7063470   0.5354500  )
        16           Si  tau(  16) = (   0.4126100   0.5930480   0.4229750  )
        17           Si  tau(  17) = (   0.5039980   0.6197270   0.9359240  )
        18           Si  tau(  18) = (   0.9200050   0.1626580   0.8453360  )
        19           Si  tau(  19) = (   0.5890870   0.2872290   0.9673440  )
        20           Si  tau(  20) = (   0.2446510   0.5570400   0.8865950  )
        21           Si  tau(  21) = (   0.4234540   0.9960550   0.7950270  )
        22           Si  tau(  22) = (   0.9587400   0.7756040   0.6447600  )
        23           Si  tau(  23) = (   0.1870180   0.4674620   0.5273560  )
        24           Si  tau(  24) = (   0.7091320   0.7724040   0.1625990  )
        25           Si  tau(  25) = (   0.7849450   0.9553740   0.2898270  )
        26           Si  tau(  26) = (   0.8705770   0.6194720   0.4461270  )
        27           Si  tau(  27) = (   0.6474620   0.9673700   0.4844010  )
        28           Si  tau(  28) = (   0.9771790   0.9888030   0.3940280  )
        29           Si  tau(  29) = (   0.5566410   0.7629470   0.3462580  )
        30           Si  tau(  30) = (   0.7921650   0.8026450   0.4773110  )
        31           Si  tau(  31) = (   0.7167410   0.5621730   0.0305423  )
        32           Si  tau(  32) = (   0.9058400   0.6333890   0.1961450  )
        33           Si  tau(  33) = (   0.1715480   0.8083490   0.9370680  )
        34           Si  tau(  34) = (   0.0888873   0.5800900   0.7138820  )
        35           Si  tau(  35) = (   0.4366260   0.7600540   0.6133490  )
        36           Si  tau(  36) = (   0.3880900   0.0172915   0.3565250  )
        37           Si  tau(  37) = (   0.0548201   0.9900500   0.9050580  )
        38           Si  tau(  38) = (   0.2963290   0.8866020   0.4907100  )
        39           Si  tau(  39) = (   0.3467790   0.7673440   0.8274150  )
        40           Si  tau(  40) = (   0.2355800   0.1968290   0.3182620  )
        41           Si  tau(  41) = (   0.8978810   0.9089240   0.0198318  )
        42           Si  tau(  42) = (   0.6306900   0.9060130   0.6928440  )
        43           Si  tau(  43) = (   0.3732800   0.2668370   0.9958650  )
        44           Si  tau(  44) = (   0.9669110   0.3215440   0.1193040  )
        45           Si  tau(  45) = (   0.9781990   0.8455710   0.2156510  )
        46           Si  tau(  46) = (   0.9070000   0.1980610   0.5135610  )
        47           Si  tau(  47) = (   0.5254340   0.1480070   0.6015580  )
        48           Si  tau(  48) = (   0.4843510   0.2030020   0.2961660  )
        49           Si  tau(  49) = (   0.5192830   0.4387700   0.7670320  )
        50           Si  tau(  50) = (   0.0956570   0.7066400   0.3196030  )
        51           Si  tau(  51) = (   0.3850490   0.4554480   0.5789610  )
        52           Si  tau(  52) = (   0.6855400   0.1133660   0.7798230  )
        53           Si  tau(  53) = (   0.8554110   0.6704710   0.8731400  )
        54           Si  tau(  54) = (   0.5381360   0.9168590   0.9973220  )
        55           Si  tau(  55) = (   0.2303110   0.8238050   0.1717340  )
        56           Si  tau(  56) = (   0.1280040   0.3511090   0.8949370  )
        57           Si  tau(  57) = (   0.6390820   0.6986450   0.7483200  )
        58           Si  tau(  58) = (   0.4970750   0.4420900   0.1543290  )
        59           Si  tau(  59) = (   0.9789940   0.9893190   0.6991650  )
        60           Si  tau(  60) = (   0.0503389   0.3086260   0.6878850  )
        61           Si  tau(  61) = (   0.0746914   0.0980162   0.2094560  )
        62           Si  tau(  62) = (   0.5903340   0.4145370   0.3706620  )
        63           Si  tau(  63) = (   0.7261420   0.4534150   0.8204930  )
        64           Si  tau(  64) = (   0.9052810   0.4282540   0.5513140  )

     number of k points=     1  Fermi-Dirac smearing, width (Ry)=  0.0100
                       cart. coord. in units 2pi/alat
        k(    1) = (   0.0000000   0.0000000   0.0000000), wk =   2.0000000

     Dense  grid:    91434 G-vectors     FFT dimensions: (  72,  72,  72)

     Estimated max dynamical RAM per process >     146.78 MB

     Estimated total dynamical RAM >     564.80 MB

     Initial potential from superposition of free atoms

     starting charge     255.9608, renormalised to     256.0000
     Starting wfcs are  256 randomized atomic wfcs

     total cpu time spent up to now is        4.5 secs

     Self-consistent Calculation

     iteration #  1     ecut=    30.00 Ry     beta= 0.50
     Davidson diagonalization with overlap
     ethr =  1.00E-02,  avg # of iterations =  3.0

     Threshold (ethr) on eigenvalues was too large:
     Diagonalizing with lowered threshold

     Davidson diagonalization with overlap
     ethr =  6.19E-04,  avg # of iterations =  4.0

     total cpu time spent up to now is        4.7 secs

     total energy              =    -500.21840703 Ry
     estimated scf accuracy    <       2.04597935 Ry

     iteration #  2     ecut=    30.00 Ry     beta= 0.50
     Davidson diagonalization with overlap
     ethr =  7.99E-04,  avg # of iterations =  5.0

     total cpu time spent up to now is        4.8 secs

     total energy              =    -498.99452732 Ry
     estimated scf accuracy    <      19.92891212 Ry

     iteration #  3     ecut=    30.00 Ry     beta= 0.50
     Davidson diagonalization with overlap
     ethr =  7.99E-04,  avg # of iterations =  4.0

     total cpu time spent up to now is        4.9 secs

     total energy              =    -500.65712206 Ry
     estimated scf accuracy    <       2.18756370 Ry

     iteration #  4     ecut=    30.00 Ry     beta= 0.50
     Davidson diagonalization with overlap
     ethr =  7.99E-04,  avg # of iterations =  2.0

     total cpu time spent up to now is        5.0 secs

     total energy              =    -500.83411344 Ry
     estimated scf accuracy    <       0.69019173 Ry

     iteration #  5     ecut=    30.00 Ry     beta= 0.50
     Davidson diagonalization with overlap
     ethr =  2.70E-04,  avg # of iterations =  2.0

     total cpu time spent up to now is        5.1 secs

     total energy              =    -500.86477903 Ry
     estimated scf accuracy    <       0.63938074 Ry

     iteration #  6     ecut=    30.00 Ry     beta= 0.50
     Davidson diagonalization with overlap
     ethr =  2.50E-04,  avg # of iterations =  2.0

     total cpu time spent up to now is        5.1 secs

     total energy              =    -500.91958472 Ry
     estimated scf accuracy    <       0.08318692 Ry

     iteration #  7     ecut=    30.00 Ry     beta= 0.50
     Davidson diagonalization with overlap
     ethr =  3.25E-05,  avg # of iterations =  2.0

     total cpu time spent up to now is        5.2 secs

     total energy              =    -500.92890928 Ry
     estimated scf accuracy    <       0.05231294 Ry

     iteration #  8     ecut=    30.00 Ry     beta= 0.50
     Davidson diagonalization with overlap
     ethr =  2.04E-05,  avg # of iterations =  3.0

     total cpu time spent up to now is        5.3 secs

     total energy              =    -500.93349245 Ry
     estimated scf accuracy    <       0.02803047 Ry

     iteration #  9     ecut=    30.00 Ry     beta= 0.50
     Davidson diagonalization with overlap
     ethr =  1.09E-05,  avg # of iterations =  2.0

     total cpu time spent up to now is        5.4 secs

     total energy              =    -500.93587106 Ry
     estimated scf accuracy    <       0.00328052 Ry

     iteration # 10     ecut=    30.00 Ry     beta= 0.50
     Davidson diagonalization with overlap
     ethr =  1.28E-06,  avg # of iterations = 14.0

     total cpu time spent up to now is        5.6 secs

     total energy              =    -500.93610390 Ry
     estimated scf accuracy    <       0.00433016 Ry

     iteration # 11     ecut=    30.00 Ry     beta= 0.50
     Davidson diagonalization with overlap
     ethr =  1.28E-06,  avg # of iterations =  2.0

     total cpu time spent up to now is        5.7 secs

     total energy              =    -500.93644421 Ry
     estimated scf accuracy    <       0.00078737 Ry

     iteration # 12     ecut=    30.00 Ry     beta= 0.50
     Davidson diagonalization with overlap
     ethr =  3.08E-07,  avg # of iterations =  2.0

     total cpu time spent up to now is        5.7 secs

     total energy              =    -500.93651427 Ry
     estimated scf accuracy    <       0.00047955 Ry

     iteration # 13     ecut=    30.00 Ry     beta= 0.50
     Davidson diagonalization with overlap
     ethr =  1.87E-07,  avg # of iterations =  2.0

     total cpu time spent up to now is        5.8 secs

     total energy              =    -500.93655108 Ry
     estimated scf accuracy    <       0.00039441 Ry

     iteration # 14     ecut=    30.00 Ry     beta= 0.50
     Davidson diagonalization with overlap
     ethr =  1.54E-07,  avg # of iterations =  1.0

     total cpu time spent up to now is        5.9 secs

     total energy              =    -500.93657706 Ry
     estimated scf accuracy    <       0.00002770 Ry

     iteration # 15     ecut=    30.00 Ry     beta= 0.50
     Davidson diagonalization with overlap
     ethr =  1.08E-08,  avg # of iterations =  4.0

     total cpu time spent up to now is        6.0 secs

     total energy              =    -500.93658058 Ry
     estimated scf accuracy    <       0.00005801 Ry

     iteration # 16     ecut=    30.00 Ry     beta= 0.50
     Davidson diagonalization with overlap
     ethr =  1.08E-08,  avg # of iterations =  3.0

     total cpu time spent up to now is        6.1 secs

     total energy              =    -500.93658438 Ry
     estimated scf accuracy    <       0.00002563 Ry

     iteration # 17     ecut=    30.00 Ry     beta= 0.50
     Davidson diagonalization with overlap
     ethr =  1.00E-08,  avg # of iterations =  2.0

     total cpu time spent up to now is        6.2 secs

     total energy              =    -500.93658572 Ry
     estimated scf accuracy    <       0.00000781 Ry

     iteration # 18     ecut=    30.00 Ry     beta= 0.50
     Davidson diagonalization with overlap
     ethr =  3.05E-09,  avg # of iterations =  3.0

     total cpu time spent up to now is        6.3 secs

     total energy              =    -500.93658624 Ry
     estimated scf accuracy    <       0.00000885 Ry

     iteration # 19     ecut=    30.00 Ry     beta= 0.50
     Davidson diagonalization with overlap
     ethr =  3.05E-09,  avg # of iterations =  2.0

     total cpu time spent up to now is        6.4 secs

     total energy              =    -500.93658676 Ry
     estimated scf accuracy    <       0.00000186 Ry

     iteration # 20     ecut=    30.00 Ry     beta= 0.50
     Davidson diagonalization with overlap
     ethr =  7.27E-10,  avg # of iterations =  2.0

     total cpu time spent up to now is        6.4 secs

     End of self-consistent calculation

          k = 0.0000 0.0000 0.0000 ( 11492 PWs)   bands (ev):

    -5.9448  -5.1044  -4.9406  -4.8756  -4.7860  -4.5934  -4.2340  -4.0664
    -3.9254  -3.8347  -3.7143  -3.6224  -3.4935  -3.4346  -3.1915  -3.0876
    -2.9646  -2.7248  -2.6479  -2.6050  -2.5213  -2.2388  -2.1145  -1.9399
    -1.7592  -1.5400  -1.5146  -1.2290  -1.1487  -1.0063  -0.9488  -0.8035
    -0.6888  -0.6242  -0.4995  -0.3066  -0.2910  -0.1631  -0.1396  -0.0218
     0.0312   0.1282   0.2299   0.2421   0.4524   0.4708   0.5650   0.6718
     0.7524   0.9620   1.0535   1.1460   1.2246   1.3213   1.3264   1.4351
     1.6666   1.7513   1.8489   1.9257   1.9969   2.0476   2.1397   2.1911
     2.3402   2.4143   2.4946   2.5959   2.6661   2.7144   2.8124   2.9507
     3.0110   3.0619   3.1507   3.2517   3.3159   3.5060   3.5980   3.6641
     3.7614   3.9038   3.9769   4.0526   4.2078   4.2312   4.2709   4.2845
     4.4608   4.5007   4.5909   4.6607   4.8089   4.8693   4.9387   5.0716
     5.0769   5.1494   5.2219   5.2417   5.3281   5.3580   5.4163   5.4737
     5.5396   5.5694   5.5883   5.7118   5.7986   5.8913   5.9263   5.9567
     6.0172   6.0940   6.1426   6.1884   6.3090   6.3570   6.3813   6.4656
     6.5067   6.5437   6.5647   6.6901   6.7374   6.7827   6.8514   6.9053
     6.9579   6.9810   7.0717   7.1565   7.2165   7.2638   7.2965   7.3697
     7.4230   7.4579   7.4755   7.6107   7.6313   7.7750   7.8229   7.8672
     7.8817   8.0128   8.0883   8.1186   8.1446   8.2349   8.3947   8.4293
     8.4887   8.5830

     the Fermi energy is     6.9306 ev

!    total energy              =    -500.93658650 Ry
     estimated scf accuracy    <       0.00000065 Ry
     smearing contrib. (-TS)   =      -0.15461249 Ry
     internal energy E=F+TS    =    -500.78197401 Ry

     The total energy is F=E-TS. E is the sum of the following terms:
     one-electron contribution =     152.00269505 Ry
     hartree contribution      =      40.17121635 Ry
     xc contribution           =    -151.50335879 Ry
     ewald contribution        =    -541.45252662 Ry

     convergence has been achieved in  20 iterations

     Forces acting on atoms (cartesian axes, Ry/au):

     atom    1 type  1   force =    -0.04027824   -0.02371617    0.01426677
     atom    2 type  1   force =    -0.03721995   -0.00312367    0.02622005
     atom    3 type  1   force =     0.02428147    0.00818537   -0.01506977
     atom    4 type  1   force =    -0.04971305   -0.06606539    0.06089145
     atom    5 type  1   force =     0.04710439   -0.00048361   -0.03701946
     atom    6 type  1   force =     0.04577462   -0.03999645   -0.02644766
     atom    7 type  1   force =     0.02187786    0.05562518   -0.00898316
     atom    8 type  1   force =     0.05990757    0.02412498   -0.01946743
     atom    9 type  1   force =    -0.02683524   -0.03093749   -0.02234736
     atom   10 type  1   force =     0.03968264   -0.01844268    0.02407383
     atom   11 type  1   force =    -0.00817666   -0.01615177    0.01943198
     atom   12 type  1   force =     0.03376231   -0.03957104   -0.03360616
     atom   13 type  1   force =    -0.00615409   -0.04750168   -0.00814215
     atom   14 type  1   force =     0.01562723    0.02154140   -0.04456030
     atom   15 type  1   force =    -0.00049312    0.02847466   -0.01177336
     atom   16 type  1   force =     0.00572573    0.04535265   -0.04485840
     atom   17 type  1   force =    -0.00206653   -0.00413736   -0.02251255
     atom   18 type  1   force =    -0.03499012    0.02853886   -0.00411298
     atom   19 type  1   force =     0.03289854    0.00733110   -0.02239784
     atom   20 type  1   force =    -0.01319343   -0.00114556    0.00427696
     atom   21 type  1   force =     0.01422004   -0.01959958    0.00274997
     atom   22 type  1   force =    -0.00775954   -0.03011990    0.00325541
     atom   23 type  1   force =    -0.08236842    0.00260267   -0.01226498
     atom   24 type  1   force =     0.00142255   -0.01090574    0.00146931
     atom   25 type  1   force =    -0.04217267    0.01546157   -0.01397170
     atom   26 type  1   force =     0.08209307   -0.04805728   -0.07804670
     atom   27 type  1   force =    -0.04491232    0.02418591   -0.02788155
     atom   28 type  1   force =     0.00394919    0.01151952   -0.01634313
     atom   29 type  1   force =     0.02537796    0.01317404    0.01193179
     atom   30 type  1   force =    -0.00123459    0.05276329    0.02053457
     atom   31 type  1   force =    -0.01983917    0.01050880    0.02265104
     atom   32 type  1   force =    -0.05494477    0.01039827    0.03162847
     atom   33 type  1   force =    -0.00325424   -0.01987879    0.06099387
     atom   34 type  1   force =     0.00019051   -0.01026363   -0.00205873
     atom   35 type  1   force =     0.00326944    0.00332961    0.01092897
     atom   36 type  1   force =    -0.02134950   -0.00884134   -0.00011990
     atom   37 type  1   force =     0.03922168    0.01520889   -0.00281115
     atom   38 type  1   force =    -0.03328181   -0.01295499    0.03889793
     atom   39 type  1   force =     0.05020254    0.00067012   -0.03571475
     atom   40 type  1   force =     0.05525311    0.00049474    0.02921658
     atom   41 type  1   force =     0.01334516    0.02808034    0.06697172
     atom   42 type  1   force =    -0.01868879    0.05081901    0.00308591
     atom   43 type  1   force =    -0.01781186    0.00352264    0.01351259
     atom   44 type  1   force =    -0.01015026   -0.02811623   -0.01977289
     atom   45 type  1   force =    -0.01845357    0.02994185   -0.02085281
     atom   46 type  1   force =     0.01750384    0.00736255   -0.01019422
     atom   47 type  1   force =    -0.00846817   -0.04715584    0.02863054
     atom   48 type  1   force =    -0.00371649    0.06741634    0.00677744
     atom   49 type  1   force =    -0.04235534    0.00108972    0.02619088
     atom   50 type  1   force =     0.03490009   -0.05599736    0.02845195
     atom   51 type  1   force =     0.06576229   -0.04303242    0.05794838
     atom   52 type  1   force =     0.01373893   -0.00632271    0.00090005
     atom   53 type  1   force =    -0.00458494    0.00382002   -0.02043154
     atom   54 type  1   force =    -0.00779702    0.05458916   -0.06891522
     atom   55 type  1   force =    -0.00040974    0.01425197   -0.03909276
     atom   56 type  1   force =    -0.00513661    0.02365444    0.01594369
     atom   57 type  1   force =    -0.03040670   -0.01081786    0.04267097
     atom   58 type  1   force =     0.02073811   -0.01442489   -0.02763659
     atom   59 type  1   force =     0.00276086    0.01666162   -0.02732747
     atom   60 type  1   force =    -0.00045316   -0.00739763    0.00243349
     atom   61 type  1   force =    -0.07846078    0.01584996    0.03191318
     atom   62 type  1   force =    -0.01714242   -0.02528356    0.00212894
     atom   63 type  1   force =     0.02741856   -0.00321350    0.01115704
     atom   64 type  1   force =    -0.00373699   -0.00289512    0.02259895

     Total force =     0.418932     Total SCF correction =     0.001574


     Computing stress (Cartesian axis) and pressure

          total   stress  (Ry/bohr**3)                   (kbar)     P=        0.34
   0.00010165   0.00001641  -0.00000981           14.95        2.41       -1.44
   0.00001641  -0.00000933  -0.00002455            2.41       -1.37       -3.61
  -0.00000981  -0.00002455  -0.00008538           -1.44       -3.61      -12.56

 
     init_run     :      0.95s CPU      4.41s WALL (       1 calls)
     electrons    :      1.78s CPU      1.96s WALL (       1 calls)
     forces       :      0.03s CPU      0.03s WALL (       1 calls)
     stress       :      0.14s CPU      0.14s WALL (       1 calls)

     Called by init_run:
     wfcinit      :      0.44s CPU      3.73s WALL (       1 calls)
                                        3.73s GPU  (       1 calls)
     potinit      :      0.04s CPU      0.13s WALL (       1 calls)
     hinit0       :      0.45s CPU      0.48s WALL (       1 calls)

     Called by electrons:
     c_bands      :      1.13s CPU      1.22s WALL (      21 calls)
     sum_band     :      0.33s CPU      0.39s WALL (      21 calls)
     v_of_rho     :      0.14s CPU      0.24s WALL (      21 calls)
     mix_rho      :      0.15s CPU      0.17s WALL (      21 calls)

     Called by c_bands:
     init_us_2    :      0.05s CPU      0.06s WALL (      43 calls)
     init_us_2:gp :      0.05s CPU      0.06s WALL (      43 calls)
     regterg      :      0.98s CPU      1.05s WALL (      21 calls)

     Called by *egterg:
     rdiaghg      :      0.40s CPU      1.07s WALL (      86 calls)
                                        1.05s GPU  (      86 calls)
     h_psi        :      0.84s CPU      3.52s WALL (      88 calls)
                                        3.51s GPU  (      88 calls)
     g_psi        :      0.00s CPU      0.00s WALL (      66 calls)
                                        0.00s GPU  (      66 calls)

     Called by h_psi:
     h_psi:calbec :      0.42s CPU      3.01s WALL (      88 calls)
                                        3.01s GPU  (      88 calls)
     vloc_psi     :      0.38s CPU      0.45s WALL (      88 calls)
                                        0.45s GPU  (      88 calls)
     add_vuspsi   :      0.03s CPU      0.05s WALL (      88 calls)
                                        0.04s GPU  (      88 calls)

     General routines
     calbec       :      0.42s CPU      3.02s WALL (      93 calls)
     fft          :      0.57s CPU      0.69s WALL (     175 calls)
                                        0.12s GPU  (     111 calls)
     ffts         :      0.03s CPU      0.04s WALL (      21 calls)
     fftw         :      0.47s CPU      0.61s WALL (    2203 calls)
                                        0.53s GPU  (    2203 calls)
 
     Parallel routines
 
     PWSCF        :      2.94s CPU      6.63s WALL

 
   This run was terminated on:  12:12:39  11May2023            

=------------------------------------------------------------------------------=
   JOB DONE.
=------------------------------------------------------------------------------=
