An instance of this daemon is already running
An instance of this daemon is already running

     Program PWSCF v.7.1 starts on 11May2023 at 12:11: 4 

     This program is part of the open-source Quantum ESPRESSO suite
     for quantum simulation of materials; please cite
         "P. Giannozzi et al., J. Phys.:Condens. Matter 21 395502 (2009);
         "P. Giannozzi et al., J. Phys.:Condens. Matter 29 465901 (2017);
         "P. Giannozzi et al., J. Chem. Phys. 152 154105 (2020);
          URL http://www.quantum-espresso.org", 
     in publications or presentations arising from this work. More details at
     http://www.quantum-espresso.org/quote

     Parallel version (MPI & OpenMP), running on       4 processor cores
     Number of MPI processes:                 4
     Threads/MPI process:                     1

     MPI processes distributed on     1 nodes
     636502 MiB available memory on the printing compute node when the environment starts
 
     Reading input from pw-si-53.in
Warning: card &CELL ignored
Warning: card / ignored

     Current dimensions of program PWSCF are:
     Max number of different atomic species (ntypx) = 10
     Max number of k-points (npk) =  40000
     Max angular momentum in pseudopotentials (lmaxx) =  4

     IMPORTANT: XC functional enforced from input :
     Exchange-correlation= PBE
                           (   1   4   3   4   0   0   0)
     Any further DFT definition will be discarded
     Please, verify this is what you really want


     gamma-point specific algorithms are used
 
     K-points division:     npool     =       2
     R & G space division:  proc/nbgrp/npool/nimage =       2
     Subspace diagonalization in iterative solution of the eigenvalue problem:
     a serial algorithm will be used

     Message from routine divide_et_impera:
     suboptimal parallelization: some nodes have no k-points
 
     Parallelization info
     --------------------
     sticks:   dense  smooth     PW     G-vecs:    dense   smooth      PW
     Min        1955    1955    520                92369    92369   12632
     Max        1962    1962    521                92370    92370   12637
     Sum        3917    3917   1041               184739   184739   25269
 
     Using Slab Decomposition
 


     bravais-lattice index     =            0
     lattice parameter (alat)  =      20.2728  a.u.
     unit-cell volume          =    8331.8873 (a.u.)^3
     number of atoms/cell      =           64
     number of atomic types    =            1
     number of electrons       =       256.00
     number of Kohn-Sham states=          154
     kinetic-energy cutoff     =      30.0000  Ry
     charge density cutoff     =     120.0000  Ry
     scf convergence threshold =      1.0E-06
     mixing beta               =       0.5000
     number of iterations used =            8  plain     mixing
     Exchange-correlation= PBE
                           (   1   4   3   4   0   0   0)

     GPU acceleration is ACTIVE.
     GPU-aware MPI enabled

     Message from routine print_cuda_info:
     High GPU oversubscription detected. Are you sure this is what you want?

     celldm(1)=  20.272834  celldm(2)=   0.000000  celldm(3)=   0.000000
     celldm(4)=   0.000000  celldm(5)=   0.000000  celldm(6)=   0.000000

     crystal axes: (cart. coord. in units of alat)
               a(1) = (   1.000000   0.000000   0.000000 )  
               a(2) = (   0.000000   1.000000   0.000000 )  
               a(3) = (   0.000000   0.000000   1.000000 )  

     reciprocal axes: (cart. coord. in units 2 pi/alat)
               b(1) = (  1.000000  0.000000  0.000000 )  
               b(2) = (  0.000000  1.000000  0.000000 )  
               b(3) = (  0.000000  0.000000  1.000000 )  


     PseudoPot. # 1 for Si read from file:
     /home/ppiaggi/pseudos/Si_ONCV_PBE_sr.upf
     MD5 check sum: 8553c464762ac42b85b1eed164b4d029
     Pseudo is Norm-conserving, Zval =  4.0
     Generated using ONCVPSP code by D. R. Hamann
     Using radial grid of 1510 points,  4 beta functions with: 
                l(1) =   0
                l(2) =   0
                l(3) =   1
                l(4) =   1

     atomic species   valence    mass     pseudopotential
        Si             4.00    28.08500     Si( 1.00)

     No symmetry found



   Cartesian axes

     site n.     atom                  positions (alat units)
         1           Si  tau(   1) = (   0.9451330   0.2582150   0.3092400  )
         2           Si  tau(   2) = (   0.2874450   0.2296840   0.6428480  )
         3           Si  tau(   3) = (   0.7892870   0.1551030   0.0342777  )
         4           Si  tau(   4) = (   0.5023740   0.8083620   0.1359970  )
         5           Si  tau(   5) = (   0.3135170   0.1262620   0.8457730  )
         6           Si  tau(   6) = (   0.3517330   0.0219231   0.1515620  )
         7           Si  tau(   7) = (   0.1776240   0.3926180   0.2850900  )
         8           Si  tau(   8) = (   0.6163830   0.0534364   0.1566640  )
         9           Si  tau(   9) = (   0.6675930   0.9194740   0.8882530  )
        10           Si  tau(  10) = (   0.1882730   0.0167989   0.5074060  )
        11           Si  tau(  11) = (   0.3227220   0.6375820   0.2986440  )
        12           Si  tau(  12) = (   0.9639010   0.5120130   0.0323961  )
        13           Si  tau(  13) = (   0.6758080   0.5877630   0.5956220  )
        14           Si  tau(  14) = (   0.7295810   0.2375270   0.4333330  )
        15           Si  tau(  15) = (   0.1279090   0.6826350   0.6048050  )
        16           Si  tau(  16) = (   0.5004510   0.5184090   0.4764770  )
        17           Si  tau(  17) = (   0.4060030   0.6786120   0.9293480  )
        18           Si  tau(  18) = (   0.9203000   0.2379000   0.8416130  )
        19           Si  tau(  19) = (   0.6325730   0.3272030   0.8687230  )
        20           Si  tau(  20) = (   0.2633470   0.5208580   0.9705140  )
        21           Si  tau(  21) = (   0.5087940   0.0189464   0.7188630  )
        22           Si  tau(  22) = (   0.9143550   0.8200030   0.6772470  )
        23           Si  tau(  23) = (   0.0717528   0.4505780   0.5429240  )
        24           Si  tau(  24) = (   0.6948630   0.6727820   0.1748180  )
        25           Si  tau(  25) = (   0.8093520   0.9566360   0.2278680  )
        26           Si  tau(  26) = (   0.8200450   0.5598490   0.4127950  )
        27           Si  tau(  27) = (   0.5853230   0.0496076   0.3797870  )
        28           Si  tau(  28) = (   0.9845380   0.0033465   0.3763060  )
        29           Si  tau(  29) = (   0.5259580   0.7409000   0.3558510  )
        30           Si  tau(  30) = (   0.8123100   0.9322680   0.4867240  )
        31           Si  tau(  31) = (   0.5945950   0.5659670   0.0093008  )
        32           Si  tau(  32) = (   0.9638070   0.6822820   0.2184120  )
        33           Si  tau(  33) = (   0.1410130   0.7384290   0.9448950  )
        34           Si  tau(  34) = (   0.9676000   0.6176210   0.7722970  )
        35           Si  tau(  35) = (   0.4859760   0.7408620   0.5743190  )
        36           Si  tau(  36) = (   0.3451140   0.9541050   0.3599720  )
        37           Si  tau(  37) = (   0.1706700   0.9684440   0.9086850  )
        38           Si  tau(  38) = (   0.2940900   0.8333280   0.5460310  )
        39           Si  tau(  39) = (   0.3594900   0.8356510   0.7526450  )
        40           Si  tau(  40) = (   0.2123570   0.2062870   0.3826730  )
        41           Si  tau(  41) = (   0.8519890   0.9412670   0.0151624  )
        42           Si  tau(  42) = (   0.6002780   0.9194650   0.5794090  )
        43           Si  tau(  43) = (   0.3394740   0.2481730   0.0580419  )
        44           Si  tau(  44) = (   0.9656630   0.2887640   0.0624200  )
        45           Si  tau(  45) = (   0.0228525   0.9186050   0.1506280  )
        46           Si  tau(  46) = (   0.9286050   0.1608910   0.5634860  )
        47           Si  tau(  47) = (   0.4725610   0.1572900   0.5518110  )
        48           Si  tau(  48) = (   0.4317010   0.1764090   0.2570760  )
        49           Si  tau(  49) = (   0.4990780   0.4982500   0.7832800  )
        50           Si  tau(  50) = (   0.1299120   0.6658280   0.3701150  )
        51           Si  tau(  51) = (   0.3182320   0.4757220   0.6433740  )
        52           Si  tau(  52) = (   0.7516450   0.0867516   0.7652060  )
        53           Si  tau(  53) = (   0.8501800   0.7062340   0.0345022  )
        54           Si  tau(  54) = (   0.4929050   0.0977270   0.9600950  )
        55           Si  tau(  55) = (   0.2826260   0.8152400   0.1460130  )
        56           Si  tau(  56) = (   0.1021640   0.3815430   0.9373330  )
        57           Si  tau(  57) = (   0.6510210   0.6915900   0.8370060  )
        58           Si  tau(  58) = (   0.5829130   0.3498810   0.1308090  )
        59           Si  tau(  59) = (   0.0366953   0.0009977   0.7010630  )
        60           Si  tau(  60) = (   0.0720683   0.2762110   0.7154000  )
        61           Si  tau(  61) = (   0.1376970   0.1305490   0.1977960  )
        62           Si  tau(  62) = (   0.5870900   0.3721940   0.3442280  )
        63           Si  tau(  63) = (   0.8283190   0.4079270   0.8073130  )
        64           Si  tau(  64) = (   0.8525940   0.4211370   0.5753270  )

     number of k points=     1  Fermi-Dirac smearing, width (Ry)=  0.0100
                       cart. coord. in units 2pi/alat
        k(    1) = (   0.0000000   0.0000000   0.0000000), wk =   2.0000000

     Dense  grid:    92370 G-vectors     FFT dimensions: (  72,  72,  72)

     Estimated max dynamical RAM per process >     148.11 MB

     Estimated total dynamical RAM >     569.89 MB

     Initial potential from superposition of free atoms

     starting charge     255.9608, renormalised to     256.0000
     Starting wfcs are  256 randomized atomic wfcs

     total cpu time spent up to now is        4.5 secs

     Self-consistent Calculation

     iteration #  1     ecut=    30.00 Ry     beta= 0.50
     Davidson diagonalization with overlap
     ethr =  1.00E-02,  avg # of iterations =  3.0

     Threshold (ethr) on eigenvalues was too large:
     Diagonalizing with lowered threshold

     Davidson diagonalization with overlap
     ethr =  6.71E-04,  avg # of iterations =  4.0

     total cpu time spent up to now is        4.7 secs

     total energy              =    -500.08284132 Ry
     estimated scf accuracy    <       2.18659983 Ry

     iteration #  2     ecut=    30.00 Ry     beta= 0.50
     Davidson diagonalization with overlap
     ethr =  8.54E-04,  avg # of iterations =  6.0

     total cpu time spent up to now is        4.8 secs

     total energy              =    -498.93176544 Ry
     estimated scf accuracy    <      17.64037507 Ry

     iteration #  3     ecut=    30.00 Ry     beta= 0.50
     Davidson diagonalization with overlap
     ethr =  8.54E-04,  avg # of iterations =  4.0

     total cpu time spent up to now is        4.9 secs

     total energy              =    -500.43207983 Ry
     estimated scf accuracy    <       4.03032678 Ry

     iteration #  4     ecut=    30.00 Ry     beta= 0.50
     Davidson diagonalization with overlap
     ethr =  8.54E-04,  avg # of iterations =  2.0

     total cpu time spent up to now is        5.0 secs

     total energy              =    -500.75694045 Ry
     estimated scf accuracy    <       0.57421275 Ry

     iteration #  5     ecut=    30.00 Ry     beta= 0.50
     Davidson diagonalization with overlap
     ethr =  2.24E-04,  avg # of iterations =  2.0

     total cpu time spent up to now is        5.1 secs

     total energy              =    -500.77724109 Ry
     estimated scf accuracy    <       0.53870578 Ry

     iteration #  6     ecut=    30.00 Ry     beta= 0.50
     Davidson diagonalization with overlap
     ethr =  2.10E-04,  avg # of iterations =  2.0

     total cpu time spent up to now is        5.2 secs

     total energy              =    -500.82764418 Ry
     estimated scf accuracy    <       0.13536189 Ry

     iteration #  7     ecut=    30.00 Ry     beta= 0.50
     Davidson diagonalization with overlap
     ethr =  5.29E-05,  avg # of iterations =  2.0

     total cpu time spent up to now is        5.2 secs

     total energy              =    -500.83885387 Ry
     estimated scf accuracy    <       0.02446680 Ry

     iteration #  8     ecut=    30.00 Ry     beta= 0.50
     Davidson diagonalization with overlap
     ethr =  9.56E-06,  avg # of iterations = 10.0

     total cpu time spent up to now is        5.4 secs

     total energy              =    -500.84064680 Ry
     estimated scf accuracy    <       0.05095307 Ry

     iteration #  9     ecut=    30.00 Ry     beta= 0.50
     Davidson diagonalization with overlap
     ethr =  9.56E-06,  avg # of iterations =  2.0

     total cpu time spent up to now is        5.5 secs

     total energy              =    -500.84444094 Ry
     estimated scf accuracy    <       0.00228431 Ry

     iteration # 10     ecut=    30.00 Ry     beta= 0.50
     Davidson diagonalization with overlap
     ethr =  8.92E-07,  avg # of iterations = 19.0

     total cpu time spent up to now is        5.7 secs

     total energy              =    -500.84466138 Ry
     estimated scf accuracy    <       0.00361589 Ry

     iteration # 11     ecut=    30.00 Ry     beta= 0.50
     Davidson diagonalization with overlap
     ethr =  8.92E-07,  avg # of iterations =  3.0

     total cpu time spent up to now is        5.8 secs

     total energy              =    -500.84487732 Ry
     estimated scf accuracy    <       0.00104844 Ry

     iteration # 12     ecut=    30.00 Ry     beta= 0.50
     Davidson diagonalization with overlap
     ethr =  4.10E-07,  avg # of iterations =  2.0

     total cpu time spent up to now is        5.9 secs

     total energy              =    -500.84495145 Ry
     estimated scf accuracy    <       0.00061862 Ry

     iteration # 13     ecut=    30.00 Ry     beta= 0.50
     Davidson diagonalization with overlap
     ethr =  2.42E-07,  avg # of iterations =  2.0

     total cpu time spent up to now is        5.9 secs

     total energy              =    -500.84499052 Ry
     estimated scf accuracy    <       0.00063002 Ry

     iteration # 14     ecut=    30.00 Ry     beta= 0.50
     Davidson diagonalization with overlap
     ethr =  2.42E-07,  avg # of iterations =  1.0

     total cpu time spent up to now is        6.0 secs

     total energy              =    -500.84503147 Ry
     estimated scf accuracy    <       0.00002443 Ry

     iteration # 15     ecut=    30.00 Ry     beta= 0.50
     Davidson diagonalization with overlap
     ethr =  9.54E-09,  avg # of iterations =  5.0

     total cpu time spent up to now is        6.1 secs

     total energy              =    -500.84503197 Ry
     estimated scf accuracy    <       0.00007473 Ry

     iteration # 16     ecut=    30.00 Ry     beta= 0.50
     Davidson diagonalization with overlap
     ethr =  9.54E-09,  avg # of iterations =  3.0

     total cpu time spent up to now is        6.2 secs

     total energy              =    -500.84503703 Ry
     estimated scf accuracy    <       0.00002322 Ry

     iteration # 17     ecut=    30.00 Ry     beta= 0.50
     Davidson diagonalization with overlap
     ethr =  9.07E-09,  avg # of iterations =  2.0

     total cpu time spent up to now is        6.3 secs

     total energy              =    -500.84503796 Ry
     estimated scf accuracy    <       0.00001150 Ry

     iteration # 18     ecut=    30.00 Ry     beta= 0.50
     Davidson diagonalization with overlap
     ethr =  4.49E-09,  avg # of iterations =  2.0

     total cpu time spent up to now is        6.4 secs

     total energy              =    -500.84503899 Ry
     estimated scf accuracy    <       0.00000618 Ry

     iteration # 19     ecut=    30.00 Ry     beta= 0.50
     Davidson diagonalization with overlap
     ethr =  2.41E-09,  avg # of iterations =  1.0

     total cpu time spent up to now is        6.5 secs

     End of self-consistent calculation

          k = 0.0000 0.0000 0.0000 ( 11516 PWs)   bands (ev):

    -6.0540  -5.4820  -5.1481  -4.9514  -4.7305  -4.6250  -4.3046  -4.1837
    -3.9947  -3.8336  -3.8056  -3.5589  -3.4772  -3.3286  -3.2601  -3.1557
    -2.9031  -2.8619  -2.8335  -2.7228  -2.4178  -2.1654  -2.1458  -1.9805
    -1.8027  -1.7082  -1.5868  -1.3039  -1.2371  -1.1863  -0.9844  -0.8798
    -0.7722  -0.6831  -0.4821  -0.3989  -0.2915  -0.1751  -0.1146  -0.1106
     0.0007   0.1174   0.1623   0.2933   0.3881   0.4303   0.5688   0.6484
     0.7621   0.7887   0.8509   0.9543   0.9835   1.1323   1.3299   1.3540
     1.4936   1.6211   1.6954   1.7661   1.8469   1.9895   2.0592   2.1946
     2.3207   2.3716   2.4697   2.5481   2.6281   2.7346   2.8296   2.8773
     2.8901   2.9592   3.0741   3.2250   3.3634   3.4517   3.5401   3.6672
     3.7536   3.7901   3.8936   4.0026   4.1431   4.1568   4.2587   4.3174
     4.3876   4.4899   4.5465   4.5728   4.6517   4.7004   4.7971   4.8722
     4.8997   4.9988   5.0415   5.1171   5.1731   5.2674   5.3064   5.3540
     5.4077   5.4807   5.5231   5.5902   5.6319   5.6565   5.7399   5.8196
     5.9321   6.0153   6.0578   6.0901   6.1428   6.2258   6.2690   6.3834
     6.3862   6.4465   6.5450   6.6726   6.7154   6.7697   6.8090   6.8637
     6.9070   6.9706   6.9849   7.0827   7.1355   7.1523   7.1993   7.2313
     7.3056   7.3931   7.4013   7.4870   7.5996   7.6826   7.7153   7.7753
     7.8044   7.8738   7.8887   8.0048   8.0831   8.1466   8.2058   8.2391
     8.3972   8.4418

     the Fermi energy is     6.8773 ev

!    total energy              =    -500.84503909 Ry
     estimated scf accuracy    <       0.00000047 Ry
     smearing contrib. (-TS)   =      -0.16281581 Ry
     internal energy E=F+TS    =    -500.68222328 Ry

     The total energy is F=E-TS. E is the sum of the following terms:
     one-electron contribution =     151.11835255 Ry
     hartree contribution      =      39.68111034 Ry
     xc contribution           =    -151.18190653 Ry
     ewald contribution        =    -540.29977964 Ry

     convergence has been achieved in  19 iterations

     Forces acting on atoms (cartesian axes, Ry/au):

     atom    1 type  1   force =     0.01580509   -0.02665899    0.01585626
     atom    2 type  1   force =    -0.02531661    0.02440858    0.02253449
     atom    3 type  1   force =    -0.02797112    0.00387458   -0.01371273
     atom    4 type  1   force =     0.03966194    0.01492372   -0.03159506
     atom    5 type  1   force =    -0.00956799    0.00261027   -0.01756457
     atom    6 type  1   force =    -0.03509584   -0.01969570   -0.08939654
     atom    7 type  1   force =    -0.02799483    0.05183111    0.00478461
     atom    8 type  1   force =    -0.01507261    0.00367115   -0.01681165
     atom    9 type  1   force =    -0.01581737   -0.00680798   -0.00741433
     atom   10 type  1   force =    -0.04807077    0.04013718    0.00328918
     atom   11 type  1   force =     0.04268332   -0.01006577   -0.03832112
     atom   12 type  1   force =    -0.02659000    0.02907482    0.02114133
     atom   13 type  1   force =     0.01614886    0.01058216    0.02938604
     atom   14 type  1   force =     0.03450833   -0.01750465    0.00627948
     atom   15 type  1   force =    -0.01271948   -0.01730538   -0.00917429
     atom   16 type  1   force =    -0.05170867    0.02645469    0.01680246
     atom   17 type  1   force =     0.02739950    0.02054820   -0.01395717
     atom   18 type  1   force =    -0.01351082   -0.13417417    0.06924221
     atom   19 type  1   force =    -0.01408339   -0.01320436    0.02412877
     atom   20 type  1   force =     0.01316434   -0.00063229    0.01429702
     atom   21 type  1   force =    -0.06552057    0.04654581    0.13070097
     atom   22 type  1   force =     0.00018439   -0.00736913   -0.02715897
     atom   23 type  1   force =     0.02816114    0.01143275   -0.00933456
     atom   24 type  1   force =    -0.02746210    0.00858568    0.05790198
     atom   25 type  1   force =    -0.01399418   -0.00301448    0.06068632
     atom   26 type  1   force =    -0.01191840    0.02808780   -0.03721973
     atom   27 type  1   force =     0.01092094    0.00775392    0.03173343
     atom   28 type  1   force =     0.02616264    0.04194041   -0.03579592
     atom   29 type  1   force =    -0.00589414   -0.01477931   -0.00645407
     atom   30 type  1   force =    -0.03458986   -0.01549291    0.03764341
     atom   31 type  1   force =    -0.02206158   -0.02490615    0.00741959
     atom   32 type  1   force =     0.02048227   -0.00735534    0.03407271
     atom   33 type  1   force =     0.01284956    0.00676867    0.01519293
     atom   34 type  1   force =     0.00473514    0.00540857    0.00628147
     atom   35 type  1   force =     0.03298231   -0.03996784    0.01066304
     atom   36 type  1   force =     0.02420174    0.00344364    0.00698746
     atom   37 type  1   force =    -0.02031753   -0.01517115   -0.04106523
     atom   38 type  1   force =    -0.03308256   -0.03093733   -0.00677545
     atom   39 type  1   force =     0.01153477    0.02069773    0.04267731
     atom   40 type  1   force =     0.03555892   -0.02237367    0.05039507
     atom   41 type  1   force =    -0.00930363   -0.01089609   -0.03436679
     atom   42 type  1   force =     0.10760407   -0.04259678   -0.11896233
     atom   43 type  1   force =    -0.00067110    0.02116648   -0.00151202
     atom   44 type  1   force =    -0.01836702   -0.03157081    0.07475127
     atom   45 type  1   force =     0.03918493   -0.01456156    0.02606241
     atom   46 type  1   force =    -0.01937172   -0.02024277   -0.01061309
     atom   47 type  1   force =     0.01637248   -0.01719353   -0.01516088
     atom   48 type  1   force =     0.03865034    0.07678075    0.07468379
     atom   49 type  1   force =    -0.00714300    0.01402630    0.00950587
     atom   50 type  1   force =    -0.04969839   -0.00948436    0.05162853
     atom   51 type  1   force =     0.00135811   -0.01612236   -0.01069141
     atom   52 type  1   force =    -0.00277498    0.01904559   -0.00882007
     atom   53 type  1   force =     0.00190755    0.01303230   -0.06965579
     atom   54 type  1   force =     0.03886207   -0.01027716    0.01390906
     atom   55 type  1   force =    -0.04852894   -0.04481815   -0.00975619
     atom   56 type  1   force =     0.05820332   -0.00263249   -0.07497553
     atom   57 type  1   force =     0.01832681    0.00201462   -0.03052730
     atom   58 type  1   force =    -0.02140223   -0.01562046   -0.05669171
     atom   59 type  1   force =     0.02920596   -0.00124247    0.01517664
     atom   60 type  1   force =     0.08734105    0.02481726   -0.06625016
     atom   61 type  1   force =    -0.02179183   -0.02377728   -0.05146738
     atom   62 type  1   force =    -0.00386779   -0.00437665   -0.01247748
     atom   63 type  1   force =    -0.04752896    0.14211034   -0.03732763
     atom   64 type  1   force =    -0.02535188   -0.02894552    0.02519207

     Total force =     0.503600     Total SCF correction =     0.001242


     Computing stress (Cartesian axis) and pressure

          total   stress  (Ry/bohr**3)                   (kbar)     P=       -2.25
   0.00003734  -0.00005628   0.00000566            5.49       -8.28        0.83
  -0.00005628  -0.00015022   0.00006030           -8.28      -22.10        8.87
   0.00000566   0.00006030   0.00006691            0.83        8.87        9.84

 
     init_run     :      0.97s CPU      4.43s WALL (       1 calls)
     electrons    :      1.82s CPU      1.97s WALL (       1 calls)
     forces       :      0.03s CPU      0.03s WALL (       1 calls)
     stress       :      0.14s CPU      0.14s WALL (       1 calls)

     Called by init_run:
     wfcinit      :      0.46s CPU      3.76s WALL (       1 calls)
                                        3.76s GPU  (       1 calls)
     potinit      :      0.04s CPU      0.13s WALL (       1 calls)
     hinit0       :      0.45s CPU      0.48s WALL (       1 calls)

     Called by electrons:
     c_bands      :      1.19s CPU      1.26s WALL (      20 calls)
     sum_band     :      0.31s CPU      0.36s WALL (      20 calls)
     v_of_rho     :      0.14s CPU      0.23s WALL (      20 calls)
     mix_rho      :      0.14s CPU      0.16s WALL (      20 calls)

     Called by c_bands:
     init_us_2    :      0.05s CPU      0.06s WALL (      41 calls)
     init_us_2:gp :      0.05s CPU      0.05s WALL (      41 calls)
     regterg      :      1.05s CPU      1.11s WALL (      20 calls)

     Called by *egterg:
     rdiaghg      :      0.46s CPU      1.14s WALL (      96 calls)
                                        1.12s GPU  (      96 calls)
     h_psi        :      0.88s CPU      3.54s WALL (      98 calls)
                                        3.54s GPU  (      98 calls)
     g_psi        :      0.00s CPU      0.00s WALL (      77 calls)
                                        0.00s GPU  (      77 calls)

     Called by h_psi:
     h_psi:calbec :      0.45s CPU      3.04s WALL (      98 calls)
                                        3.04s GPU  (      98 calls)
     vloc_psi     :      0.38s CPU      0.44s WALL (      98 calls)
                                        0.44s GPU  (      98 calls)
     add_vuspsi   :      0.04s CPU      0.05s WALL (      98 calls)
                                        0.05s GPU  (      98 calls)

     General routines
     calbec       :      0.45s CPU      3.04s WALL (     103 calls)
     fft          :      0.56s CPU      0.68s WALL (     167 calls)
                                        0.12s GPU  (     106 calls)
     ffts         :      0.03s CPU      0.04s WALL (      20 calls)
     fftw         :      0.45s CPU      0.59s WALL (    2124 calls)
                                        0.52s GPU  (    2124 calls)
 
     Parallel routines
 
     PWSCF        :      3.00s CPU      6.65s WALL

 
   This run was terminated on:  12:11:10  11May2023            

=------------------------------------------------------------------------------=
   JOB DONE.
=------------------------------------------------------------------------------=
