An instance of this daemon is already running
An instance of this daemon is already running

     Program PWSCF v.7.1 starts on 11May2023 at 12:10:55 

     This program is part of the open-source Quantum ESPRESSO suite
     for quantum simulation of materials; please cite
         "P. Giannozzi et al., J. Phys.:Condens. Matter 21 395502 (2009);
         "P. Giannozzi et al., J. Phys.:Condens. Matter 29 465901 (2017);
         "P. Giannozzi et al., J. Chem. Phys. 152 154105 (2020);
          URL http://www.quantum-espresso.org", 
     in publications or presentations arising from this work. More details at
     http://www.quantum-espresso.org/quote

     Parallel version (MPI & OpenMP), running on       4 processor cores
     Number of MPI processes:                 4
     Threads/MPI process:                     1

     MPI processes distributed on     1 nodes
     636582 MiB available memory on the printing compute node when the environment starts
 
     Reading input from pw-si-52.in
Warning: card &CELL ignored
Warning: card / ignored

     Current dimensions of program PWSCF are:
     Max number of different atomic species (ntypx) = 10
     Max number of k-points (npk) =  40000
     Max angular momentum in pseudopotentials (lmaxx) =  4

     IMPORTANT: XC functional enforced from input :
     Exchange-correlation= PBE
                           (   1   4   3   4   0   0   0)
     Any further DFT definition will be discarded
     Please, verify this is what you really want


     gamma-point specific algorithms are used
 
     K-points division:     npool     =       2
     R & G space division:  proc/nbgrp/npool/nimage =       2
     Subspace diagonalization in iterative solution of the eigenvalue problem:
     a serial algorithm will be used

     Message from routine divide_et_impera:
     suboptimal parallelization: some nodes have no k-points
 
     Parallelization info
     --------------------
     sticks:   dense  smooth     PW     G-vecs:    dense   smooth      PW
     Min        1954    1954    520                92174    92174   12632
     Max        1955    1955    521                92181    92181   12637
     Sum        3909    3909   1041               184355   184355   25269
 
     Using Slab Decomposition
 


     bravais-lattice index     =            0
     lattice parameter (alat)  =      20.2679  a.u.
     unit-cell volume          =    8325.8020 (a.u.)^3
     number of atoms/cell      =           64
     number of atomic types    =            1
     number of electrons       =       256.00
     number of Kohn-Sham states=          154
     kinetic-energy cutoff     =      30.0000  Ry
     charge density cutoff     =     120.0000  Ry
     scf convergence threshold =      1.0E-06
     mixing beta               =       0.5000
     number of iterations used =            8  plain     mixing
     Exchange-correlation= PBE
                           (   1   4   3   4   0   0   0)

     GPU acceleration is ACTIVE.
     GPU-aware MPI enabled

     Message from routine print_cuda_info:
     High GPU oversubscription detected. Are you sure this is what you want?

     celldm(1)=  20.267897  celldm(2)=   0.000000  celldm(3)=   0.000000
     celldm(4)=   0.000000  celldm(5)=   0.000000  celldm(6)=   0.000000

     crystal axes: (cart. coord. in units of alat)
               a(1) = (   1.000000   0.000000   0.000000 )  
               a(2) = (   0.000000   1.000000   0.000000 )  
               a(3) = (   0.000000   0.000000   1.000000 )  

     reciprocal axes: (cart. coord. in units 2 pi/alat)
               b(1) = (  1.000000  0.000000  0.000000 )  
               b(2) = (  0.000000  1.000000  0.000000 )  
               b(3) = (  0.000000  0.000000  1.000000 )  


     PseudoPot. # 1 for Si read from file:
     /home/ppiaggi/pseudos/Si_ONCV_PBE_sr.upf
     MD5 check sum: 8553c464762ac42b85b1eed164b4d029
     Pseudo is Norm-conserving, Zval =  4.0
     Generated using ONCVPSP code by D. R. Hamann
     Using radial grid of 1510 points,  4 beta functions with: 
                l(1) =   0
                l(2) =   0
                l(3) =   1
                l(4) =   1

     atomic species   valence    mass     pseudopotential
        Si             4.00    28.08500     Si( 1.00)

     No symmetry found



   Cartesian axes

     site n.     atom                  positions (alat units)
         1           Si  tau(   1) = (   0.9385530   0.2580120   0.3036920  )
         2           Si  tau(   2) = (   0.2959450   0.2324440   0.6332820  )
         3           Si  tau(   3) = (   0.7796850   0.1530930   0.0336971  )
         4           Si  tau(   4) = (   0.5155150   0.8120180   0.1306830  )
         5           Si  tau(   5) = (   0.3126510   0.1325510   0.8514100  )
         6           Si  tau(   6) = (   0.3499510   0.0113910   0.1466900  )
         7           Si  tau(   7) = (   0.1804520   0.3823450   0.2914720  )
         8           Si  tau(   8) = (   0.6287070   0.0581091   0.1521150  )
         9           Si  tau(   9) = (   0.6549580   0.9166870   0.8889880  )
        10           Si  tau(  10) = (   0.1908730   0.0191828   0.5032640  )
        11           Si  tau(  11) = (   0.3318870   0.6324670   0.3048350  )
        12           Si  tau(  12) = (   0.9532800   0.5149730   0.0343253  )
        13           Si  tau(  13) = (   0.6798710   0.5938120   0.6066090  )
        14           Si  tau(  14) = (   0.7403770   0.2356960   0.4318360  )
        15           Si  tau(  15) = (   0.1279660   0.6781300   0.6087050  )
        16           Si  tau(  16) = (   0.4910420   0.5051370   0.4801740  )
        17           Si  tau(  17) = (   0.4002600   0.6837890   0.9218200  )
        18           Si  tau(  18) = (   0.9175640   0.2281470   0.8425710  )
        19           Si  tau(  19) = (   0.6349400   0.3249680   0.8647500  )
        20           Si  tau(  20) = (   0.2687660   0.5184070   0.9803860  )
        21           Si  tau(  21) = (   0.5131720   0.0264962   0.7248740  )
        22           Si  tau(  22) = (   0.9044710   0.8231290   0.6818880  )
        23           Si  tau(  23) = (   0.0642555   0.4426040   0.5495240  )
        24           Si  tau(  24) = (   0.6873430   0.6710120   0.1884240  )
        25           Si  tau(  25) = (   0.8081350   0.9589280   0.2352500  )
        26           Si  tau(  26) = (   0.8128000   0.5587170   0.4063550  )
        27           Si  tau(  27) = (   0.5889590   0.0574512   0.3779900  )
        28           Si  tau(  28) = (   0.9956280   0.0129457   0.3736580  )
        29           Si  tau(  29) = (   0.5177440   0.7377660   0.3600160  )
        30           Si  tau(  30) = (   0.8244780   0.9356880   0.4877070  )
        31           Si  tau(  31) = (   0.5772330   0.5586860   0.0016738  )
        32           Si  tau(  32) = (   0.9752830   0.6796860   0.2185620  )
        33           Si  tau(  33) = (   0.1370180   0.7292640   0.9423390  )
        34           Si  tau(  34) = (   0.9481620   0.6251450   0.7780720  )
        35           Si  tau(  35) = (   0.4899760   0.7435030   0.5745470  )
        36           Si  tau(  36) = (   0.3334690   0.9438660   0.3750710  )
        37           Si  tau(  37) = (   0.1772000   0.9635620   0.8967290  )
        38           Si  tau(  38) = (   0.2930770   0.8273430   0.5571050  )
        39           Si  tau(  39) = (   0.3588100   0.8392120   0.7496960  )
        40           Si  tau(  40) = (   0.2042370   0.2012820   0.3972270  )
        41           Si  tau(  41) = (   0.8474160   0.9419130   0.0046192  )
        42           Si  tau(  42) = (   0.6020080   0.9140560   0.5637460  )
        43           Si  tau(  43) = (   0.3330920   0.2473440   0.0609449  )
        44           Si  tau(  44) = (   0.9582090   0.2877190   0.0652906  )
        45           Si  tau(  45) = (   0.0295237   0.9207250   0.1486550  )
        46           Si  tau(  46) = (   0.9231660   0.1512550   0.5690180  )
        47           Si  tau(  47) = (   0.4668650   0.1605790   0.5474430  )
        48           Si  tau(  48) = (   0.4273320   0.1873590   0.2587480  )
        49           Si  tau(  49) = (   0.4871540   0.4886880   0.7790700  )
        50           Si  tau(  50) = (   0.1264520   0.6621530   0.3802790  )
        51           Si  tau(  51) = (   0.3065020   0.4718030   0.6430680  )
        52           Si  tau(  52) = (   0.7606710   0.0967838   0.7560610  )
        53           Si  tau(  53) = (   0.8504360   0.7160860   0.0364894  )
        54           Si  tau(  54) = (   0.4955780   0.1126090   0.9435530  )
        55           Si  tau(  55) = (   0.2907550   0.8079500   0.1455750  )
        56           Si  tau(  56) = (   0.1105970   0.3836910   0.9362210  )
        57           Si  tau(  57) = (   0.6631200   0.7033820   0.8416250  )
        58           Si  tau(  58) = (   0.5881150   0.3408090   0.1208620  )
        59           Si  tau(  59) = (   0.0472659   0.0081431   0.7048580  )
        60           Si  tau(  60) = (   0.0769864   0.2826710   0.7097330  )
        61           Si  tau(  61) = (   0.1528150   0.1328240   0.1922900  )
        62           Si  tau(  62) = (   0.5923260   0.3724640   0.3412500  )
        63           Si  tau(  63) = (   0.8355030   0.4225880   0.8138270  )
        64           Si  tau(  64) = (   0.8556470   0.4176760   0.5666540  )

     number of k points=     1  Fermi-Dirac smearing, width (Ry)=  0.0100
                       cart. coord. in units 2pi/alat
        k(    1) = (   0.0000000   0.0000000   0.0000000), wk =   2.0000000

     Dense  grid:    92178 G-vectors     FFT dimensions: (  72,  72,  72)

     Estimated max dynamical RAM per process >     147.97 MB

     Estimated total dynamical RAM >     569.39 MB

     Initial potential from superposition of free atoms

     starting charge     255.9608, renormalised to     256.0000
     Starting wfcs are  256 randomized atomic wfcs

     total cpu time spent up to now is        4.5 secs

     Self-consistent Calculation

     iteration #  1     ecut=    30.00 Ry     beta= 0.50
     Davidson diagonalization with overlap
     ethr =  1.00E-02,  avg # of iterations =  3.0

     Threshold (ethr) on eigenvalues was too large:
     Diagonalizing with lowered threshold

     Davidson diagonalization with overlap
     ethr =  6.04E-04,  avg # of iterations =  4.0

     total cpu time spent up to now is        4.7 secs

     total energy              =    -500.26148889 Ry
     estimated scf accuracy    <       1.98239840 Ry

     iteration #  2     ecut=    30.00 Ry     beta= 0.50
     Davidson diagonalization with overlap
     ethr =  7.74E-04,  avg # of iterations =  5.0

     total cpu time spent up to now is        4.8 secs

     total energy              =    -499.00211562 Ry
     estimated scf accuracy    <      20.37691817 Ry

     iteration #  3     ecut=    30.00 Ry     beta= 0.50
     Davidson diagonalization with overlap
     ethr =  7.74E-04,  avg # of iterations =  4.0

     total cpu time spent up to now is        4.9 secs

     total energy              =    -500.64883638 Ry
     estimated scf accuracy    <       2.63814100 Ry

     iteration #  4     ecut=    30.00 Ry     beta= 0.50
     Davidson diagonalization with overlap
     ethr =  7.74E-04,  avg # of iterations =  2.0

     total cpu time spent up to now is        5.0 secs

     total energy              =    -500.86795823 Ry
     estimated scf accuracy    <       0.62056791 Ry

     iteration #  5     ecut=    30.00 Ry     beta= 0.50
     Davidson diagonalization with overlap
     ethr =  2.42E-04,  avg # of iterations =  2.0

     total cpu time spent up to now is        5.1 secs

     total energy              =    -500.88369032 Ry
     estimated scf accuracy    <       0.73963477 Ry

     iteration #  6     ecut=    30.00 Ry     beta= 0.50
     Davidson diagonalization with overlap
     ethr =  2.42E-04,  avg # of iterations =  2.0

     total cpu time spent up to now is        5.2 secs

     total energy              =    -500.94712408 Ry
     estimated scf accuracy    <       0.06817536 Ry

     iteration #  7     ecut=    30.00 Ry     beta= 0.50
     Davidson diagonalization with overlap
     ethr =  2.66E-05,  avg # of iterations =  2.0

     total cpu time spent up to now is        5.3 secs

     total energy              =    -500.95712114 Ry
     estimated scf accuracy    <       0.01527068 Ry

     iteration #  8     ecut=    30.00 Ry     beta= 0.50
     Davidson diagonalization with overlap
     c_bands:  1 eigenvalues not converged
     ethr =  5.97E-06,  avg # of iterations = 20.0

     total cpu time spent up to now is        5.5 secs

     total energy              =    -500.95720642 Ry
     estimated scf accuracy    <       0.04212974 Ry

     iteration #  9     ecut=    30.00 Ry     beta= 0.50
     Davidson diagonalization with overlap
     ethr =  5.97E-06,  avg # of iterations =  3.0

     total cpu time spent up to now is        5.6 secs

     total energy              =    -500.96030411 Ry
     estimated scf accuracy    <       0.00391388 Ry

     iteration # 10     ecut=    30.00 Ry     beta= 0.50
     Davidson diagonalization with overlap
     ethr =  1.53E-06,  avg # of iterations =  2.0

     total cpu time spent up to now is        5.7 secs

     total energy              =    -500.96065621 Ry
     estimated scf accuracy    <       0.00160930 Ry

     iteration # 11     ecut=    30.00 Ry     beta= 0.50
     Davidson diagonalization with overlap
     ethr =  6.29E-07,  avg # of iterations =  2.0

     total cpu time spent up to now is        5.7 secs

     total energy              =    -500.96071583 Ry
     estimated scf accuracy    <       0.00099595 Ry

     iteration # 12     ecut=    30.00 Ry     beta= 0.50
     Davidson diagonalization with overlap
     ethr =  3.89E-07,  avg # of iterations =  2.0

     total cpu time spent up to now is        5.8 secs

     total energy              =    -500.96080360 Ry
     estimated scf accuracy    <       0.00066045 Ry

     iteration # 13     ecut=    30.00 Ry     beta= 0.50
     Davidson diagonalization with overlap
     ethr =  2.58E-07,  avg # of iterations =  2.0

     total cpu time spent up to now is        5.9 secs

     total energy              =    -500.96083976 Ry
     estimated scf accuracy    <       0.00042859 Ry

     iteration # 14     ecut=    30.00 Ry     beta= 0.50
     Davidson diagonalization with overlap
     ethr =  1.67E-07,  avg # of iterations =  1.0

     total cpu time spent up to now is        6.0 secs

     total energy              =    -500.96086934 Ry
     estimated scf accuracy    <       0.00003590 Ry

     iteration # 15     ecut=    30.00 Ry     beta= 0.50
     Davidson diagonalization with overlap
     ethr =  1.40E-08,  avg # of iterations =  4.0

     total cpu time spent up to now is        6.1 secs

     total energy              =    -500.96087407 Ry
     estimated scf accuracy    <       0.00002156 Ry

     iteration # 16     ecut=    30.00 Ry     beta= 0.50
     Davidson diagonalization with overlap
     ethr =  8.42E-09,  avg # of iterations =  3.0

     total cpu time spent up to now is        6.2 secs

     total energy              =    -500.96087644 Ry
     estimated scf accuracy    <       0.00001930 Ry

     iteration # 17     ecut=    30.00 Ry     beta= 0.50
     Davidson diagonalization with overlap
     ethr =  7.54E-09,  avg # of iterations =  2.0

     total cpu time spent up to now is        6.3 secs

     total energy              =    -500.96087772 Ry
     estimated scf accuracy    <       0.00000231 Ry

     iteration # 18     ecut=    30.00 Ry     beta= 0.50
     Davidson diagonalization with overlap
     ethr =  9.00E-10,  avg # of iterations =  4.0

     total cpu time spent up to now is        6.4 secs

     total energy              =    -500.96087800 Ry
     estimated scf accuracy    <       0.00000194 Ry

     iteration # 19     ecut=    30.00 Ry     beta= 0.50
     Davidson diagonalization with overlap
     ethr =  7.58E-10,  avg # of iterations =  2.0

     total cpu time spent up to now is        6.4 secs

     End of self-consistent calculation

          k = 0.0000 0.0000 0.0000 ( 11516 PWs)   bands (ev):

    -5.9102  -5.2151  -4.9579  -4.8588  -4.5796  -4.5219  -4.2142  -4.0751
    -3.8384  -3.7358  -3.6362  -3.5898  -3.4350  -3.3272  -3.1554  -2.9660
    -2.8857  -2.8089  -2.7866  -2.6798  -2.3486  -2.1560  -2.0096  -1.9945
    -1.8014  -1.7400  -1.6801  -1.3901  -1.1954  -1.0747  -0.9386  -0.7968
    -0.6699  -0.5984  -0.4302  -0.3569  -0.1608  -0.1511  -0.0932  -0.0368
     0.0511   0.1295   0.2467   0.3576   0.4418   0.4426   0.5504   0.6565
     0.6976   0.7955   0.8853   0.9908   1.0377   1.1079   1.3199   1.4613
     1.4813   1.5804   1.6782   1.7882   1.8632   2.0517   2.1669   2.2861
     2.3013   2.3406   2.4779   2.5270   2.6222   2.7552   2.8941   2.9259
     2.9631   3.0379   3.0952   3.1743   3.3495   3.4489   3.5936   3.6606
     3.7467   3.8792   3.9700   4.0533   4.1560   4.2240   4.2876   4.3490
     4.4094   4.4704   4.5102   4.6249   4.7082   4.7401   4.7769   4.8461
     4.8851   4.9936   5.1158   5.1792   5.2310   5.3061   5.3186   5.4046
     5.4874   5.5000   5.5947   5.6114   5.6276   5.6781   5.8127   5.8791
     5.9507   6.0025   6.1183   6.1602   6.2053   6.2617   6.3153   6.3735
     6.4089   6.5156   6.5626   6.6723   6.7269   6.7440   6.8178   6.8386
     6.8842   6.9653   7.0527   7.0838   7.1730   7.1950   7.2213   7.2931
     7.3205   7.3918   7.4614   7.5528   7.5738   7.6571   7.6887   7.7868
     7.8474   7.9211   7.9790   8.0109   8.0941   8.1743   8.2068   8.2582
     8.3490   8.4289

     the Fermi energy is     6.8858 ev

!    total energy              =    -500.96087767 Ry
     estimated scf accuracy    <       0.00000066 Ry
     smearing contrib. (-TS)   =      -0.15876990 Ry
     internal energy E=F+TS    =    -500.80210776 Ry

     The total energy is F=E-TS. E is the sum of the following terms:
     one-electron contribution =     156.77761806 Ry
     hartree contribution      =      37.04239164 Ry
     xc contribution           =    -150.90106101 Ry
     ewald contribution        =    -543.72105646 Ry

     convergence has been achieved in  19 iterations

     Forces acting on atoms (cartesian axes, Ry/au):

     atom    1 type  1   force =     0.02180404   -0.02786448    0.00292954
     atom    2 type  1   force =    -0.07771363    0.03990069    0.06442309
     atom    3 type  1   force =     0.00420802    0.02816939   -0.02839629
     atom    4 type  1   force =     0.01501484    0.02683777   -0.02850016
     atom    5 type  1   force =    -0.05139744    0.01551844   -0.04759103
     atom    6 type  1   force =     0.00855603    0.04757633   -0.00902515
     atom    7 type  1   force =    -0.02586483    0.05284572    0.00300241
     atom    8 type  1   force =    -0.06081488   -0.00994917    0.00453516
     atom    9 type  1   force =    -0.00436620    0.02601143   -0.00827160
     atom   10 type  1   force =    -0.07069842    0.01344038    0.05682889
     atom   11 type  1   force =    -0.02173066   -0.01108191   -0.02427414
     atom   12 type  1   force =     0.00299543    0.00555296   -0.00101570
     atom   13 type  1   force =    -0.01689892    0.00366527    0.02351325
     atom   14 type  1   force =     0.01805073   -0.00262134   -0.00418291
     atom   15 type  1   force =    -0.02072049   -0.02265427    0.00419735
     atom   16 type  1   force =    -0.03291747    0.03580011    0.02778720
     atom   17 type  1   force =     0.01596066    0.01529770   -0.00622128
     atom   18 type  1   force =     0.01003673   -0.03078283    0.02590325
     atom   19 type  1   force =    -0.00657995   -0.00712075    0.01592911
     atom   20 type  1   force =     0.02123944    0.00233006    0.01895375
     atom   21 type  1   force =    -0.01140717   -0.01522409    0.02967368
     atom   22 type  1   force =     0.01421099    0.01703795   -0.01849456
     atom   23 type  1   force =     0.06555112    0.02462595   -0.01809700
     atom   24 type  1   force =    -0.00219401   -0.00369592    0.01516422
     atom   25 type  1   force =     0.01867261   -0.01066938    0.03275556
     atom   26 type  1   force =    -0.01437704    0.02040734   -0.03312139
     atom   27 type  1   force =     0.00852978    0.01872701    0.02388041
     atom   28 type  1   force =     0.01227910    0.04156473   -0.04252271
     atom   29 type  1   force =     0.00493984    0.00386330   -0.02686440
     atom   30 type  1   force =    -0.04409349   -0.01027187    0.03181848
     atom   31 type  1   force =    -0.00780658    0.00223409    0.00033997
     atom   32 type  1   force =     0.00836154   -0.00886226    0.01230146
     atom   33 type  1   force =     0.01134287    0.01233174    0.01786830
     atom   34 type  1   force =     0.01451765    0.00459143    0.00351038
     atom   35 type  1   force =     0.02720374   -0.08370867    0.01996330
     atom   36 type  1   force =     0.06726532   -0.00708522   -0.06741272
     atom   37 type  1   force =    -0.01148403   -0.02013908   -0.03526213
     atom   38 type  1   force =    -0.05613724   -0.03011063   -0.04045967
     atom   39 type  1   force =     0.02549754    0.03601509    0.09506282
     atom   40 type  1   force =     0.02464705    0.00175679    0.00932752
     atom   41 type  1   force =    -0.00584970   -0.00625534   -0.00368560
     atom   42 type  1   force =     0.08117880    0.04549562   -0.04184290
     atom   43 type  1   force =    -0.00482407    0.02085264   -0.00710796
     atom   44 type  1   force =     0.00272183   -0.00734839    0.03425456
     atom   45 type  1   force =     0.00155256   -0.00958881    0.02170107
     atom   46 type  1   force =    -0.02111714   -0.01644458   -0.00042952
     atom   47 type  1   force =     0.05901169   -0.04645398   -0.02982547
     atom   48 type  1   force =     0.02213048    0.00840999    0.03829882
     atom   49 type  1   force =     0.00654178    0.01256281    0.01375997
     atom   50 type  1   force =     0.00614752   -0.01492404    0.02546440
     atom   51 type  1   force =     0.00000273   -0.01938454   -0.01888465
     atom   52 type  1   force =    -0.02602714   -0.00926424   -0.00559763
     atom   53 type  1   force =    -0.03135455   -0.00422755   -0.02992489
     atom   54 type  1   force =     0.07711477   -0.00381493    0.04891933
     atom   55 type  1   force =    -0.03115116   -0.06802496   -0.01183103
     atom   56 type  1   force =    -0.00440576   -0.01307292   -0.03980179
     atom   57 type  1   force =     0.03507571   -0.03318817   -0.02262249
     atom   58 type  1   force =    -0.01912511   -0.01650318   -0.02643479
     atom   59 type  1   force =     0.01345970   -0.02573984    0.00951741
     atom   60 type  1   force =     0.04816448    0.00445670   -0.01053410
     atom   61 type  1   force =    -0.01137958   -0.01466358   -0.02571699
     atom   62 type  1   force =     0.00338212   -0.00729454   -0.02283817
     atom   63 type  1   force =    -0.02358439    0.05189314   -0.02363369
     atom   64 type  1   force =    -0.06134816   -0.02173709    0.02883984

     Total force =     0.409914     Total SCF correction =     0.001621


     Computing stress (Cartesian axis) and pressure

          total   stress  (Ry/bohr**3)                   (kbar)     P=      -12.37
   0.00000036  -0.00001921   0.00004522            0.05       -2.83        6.65
  -0.00001921  -0.00016435   0.00003567           -2.83      -24.18        5.25
   0.00004522   0.00003567  -0.00008822            6.65        5.25      -12.98

 
     init_run     :      0.97s CPU      4.44s WALL (       1 calls)
     electrons    :      1.79s CPU      1.95s WALL (       1 calls)
     forces       :      0.03s CPU      0.03s WALL (       1 calls)
     stress       :      0.14s CPU      0.14s WALL (       1 calls)

     Called by init_run:
     wfcinit      :      0.45s CPU      3.76s WALL (       1 calls)
                                        3.76s GPU  (       1 calls)
     potinit      :      0.05s CPU      0.13s WALL (       1 calls)
     hinit0       :      0.45s CPU      0.48s WALL (       1 calls)

     Called by electrons:
     c_bands      :      1.15s CPU      1.22s WALL (      20 calls)
     sum_band     :      0.33s CPU      0.38s WALL (      20 calls)
     v_of_rho     :      0.15s CPU      0.24s WALL (      20 calls)
     mix_rho      :      0.14s CPU      0.16s WALL (      20 calls)

     Called by c_bands:
     init_us_2    :      0.05s CPU      0.06s WALL (      41 calls)
     init_us_2:gp :      0.05s CPU      0.06s WALL (      41 calls)
     regterg      :      1.00s CPU      1.06s WALL (      20 calls)

     Called by *egterg:
     rdiaghg      :      0.43s CPU      1.09s WALL (      90 calls)
                                        1.08s GPU  (      90 calls)
     h_psi        :      0.86s CPU      3.53s WALL (      92 calls)
                                        3.53s GPU  (      92 calls)
     g_psi        :      0.00s CPU      0.00s WALL (      71 calls)
                                        0.00s GPU  (      71 calls)

     Called by h_psi:
     h_psi:calbec :      0.43s CPU      3.03s WALL (      92 calls)
                                        3.03s GPU  (      92 calls)
     vloc_psi     :      0.37s CPU      0.44s WALL (      92 calls)
                                        0.44s GPU  (      92 calls)
     add_vuspsi   :      0.04s CPU      0.05s WALL (      92 calls)
                                        0.05s GPU  (      92 calls)

     General routines
     calbec       :      0.44s CPU      3.04s WALL (      97 calls)
     fft          :      0.56s CPU      0.69s WALL (     167 calls)
                                        0.12s GPU  (     106 calls)
     ffts         :      0.03s CPU      0.04s WALL (      20 calls)
     fftw         :      0.46s CPU      0.60s WALL (    2110 calls)
                                        0.52s GPU  (    2110 calls)
 
     Parallel routines
 
     PWSCF        :      2.97s CPU      6.64s WALL

 
   This run was terminated on:  12:11: 2  11May2023            

=------------------------------------------------------------------------------=
   JOB DONE.
=------------------------------------------------------------------------------=
