An instance of this daemon is already running
An instance of this daemon is already running

     Program PWSCF v.7.1 starts on 11May2023 at 12: 8: 8 

     This program is part of the open-source Quantum ESPRESSO suite
     for quantum simulation of materials; please cite
         "P. Giannozzi et al., J. Phys.:Condens. Matter 21 395502 (2009);
         "P. Giannozzi et al., J. Phys.:Condens. Matter 29 465901 (2017);
         "P. Giannozzi et al., J. Chem. Phys. 152 154105 (2020);
          URL http://www.quantum-espresso.org", 
     in publications or presentations arising from this work. More details at
     http://www.quantum-espresso.org/quote

     Parallel version (MPI & OpenMP), running on       4 processor cores
     Number of MPI processes:                 4
     Threads/MPI process:                     1

     MPI processes distributed on     1 nodes
     625973 MiB available memory on the printing compute node when the environment starts
 
     Reading input from pw-si-33.in
Warning: card &CELL ignored
Warning: card / ignored

     Current dimensions of program PWSCF are:
     Max number of different atomic species (ntypx) = 10
     Max number of k-points (npk) =  40000
     Max angular momentum in pseudopotentials (lmaxx) =  4

     IMPORTANT: XC functional enforced from input :
     Exchange-correlation= PBE
                           (   1   4   3   4   0   0   0)
     Any further DFT definition will be discarded
     Please, verify this is what you really want


     gamma-point specific algorithms are used
 
     K-points division:     npool     =       2
     R & G space division:  proc/nbgrp/npool/nimage =       2
     Subspace diagonalization in iterative solution of the eigenvalue problem:
     a serial algorithm will be used

     Message from routine divide_et_impera:
     suboptimal parallelization: some nodes have no k-points
 
     Parallelization info
     --------------------
     sticks:   dense  smooth     PW     G-vecs:    dense   smooth      PW
     Min        1871    1871    493                85918    85918   11719
     Max        1874    1874    496                85919    85919   11720
     Sum        3745    3745    989               171837   171837   23439
 
     Using Slab Decomposition
 


     bravais-lattice index     =            0
     lattice parameter (alat)  =      19.7801  a.u.
     unit-cell volume          =    7738.9699 (a.u.)^3
     number of atoms/cell      =           64
     number of atomic types    =            1
     number of electrons       =       256.00
     number of Kohn-Sham states=          154
     kinetic-energy cutoff     =      30.0000  Ry
     charge density cutoff     =     120.0000  Ry
     scf convergence threshold =      1.0E-06
     mixing beta               =       0.5000
     number of iterations used =            8  plain     mixing
     Exchange-correlation= PBE
                           (   1   4   3   4   0   0   0)

     GPU acceleration is ACTIVE.
     GPU-aware MPI enabled

     Message from routine print_cuda_info:
     High GPU oversubscription detected. Are you sure this is what you want?

     celldm(1)=  19.780065  celldm(2)=   0.000000  celldm(3)=   0.000000
     celldm(4)=   0.000000  celldm(5)=   0.000000  celldm(6)=   0.000000

     crystal axes: (cart. coord. in units of alat)
               a(1) = (   1.000000   0.000000   0.000000 )  
               a(2) = (   0.000000   1.000000   0.000000 )  
               a(3) = (   0.000000   0.000000   1.000000 )  

     reciprocal axes: (cart. coord. in units 2 pi/alat)
               b(1) = (  1.000000  0.000000  0.000000 )  
               b(2) = (  0.000000  1.000000  0.000000 )  
               b(3) = (  0.000000  0.000000  1.000000 )  


     PseudoPot. # 1 for Si read from file:
     /home/ppiaggi/pseudos/Si_ONCV_PBE_sr.upf
     MD5 check sum: 8553c464762ac42b85b1eed164b4d029
     Pseudo is Norm-conserving, Zval =  4.0
     Generated using ONCVPSP code by D. R. Hamann
     Using radial grid of 1510 points,  4 beta functions with: 
                l(1) =   0
                l(2) =   0
                l(3) =   1
                l(4) =   1

     atomic species   valence    mass     pseudopotential
        Si             4.00    28.08500     Si( 1.00)

     No symmetry found



   Cartesian axes

     site n.     atom                  positions (alat units)
         1           Si  tau(   1) = (   0.9685840   0.3002060   0.2647710  )
         2           Si  tau(   2) = (   0.3333130   0.0927584   0.6464490  )
         3           Si  tau(   3) = (   0.7093470   0.2406380   0.9645450  )
         4           Si  tau(   4) = (   0.5510170   0.8696390   0.0782542  )
         5           Si  tau(   5) = (   0.1928330   0.1802210   0.9721680  )
         6           Si  tau(   6) = (   0.4058300   0.9849050   0.2505240  )
         7           Si  tau(   7) = (   0.2184840   0.2727350   0.3551690  )
         8           Si  tau(   8) = (   0.6087380   0.1136980   0.1646880  )
         9           Si  tau(   9) = (   0.5458780   0.9504990   0.8043990  )
        10           Si  tau(  10) = (   0.1059550   0.9227860   0.6017500  )
        11           Si  tau(  11) = (   0.2734940   0.5557090   0.3321860  )
        12           Si  tau(  12) = (   0.8335820   0.5710000   0.1003820  )
        13           Si  tau(  13) = (   0.7650240   0.6615160   0.7411780  )
        14           Si  tau(  14) = (   0.7725760   0.3074430   0.4289500  )
        15           Si  tau(  15) = (   0.1165100   0.6146220   0.7836350  )
        16           Si  tau(  16) = (   0.4293730   0.5457100   0.4879980  )
        17           Si  tau(  17) = (   0.4835940   0.6844700   0.9142050  )
        18           Si  tau(  18) = (   0.0165078   0.0673301   0.0162926  )
        19           Si  tau(  19) = (   0.6480540   0.3547990   0.6232930  )
        20           Si  tau(  20) = (   0.1971110   0.4885400   0.1209100  )
        21           Si  tau(  21) = (   0.6058490   0.0850768   0.5868870  )
        22           Si  tau(  22) = (   0.8848980   0.9350600   0.6965590  )
        23           Si  tau(  23) = (   0.0281783   0.4078880   0.5025950  )
        24           Si  tau(  24) = (   0.5836980   0.6642650   0.2373770  )
        25           Si  tau(  25) = (   0.8776640   0.0212101   0.1722600  )
        26           Si  tau(  26) = (   0.8762000   0.5721040   0.3379740  )
        27           Si  tau(  27) = (   0.6683160   0.0957727   0.3838070  )
        28           Si  tau(  28) = (   0.0688867   0.1073180   0.2606800  )
        29           Si  tau(  29) = (   0.5006450   0.7965090   0.4281190  )
        30           Si  tau(  30) = (   0.9281610   0.7723710   0.4514720  )
        31           Si  tau(  31) = (   0.5064640   0.4828420   0.9103820  )
        32           Si  tau(  32) = (   0.0098275   0.6652640   0.1929700  )
        33           Si  tau(  33) = (   0.1613720   0.6924060   0.9866410  )
        34           Si  tau(  34) = (   0.9394380   0.8647270   0.9180550  )
        35           Si  tau(  35) = (   0.6078170   0.6782900   0.6027380  )
        36           Si  tau(  36) = (   0.2161220   0.7925980   0.3573160  )
        37           Si  tau(  37) = (   0.3155520   0.8419310   0.8862630  )
        38           Si  tau(  38) = (   0.1700780   0.7079020   0.5679880  )
        39           Si  tau(  39) = (   0.3905890   0.7488600   0.6754550  )
        40           Si  tau(  40) = (   0.1398140   0.1701570   0.5417080  )
        41           Si  tau(  41) = (   0.7853930   0.0516184   0.9095760  )
        42           Si  tau(  42) = (   0.7416900   0.8788600   0.3465700  )
        43           Si  tau(  43) = (   0.3014270   0.2351290   0.1473700  )
        44           Si  tau(  44) = (   0.9005220   0.3360020   0.0293956  )
        45           Si  tau(  45) = (   0.0673563   0.8499460   0.0977209  )
        46           Si  tau(  46) = (   0.9170320   0.1314600   0.5653210  )
        47           Si  tau(  47) = (   0.4462620   0.1320910   0.4400970  )
        48           Si  tau(  48) = (   0.4567370   0.3479200   0.3401820  )
        49           Si  tau(  49) = (   0.4252670   0.3508080   0.7039930  )
        50           Si  tau(  50) = (   0.0674842   0.6090570   0.3969360  )
        51           Si  tau(  51) = (   0.2236880   0.4481860   0.6114010  )
        52           Si  tau(  52) = (   0.7580880   0.1999690   0.7518530  )
        53           Si  tau(  53) = (   0.7583200   0.7820100   0.1527130  )
        54           Si  tau(  54) = (   0.4335730   0.1862600   0.8699250  )
        55           Si  tau(  55) = (   0.3910720   0.6501210   0.1189310  )
        56           Si  tau(  56) = (   0.1115770   0.3867790   0.8959120  )
        57           Si  tau(  57) = (   0.7228660   0.8292800   0.9039550  )
        58           Si  tau(  58) = (   0.5236250   0.3288970   0.0939808  )
        59           Si  tau(  59) = (   0.1526650   0.0313735   0.7627850  )
        60           Si  tau(  60) = (   0.9490490   0.3033070   0.7527490  )
        61           Si  tau(  61) = (   0.2675340   0.9713030   0.0469905  )
        62           Si  tau(  62) = (   0.6500870   0.4657780   0.2616110  )
        63           Si  tau(  63) = (   0.8815440   0.5277680   0.8864460  )
        64           Si  tau(  64) = (   0.8439970   0.5432210   0.5824890  )

     number of k points=     1  Fermi-Dirac smearing, width (Ry)=  0.0100
                       cart. coord. in units 2pi/alat
        k(    1) = (   0.0000000   0.0000000   0.0000000), wk =   2.0000000

     Dense  grid:    85919 G-vectors     FFT dimensions: (  72,  72,  72)

     Estimated max dynamical RAM per process >     138.71 MB

     Estimated total dynamical RAM >     533.86 MB

     Initial potential from superposition of free atoms

     starting charge     255.9608, renormalised to     256.0000
     Starting wfcs are  256 randomized atomic wfcs

     total cpu time spent up to now is        4.6 secs

     Self-consistent Calculation

     iteration #  1     ecut=    30.00 Ry     beta= 0.50
     Davidson diagonalization with overlap
     ethr =  1.00E-02,  avg # of iterations =  3.0

     Threshold (ethr) on eigenvalues was too large:
     Diagonalizing with lowered threshold

     Davidson diagonalization with overlap
     ethr =  6.31E-04,  avg # of iterations =  4.0

     total cpu time spent up to now is        4.8 secs

     total energy              =    -500.26920366 Ry
     estimated scf accuracy    <       2.11482274 Ry

     iteration #  2     ecut=    30.00 Ry     beta= 0.50
     Davidson diagonalization with overlap
     ethr =  8.26E-04,  avg # of iterations =  6.0

     total cpu time spent up to now is        4.9 secs

     total energy              =    -499.19591364 Ry
     estimated scf accuracy    <      15.85100492 Ry

     iteration #  3     ecut=    30.00 Ry     beta= 0.50
     Davidson diagonalization with overlap
     ethr =  8.26E-04,  avg # of iterations =  4.0

     total cpu time spent up to now is        5.0 secs

     total energy              =    -500.66036793 Ry
     estimated scf accuracy    <       2.94676679 Ry

     iteration #  4     ecut=    30.00 Ry     beta= 0.50
     Davidson diagonalization with overlap
     ethr =  8.26E-04,  avg # of iterations =  2.0

     total cpu time spent up to now is        5.1 secs

     total energy              =    -500.88246266 Ry
     estimated scf accuracy    <       0.52008070 Ry

     iteration #  5     ecut=    30.00 Ry     beta= 0.50
     Davidson diagonalization with overlap
     ethr =  2.03E-04,  avg # of iterations =  2.0

     total cpu time spent up to now is        5.2 secs

     total energy              =    -500.90203787 Ry
     estimated scf accuracy    <       0.66365378 Ry

     iteration #  6     ecut=    30.00 Ry     beta= 0.50
     Davidson diagonalization with overlap
     ethr =  2.03E-04,  avg # of iterations =  2.0

     total cpu time spent up to now is        5.3 secs

     total energy              =    -500.95643232 Ry
     estimated scf accuracy    <       0.14020278 Ry

     iteration #  7     ecut=    30.00 Ry     beta= 0.50
     Davidson diagonalization with overlap
     ethr =  5.48E-05,  avg # of iterations =  2.0

     total cpu time spent up to now is        5.4 secs

     total energy              =    -500.96976703 Ry
     estimated scf accuracy    <       0.02466422 Ry

     iteration #  8     ecut=    30.00 Ry     beta= 0.50
     Davidson diagonalization with overlap
     ethr =  9.63E-06,  avg # of iterations = 20.0

     total cpu time spent up to now is        5.6 secs

     total energy              =    -500.97203335 Ry
     estimated scf accuracy    <       0.03403258 Ry

     iteration #  9     ecut=    30.00 Ry     beta= 0.50
     Davidson diagonalization with overlap
     ethr =  9.63E-06,  avg # of iterations =  2.0

     total cpu time spent up to now is        5.7 secs

     total energy              =    -500.97482740 Ry
     estimated scf accuracy    <       0.00218623 Ry

     iteration # 10     ecut=    30.00 Ry     beta= 0.50
     Davidson diagonalization with overlap
     ethr =  8.54E-07,  avg # of iterations = 13.0

     total cpu time spent up to now is        5.8 secs

     total energy              =    -500.97505907 Ry
     estimated scf accuracy    <       0.00301690 Ry

     iteration # 11     ecut=    30.00 Ry     beta= 0.50
     Davidson diagonalization with overlap
     ethr =  8.54E-07,  avg # of iterations =  2.0

     total cpu time spent up to now is        5.9 secs

     total energy              =    -500.97528249 Ry
     estimated scf accuracy    <       0.00113039 Ry

     iteration # 12     ecut=    30.00 Ry     beta= 0.50
     Davidson diagonalization with overlap
     ethr =  4.42E-07,  avg # of iterations =  2.0

     total cpu time spent up to now is        6.0 secs

     total energy              =    -500.97535507 Ry
     estimated scf accuracy    <       0.00038186 Ry

     iteration # 13     ecut=    30.00 Ry     beta= 0.50
     Davidson diagonalization with overlap
     ethr =  1.49E-07,  avg # of iterations =  3.0

     total cpu time spent up to now is        6.1 secs

     total energy              =    -500.97538458 Ry
     estimated scf accuracy    <       0.00047583 Ry

     iteration # 14     ecut=    30.00 Ry     beta= 0.50
     Davidson diagonalization with overlap
     ethr =  1.49E-07,  avg # of iterations =  1.0

     total cpu time spent up to now is        6.2 secs

     total energy              =    -500.97541456 Ry
     estimated scf accuracy    <       0.00002429 Ry

     iteration # 15     ecut=    30.00 Ry     beta= 0.50
     Davidson diagonalization with overlap
     ethr =  9.49E-09,  avg # of iterations =  5.0

     total cpu time spent up to now is        6.3 secs

     total energy              =    -500.97541663 Ry
     estimated scf accuracy    <       0.00005766 Ry

     iteration # 16     ecut=    30.00 Ry     beta= 0.50
     Davidson diagonalization with overlap
     ethr =  9.49E-09,  avg # of iterations =  3.0

     total cpu time spent up to now is        6.4 secs

     total energy              =    -500.97542012 Ry
     estimated scf accuracy    <       0.00002281 Ry

     iteration # 17     ecut=    30.00 Ry     beta= 0.50
     Davidson diagonalization with overlap
     ethr =  8.91E-09,  avg # of iterations =  2.0

     total cpu time spent up to now is        6.5 secs

     total energy              =    -500.97542137 Ry
     estimated scf accuracy    <       0.00001151 Ry

     iteration # 18     ecut=    30.00 Ry     beta= 0.50
     Davidson diagonalization with overlap
     ethr =  4.50E-09,  avg # of iterations =  2.0

     total cpu time spent up to now is        6.5 secs

     total energy              =    -500.97542228 Ry
     estimated scf accuracy    <       0.00000377 Ry

     iteration # 19     ecut=    30.00 Ry     beta= 0.50
     Davidson diagonalization with overlap
     ethr =  1.47E-09,  avg # of iterations =  2.0

     total cpu time spent up to now is        6.6 secs

     End of self-consistent calculation

          k = 0.0000 0.0000 0.0000 ( 10780 PWs)   bands (ev):

    -5.7927  -5.1724  -4.5548  -4.3387  -4.2584  -4.0535  -3.7961  -3.6657
    -3.5034  -3.3847  -3.2412  -3.0800  -3.0139  -2.8449  -2.6332  -2.5486
    -2.4837  -2.2728  -2.2092  -1.9858  -1.8840  -1.7303  -1.6071  -1.3972
    -1.2033  -1.1573  -1.0292  -0.8323  -0.6417  -0.4528  -0.2295  -0.1487
    -0.0508   0.0732   0.1542   0.2934   0.3923   0.4974   0.5665   0.5915
     0.6597   0.7102   0.8762   0.9916   1.0344   1.1255   1.1833   1.3242
     1.3588   1.4191   1.5298   1.6611   1.8299   1.9338   1.9874   2.0302
     2.1439   2.2894   2.3760   2.4960   2.5511   2.6961   2.7949   2.8350
     2.8920   2.9549   3.0495   3.0629   3.1734   3.2421   3.2877   3.3985
     3.4413   3.4985   3.6339   3.7279   3.8520   3.9014   3.9884   4.1286
     4.2404   4.6194   4.6906   4.7258   4.8116   4.9265   5.0036   5.0734
     5.2611   5.2806   5.3199   5.3877   5.5268   5.5631   5.6199   5.6670
     5.7859   5.8317   5.8877   5.9486   5.9910   6.0807   6.1295   6.1664
     6.2554   6.3422   6.3797   6.4714   6.5134   6.5144   6.5782   6.6160
     6.6201   6.6737   6.7565   6.8884   6.9609   7.0309   7.0964   7.1059
     7.2063   7.3074   7.3807   7.4539   7.5023   7.5377   7.6071   7.6511
     7.7528   7.7693   7.8271   7.9112   7.9690   8.0071   8.0510   8.1293
     8.2132   8.2698   8.3705   8.4420   8.4934   8.5845   8.6167   8.6584
     8.7271   8.7642   8.7770   8.8947   8.9498   8.9825   9.0522   9.1420
     9.2326   9.2829

     the Fermi energy is     7.6938 ev

!    total energy              =    -500.97542243 Ry
     estimated scf accuracy    <       0.00000031 Ry
     smearing contrib. (-TS)   =      -0.14879394 Ry
     internal energy E=F+TS    =    -500.82662849 Ry

     The total energy is F=E-TS. E is the sum of the following terms:
     one-electron contribution =     183.66257466 Ry
     hartree contribution      =      31.03081346 Ry
     xc contribution           =    -153.13866960 Ry
     ewald contribution        =    -562.38134701 Ry

     convergence has been achieved in  19 iterations

     Forces acting on atoms (cartesian axes, Ry/au):

     atom    1 type  1   force =    -0.01061954    0.04013580    0.00800194
     atom    2 type  1   force =     0.03791961    0.02139233    0.00956234
     atom    3 type  1   force =    -0.05363846    0.06212954    0.04172461
     atom    4 type  1   force =     0.00812192    0.01113136   -0.00747212
     atom    5 type  1   force =     0.04437876    0.00035668   -0.07638656
     atom    6 type  1   force =    -0.00464111    0.00301868   -0.01625270
     atom    7 type  1   force =    -0.00460139    0.02092133   -0.02011641
     atom    8 type  1   force =    -0.00779109   -0.02300594   -0.00331801
     atom    9 type  1   force =    -0.02908577    0.02234722   -0.01121711
     atom   10 type  1   force =    -0.06199942   -0.06603805   -0.09634530
     atom   11 type  1   force =     0.01154443   -0.00482540   -0.04980506
     atom   12 type  1   force =    -0.03384782   -0.02937453   -0.00975417
     atom   13 type  1   force =     0.01754882    0.04064166    0.07888619
     atom   14 type  1   force =     0.00026324   -0.02277174   -0.01706420
     atom   15 type  1   force =    -0.02721525   -0.03298495    0.00792387
     atom   16 type  1   force =     0.01654625   -0.00365097    0.02475922
     atom   17 type  1   force =     0.00753465    0.09685629   -0.00281083
     atom   18 type  1   force =    -0.02509533    0.00675131   -0.03186212
     atom   19 type  1   force =     0.00153023   -0.00205132   -0.00974249
     atom   20 type  1   force =     0.00735678    0.01013316   -0.00740433
     atom   21 type  1   force =     0.01191298   -0.00704717    0.09087169
     atom   22 type  1   force =     0.02003530   -0.00783916   -0.01159138
     atom   23 type  1   force =    -0.04071267   -0.03199094   -0.00000753
     atom   24 type  1   force =    -0.02911789    0.06550148    0.03591529
     atom   25 type  1   force =    -0.04595034   -0.02911428    0.06251938
     atom   26 type  1   force =    -0.14255224   -0.04382584    0.01990429
     atom   27 type  1   force =     0.05405046    0.00952866   -0.04456556
     atom   28 type  1   force =     0.01662727   -0.01939126    0.00805004
     atom   29 type  1   force =     0.03048728   -0.00459616   -0.02476983
     atom   30 type  1   force =    -0.04148544    0.03973732    0.03364826
     atom   31 type  1   force =     0.01411051   -0.10648229   -0.01266584
     atom   32 type  1   force =     0.03881315   -0.01544990   -0.04937929
     atom   33 type  1   force =     0.05397100   -0.04922686   -0.02665944
     atom   34 type  1   force =     0.03459312    0.00192480   -0.04777225
     atom   35 type  1   force =    -0.07711752   -0.00461262   -0.05729092
     atom   36 type  1   force =     0.02392691    0.01154325   -0.02937807
     atom   37 type  1   force =     0.01076434   -0.02279070   -0.06900785
     atom   38 type  1   force =     0.04695512    0.00335390    0.06096535
     atom   39 type  1   force =    -0.01134388    0.01572547    0.01011525
     atom   40 type  1   force =    -0.00345260    0.00106591   -0.00230088
     atom   41 type  1   force =     0.02433087   -0.07644726    0.01289992
     atom   42 type  1   force =     0.00203457    0.01321531    0.03774927
     atom   43 type  1   force =     0.04218780    0.02394340    0.04905525
     atom   44 type  1   force =     0.03095023    0.02079058    0.01446856
     atom   45 type  1   force =     0.00248249    0.07170427    0.04565003
     atom   46 type  1   force =    -0.00936497    0.01879058    0.00922810
     atom   47 type  1   force =    -0.04938435    0.00654331   -0.02887864
     atom   48 type  1   force =    -0.01680371    0.01324420    0.00957754
     atom   49 type  1   force =     0.01165158   -0.00207848    0.02260548
     atom   50 type  1   force =     0.10959370   -0.00885590    0.03544113
     atom   51 type  1   force =     0.04221885    0.02939740    0.02264225
     atom   52 type  1   force =    -0.02883435    0.00858066   -0.05038542
     atom   53 type  1   force =    -0.00306638    0.00640674   -0.04836055
     atom   54 type  1   force =    -0.02250594   -0.03461015   -0.02892455
     atom   55 type  1   force =    -0.04657656   -0.01639193   -0.00809665
     atom   56 type  1   force =    -0.01788713    0.01044898    0.00842113
     atom   57 type  1   force =    -0.06184103   -0.01377576    0.02296335
     atom   58 type  1   force =    -0.00499660    0.00231652    0.00068154
     atom   59 type  1   force =     0.01903622    0.04283945    0.13816965
     atom   60 type  1   force =     0.02791262    0.02203129   -0.01595377
     atom   61 type  1   force =     0.00399007    0.03662660    0.06155799
     atom   62 type  1   force =     0.04362909   -0.07070002    0.00905092
     atom   63 type  1   force =     0.02812276   -0.01623446   -0.02105383
     atom   64 type  1   force =     0.01439582   -0.04491141   -0.05641616

     Total force =     0.526842     Total SCF correction =     0.000963


     Computing stress (Cartesian axis) and pressure

          total   stress  (Ry/bohr**3)                   (kbar)     P=       28.61
   0.00023936   0.00001307   0.00002435           35.21        1.92        3.58
   0.00001307   0.00006933   0.00006206            1.92       10.20        9.13
   0.00002435   0.00006206   0.00027472            3.58        9.13       40.41

 
     init_run     :      0.94s CPU      4.52s WALL (       1 calls)
     electrons    :      1.82s CPU      2.03s WALL (       1 calls)
     forces       :      0.03s CPU      0.03s WALL (       1 calls)
     stress       :      0.13s CPU      0.14s WALL (       1 calls)

     Called by init_run:
     wfcinit      :      0.43s CPU      3.82s WALL (       1 calls)
                                        3.82s GPU  (       1 calls)
     potinit      :      0.04s CPU      0.16s WALL (       1 calls)
     hinit0       :      0.46s CPU      0.48s WALL (       1 calls)

     Called by electrons:
     c_bands      :      1.19s CPU      1.33s WALL (      20 calls)
     sum_band     :      0.33s CPU      0.38s WALL (      20 calls)
     v_of_rho     :      0.14s CPU      0.26s WALL (      20 calls)
     mix_rho      :      0.13s CPU      0.15s WALL (      20 calls)

     Called by c_bands:
     init_us_2    :      0.05s CPU      0.06s WALL (      41 calls)
     init_us_2:gp :      0.05s CPU      0.06s WALL (      41 calls)
     regterg      :      1.04s CPU      1.16s WALL (      20 calls)

     Called by *egterg:
     rdiaghg      :      0.47s CPU      1.22s WALL (     101 calls)
                                        1.20s GPU  (     101 calls)
     h_psi        :      0.83s CPU      3.57s WALL (     103 calls)
                                        3.56s GPU  (     103 calls)
     g_psi        :      0.00s CPU      0.00s WALL (      82 calls)
                                        0.00s GPU  (      82 calls)

     Called by h_psi:
     h_psi:calbec :      0.41s CPU      3.07s WALL (     103 calls)
                                        3.07s GPU  (     103 calls)
     vloc_psi     :      0.36s CPU      0.43s WALL (     103 calls)
                                        0.43s GPU  (     103 calls)
     add_vuspsi   :      0.04s CPU      0.05s WALL (     103 calls)
                                        0.05s GPU  (     103 calls)

     General routines
     calbec       :      0.42s CPU      3.08s WALL (     108 calls)
     fft          :      0.56s CPU      0.71s WALL (     167 calls)
                                        0.15s GPU  (     106 calls)
     ffts         :      0.03s CPU      0.04s WALL (      20 calls)
     fftw         :      0.45s CPU      0.59s WALL (    2132 calls)
                                        0.52s GPU  (    2132 calls)
 
     Parallel routines
 
     PWSCF        :      2.95s CPU      6.80s WALL

 
   This run was terminated on:  12: 8:14  11May2023            

=------------------------------------------------------------------------------=
   JOB DONE.
=------------------------------------------------------------------------------=
