An instance of this daemon is already running
An instance of this daemon is already running

     Program PWSCF v.7.1 starts on 11May2023 at 12: 6:29 

     This program is part of the open-source Quantum ESPRESSO suite
     for quantum simulation of materials; please cite
         "P. Giannozzi et al., J. Phys.:Condens. Matter 21 395502 (2009);
         "P. Giannozzi et al., J. Phys.:Condens. Matter 29 465901 (2017);
         "P. Giannozzi et al., J. Chem. Phys. 152 154105 (2020);
          URL http://www.quantum-espresso.org", 
     in publications or presentations arising from this work. More details at
     http://www.quantum-espresso.org/quote

     Parallel version (MPI & OpenMP), running on       4 processor cores
     Number of MPI processes:                 4
     Threads/MPI process:                     1

     MPI processes distributed on     1 nodes
     636488 MiB available memory on the printing compute node when the environment starts
 
     Reading input from pw-si-22.in
Warning: card &CELL ignored
Warning: card / ignored

     Current dimensions of program PWSCF are:
     Max number of different atomic species (ntypx) = 10
     Max number of k-points (npk) =  40000
     Max angular momentum in pseudopotentials (lmaxx) =  4

     IMPORTANT: XC functional enforced from input :
     Exchange-correlation= PBE
                           (   1   4   3   4   0   0   0)
     Any further DFT definition will be discarded
     Please, verify this is what you really want


     gamma-point specific algorithms are used
 
     K-points division:     npool     =       2
     R & G space division:  proc/nbgrp/npool/nimage =       2
     Subspace diagonalization in iterative solution of the eigenvalue problem:
     a serial algorithm will be used

     Message from routine divide_et_impera:
     suboptimal parallelization: some nodes have no k-points
 
     Parallelization info
     --------------------
     sticks:   dense  smooth     PW     G-vecs:    dense   smooth      PW
     Min        1871    1871    493                85918    85918   11719
     Max        1874    1874    496                85919    85919   11720
     Sum        3745    3745    989               171837   171837   23439
 
     Using Slab Decomposition
 


     bravais-lattice index     =            0
     lattice parameter (alat)  =      19.7841  a.u.
     unit-cell volume          =    7743.6888 (a.u.)^3
     number of atoms/cell      =           64
     number of atomic types    =            1
     number of electrons       =       256.00
     number of Kohn-Sham states=          154
     kinetic-energy cutoff     =      30.0000  Ry
     charge density cutoff     =     120.0000  Ry
     scf convergence threshold =      1.0E-06
     mixing beta               =       0.5000
     number of iterations used =            8  plain     mixing
     Exchange-correlation= PBE
                           (   1   4   3   4   0   0   0)

     GPU acceleration is ACTIVE.
     GPU-aware MPI enabled

     Message from routine print_cuda_info:
     High GPU oversubscription detected. Are you sure this is what you want?

     celldm(1)=  19.784085  celldm(2)=   0.000000  celldm(3)=   0.000000
     celldm(4)=   0.000000  celldm(5)=   0.000000  celldm(6)=   0.000000

     crystal axes: (cart. coord. in units of alat)
               a(1) = (   1.000000   0.000000   0.000000 )  
               a(2) = (   0.000000   1.000000   0.000000 )  
               a(3) = (   0.000000   0.000000   1.000000 )  

     reciprocal axes: (cart. coord. in units 2 pi/alat)
               b(1) = (  1.000000  0.000000  0.000000 )  
               b(2) = (  0.000000  1.000000  0.000000 )  
               b(3) = (  0.000000  0.000000  1.000000 )  


     PseudoPot. # 1 for Si read from file:
     /home/ppiaggi/pseudos/Si_ONCV_PBE_sr.upf
     MD5 check sum: 8553c464762ac42b85b1eed164b4d029
     Pseudo is Norm-conserving, Zval =  4.0
     Generated using ONCVPSP code by D. R. Hamann
     Using radial grid of 1510 points,  4 beta functions with: 
                l(1) =   0
                l(2) =   0
                l(3) =   1
                l(4) =   1

     atomic species   valence    mass     pseudopotential
        Si             4.00    28.08500     Si( 1.00)

     No symmetry found



   Cartesian axes

     site n.     atom                  positions (alat units)
         1           Si  tau(   1) = (   0.0417985   0.3368430   0.3000750  )
         2           Si  tau(   2) = (   0.3292660   0.9500100   0.5331940  )
         3           Si  tau(   3) = (   0.6819520   0.2777000   0.9445940  )
         4           Si  tau(   4) = (   0.5593130   0.0040039   0.0887636  )
         5           Si  tau(   5) = (   0.2678850   0.2181640   0.9648620  )
         6           Si  tau(   6) = (   0.3232630   0.0174910   0.2986730  )
         7           Si  tau(   7) = (   0.2572940   0.2647350   0.4530650  )
         8           Si  tau(   8) = (   0.6381450   0.2236090   0.1670660  )
         9           Si  tau(   9) = (   0.4938730   0.9605910   0.7438470  )
        10           Si  tau(  10) = (   0.0423517   0.9203030   0.5067200  )
        11           Si  tau(  11) = (   0.2723360   0.5687120   0.2601790  )
        12           Si  tau(  12) = (   0.7481600   0.5971360   0.1066100  )
        13           Si  tau(  13) = (   0.8648800   0.7583040   0.7639200  )
        14           Si  tau(  14) = (   0.7889100   0.3166490   0.4243690  )
        15           Si  tau(  15) = (   0.2625690   0.5835930   0.7683660  )
        16           Si  tau(  16) = (   0.3370620   0.5414760   0.4862530  )
        17           Si  tau(  17) = (   0.6481950   0.5919540   0.8928770  )
        18           Si  tau(  18) = (   0.9671400   0.0709356   0.0239491  )
        19           Si  tau(  19) = (   0.5909350   0.3249280   0.5898830  )
        20           Si  tau(  20) = (   0.1025950   0.3944680   0.0946634  )
        21           Si  tau(  21) = (   0.6410810   0.9973270   0.5649720  )
        22           Si  tau(  22) = (   0.8159670   0.9466100   0.6920190  )
        23           Si  tau(  23) = (   0.0306709   0.3014220   0.5294310  )
        24           Si  tau(  24) = (   0.4713780   0.7195260   0.2573330  )
        25           Si  tau(  25) = (   0.8453730   0.0480861   0.2212590  )
        26           Si  tau(  26) = (   0.8820680   0.5819220   0.3194110  )
        27           Si  tau(  27) = (   0.7001070   0.1210830   0.3548190  )
        28           Si  tau(  28) = (   0.0666852   0.1217080   0.2316580  )
        29           Si  tau(  29) = (   0.4855850   0.8853680   0.4067780  )
        30           Si  tau(  30) = (   0.9284070   0.7336200   0.5186200  )
        31           Si  tau(  31) = (   0.5003300   0.4379190   0.9099990  )
        32           Si  tau(  32) = (   0.0342143   0.6057700   0.1483650  )
        33           Si  tau(  33) = (   0.2030740   0.7127870   0.9973800  )
        34           Si  tau(  34) = (   0.0370320   0.7931080   0.8631360  )
        35           Si  tau(  35) = (   0.6655450   0.7489160   0.5789950  )
        36           Si  tau(  36) = (   0.1841890   0.7692500   0.3749890  )
        37           Si  tau(  37) = (   0.3505920   0.8025090   0.8044370  )
        38           Si  tau(  38) = (   0.1671440   0.7789020   0.6297300  )
        39           Si  tau(  39) = (   0.4511520   0.6737260   0.6479760  )
        40           Si  tau(  40) = (   0.1552570   0.0918729   0.6202710  )
        41           Si  tau(  41) = (   0.8007880   0.1145280   0.8574480  )
        42           Si  tau(  42) = (   0.6958520   0.8093450   0.3452300  )
        43           Si  tau(  43) = (   0.2607600   0.2160370   0.2466440  )
        44           Si  tau(  44) = (   0.8914260   0.3512380   0.0419640  )
        45           Si  tau(  45) = (   0.0933977   0.8550580   0.1843490  )
        46           Si  tau(  46) = (   0.8454040   0.1210390   0.5340390  )
        47           Si  tau(  47) = (   0.4747040   0.1535350   0.4401890  )
        48           Si  tau(  48) = (   0.4689790   0.3823040   0.3476440  )
        49           Si  tau(  49) = (   0.4327840   0.3366610   0.7370870  )
        50           Si  tau(  50) = (   0.1283750   0.5409700   0.4821780  )
        51           Si  tau(  51) = (   0.2318870   0.3993120   0.6434740  )
        52           Si  tau(  52) = (   0.7352990   0.3082870   0.7200730  )
        53           Si  tau(  53) = (   0.6735150   0.7923010   0.1240560  )
        54           Si  tau(  54) = (   0.3649210   0.1415290   0.7913470  )
        55           Si  tau(  55) = (   0.4019520   0.5912470   0.0882366  )
        56           Si  tau(  56) = (   0.1252830   0.3586200   0.8320410  )
        57           Si  tau(  57) = (   0.6768670   0.9122940   0.9190950  )
        58           Si  tau(  58) = (   0.4368190   0.3516870   0.1215570  )
        59           Si  tau(  59) = (   0.1952880   0.9547090   0.9300940  )
        60           Si  tau(  60) = (   0.9319850   0.3942530   0.7336800  )
        61           Si  tau(  61) = (   0.3471150   0.0542142   0.0809811  )
        62           Si  tau(  62) = (   0.6854870   0.4321350   0.2382280  )
        63           Si  tau(  63) = (   0.8416560   0.5360000   0.9066830  )
        64           Si  tau(  64) = (   0.8579070   0.5585740   0.5880740  )

     number of k points=     1  Fermi-Dirac smearing, width (Ry)=  0.0100
                       cart. coord. in units 2pi/alat
        k(    1) = (   0.0000000   0.0000000   0.0000000), wk =   2.0000000

     Dense  grid:    85919 G-vectors     FFT dimensions: (  72,  72,  72)

     Estimated max dynamical RAM per process >     138.79 MB

     Estimated total dynamical RAM >     534.17 MB

     Initial potential from superposition of free atoms

     starting charge     255.9608, renormalised to     256.0000
     Starting wfcs are  256 randomized atomic wfcs

     total cpu time spent up to now is        4.5 secs

     Self-consistent Calculation

     iteration #  1     ecut=    30.00 Ry     beta= 0.50
     Davidson diagonalization with overlap
     ethr =  1.00E-02,  avg # of iterations =  3.0

     Threshold (ethr) on eigenvalues was too large:
     Diagonalizing with lowered threshold

     Davidson diagonalization with overlap
     ethr =  6.27E-04,  avg # of iterations =  4.0

     total cpu time spent up to now is        4.7 secs

     total energy              =    -500.20099408 Ry
     estimated scf accuracy    <       2.00790441 Ry

     iteration #  2     ecut=    30.00 Ry     beta= 0.50
     Davidson diagonalization with overlap
     ethr =  7.84E-04,  avg # of iterations =  3.0

     total cpu time spent up to now is        4.8 secs

     total energy              =    -499.27288420 Ry
     estimated scf accuracy    <      12.76383122 Ry

     iteration #  3     ecut=    30.00 Ry     beta= 0.50
     Davidson diagonalization with overlap
     ethr =  7.84E-04,  avg # of iterations =  5.0

     total cpu time spent up to now is        4.9 secs

     total energy              =    -500.45937626 Ry
     estimated scf accuracy    <       3.23006466 Ry

     iteration #  4     ecut=    30.00 Ry     beta= 0.50
     Davidson diagonalization with overlap
     ethr =  7.84E-04,  avg # of iterations =  2.0

     total cpu time spent up to now is        5.0 secs

     total energy              =    -500.70241205 Ry
     estimated scf accuracy    <       0.49715523 Ry

     iteration #  5     ecut=    30.00 Ry     beta= 0.50
     Davidson diagonalization with overlap
     ethr =  1.94E-04,  avg # of iterations =  3.0

     total cpu time spent up to now is        5.1 secs

     total energy              =    -500.72406364 Ry
     estimated scf accuracy    <       0.50338187 Ry

     iteration #  6     ecut=    30.00 Ry     beta= 0.50
     Davidson diagonalization with overlap
     ethr =  1.94E-04,  avg # of iterations =  2.0

     total cpu time spent up to now is        5.2 secs

     total energy              =    -500.76705006 Ry
     estimated scf accuracy    <       0.17102090 Ry

     iteration #  7     ecut=    30.00 Ry     beta= 0.50
     Davidson diagonalization with overlap
     ethr =  6.68E-05,  avg # of iterations =  2.0

     total cpu time spent up to now is        5.3 secs

     total energy              =    -500.78116353 Ry
     estimated scf accuracy    <       0.02712360 Ry

     iteration #  8     ecut=    30.00 Ry     beta= 0.50
     Davidson diagonalization with overlap
     ethr =  1.06E-05,  avg # of iterations = 10.0

     total cpu time spent up to now is        5.4 secs

     total energy              =    -500.78307751 Ry
     estimated scf accuracy    <       0.04742372 Ry

     iteration #  9     ecut=    30.00 Ry     beta= 0.50
     Davidson diagonalization with overlap
     ethr =  1.06E-05,  avg # of iterations =  2.0

     total cpu time spent up to now is        5.5 secs

     total energy              =    -500.78650739 Ry
     estimated scf accuracy    <       0.00373605 Ry

     iteration # 10     ecut=    30.00 Ry     beta= 0.50
     Davidson diagonalization with overlap
     ethr =  1.46E-06,  avg # of iterations =  6.0

     total cpu time spent up to now is        5.6 secs

     total energy              =    -500.78682242 Ry
     estimated scf accuracy    <       0.00550421 Ry

     iteration # 11     ecut=    30.00 Ry     beta= 0.50
     Davidson diagonalization with overlap
     ethr =  1.46E-06,  avg # of iterations =  2.0

     total cpu time spent up to now is        5.7 secs

     total energy              =    -500.78721314 Ry
     estimated scf accuracy    <       0.00091009 Ry

     iteration # 12     ecut=    30.00 Ry     beta= 0.50
     Davidson diagonalization with overlap
     ethr =  3.56E-07,  avg # of iterations =  2.0

     total cpu time spent up to now is        5.8 secs

     total energy              =    -500.78728357 Ry
     estimated scf accuracy    <       0.00058479 Ry

     iteration # 13     ecut=    30.00 Ry     beta= 0.50
     Davidson diagonalization with overlap
     ethr =  2.28E-07,  avg # of iterations =  2.0

     total cpu time spent up to now is        5.9 secs

     total energy              =    -500.78733564 Ry
     estimated scf accuracy    <       0.00042978 Ry

     iteration # 14     ecut=    30.00 Ry     beta= 0.50
     Davidson diagonalization with overlap
     ethr =  1.68E-07,  avg # of iterations =  1.0

     total cpu time spent up to now is        6.0 secs

     total energy              =    -500.78736056 Ry
     estimated scf accuracy    <       0.00007183 Ry

     iteration # 15     ecut=    30.00 Ry     beta= 0.50
     Davidson diagonalization with overlap
     ethr =  2.81E-08,  avg # of iterations =  2.0

     total cpu time spent up to now is        6.1 secs

     total energy              =    -500.78736544 Ry
     estimated scf accuracy    <       0.00004025 Ry

     iteration # 16     ecut=    30.00 Ry     beta= 0.50
     Davidson diagonalization with overlap
     ethr =  1.57E-08,  avg # of iterations =  3.0

     total cpu time spent up to now is        6.2 secs

     total energy              =    -500.78736535 Ry
     estimated scf accuracy    <       0.00010137 Ry

     iteration # 17     ecut=    30.00 Ry     beta= 0.50
     Davidson diagonalization with overlap
     ethr =  1.57E-08,  avg # of iterations =  2.0

     total cpu time spent up to now is        6.2 secs

     total energy              =    -500.78737134 Ry
     estimated scf accuracy    <       0.00001049 Ry

     iteration # 18     ecut=    30.00 Ry     beta= 0.50
     Davidson diagonalization with overlap
     ethr =  4.10E-09,  avg # of iterations =  2.0

     total cpu time spent up to now is        6.3 secs

     total energy              =    -500.78737237 Ry
     estimated scf accuracy    <       0.00000598 Ry

     iteration # 19     ecut=    30.00 Ry     beta= 0.50
     Davidson diagonalization with overlap
     ethr =  2.34E-09,  avg # of iterations =  2.0

     total cpu time spent up to now is        6.4 secs

     total energy              =    -500.78737273 Ry
     estimated scf accuracy    <       0.00000183 Ry

     iteration # 20     ecut=    30.00 Ry     beta= 0.50
     Davidson diagonalization with overlap
     ethr =  7.13E-10,  avg # of iterations =  2.0

     total cpu time spent up to now is        6.5 secs

     End of self-consistent calculation

          k = 0.0000 0.0000 0.0000 ( 10780 PWs)   bands (ev):

    -5.6025  -4.7192  -4.6453  -4.5546  -4.2954  -4.1181  -4.0651  -3.7173
    -3.5044  -3.4347  -3.3150  -3.1857  -3.1068  -2.9822  -2.8307  -2.7098
    -2.6333  -2.6061  -2.4723  -2.1470  -2.0378  -2.0104  -1.8055  -1.6819
    -1.3101  -1.2350  -0.9570  -0.8930  -0.7056  -0.3860  -0.3016  -0.1551
    -0.1033  -0.0381   0.0364   0.2279   0.2877   0.3338   0.4527   0.4718
     0.5947   0.7434   0.9040   0.9197   0.9786   1.0721   1.1613   1.2506
     1.3677   1.4654   1.5219   1.5665   1.6707   1.7293   1.8834   1.9706
     2.0788   2.0979   2.1759   2.2716   2.4773   2.5335   2.5915   2.6619
     2.7719   2.9174   3.0499   3.0978   3.1666   3.2836   3.3524   3.4531
     3.4712   3.5986   3.6988   3.7585   3.9137   4.0524   4.1262   4.2405
     4.3562   4.3994   4.4222   4.6214   4.7296   4.7775   4.8285   5.0163
     5.1272   5.1789   5.2256   5.3805   5.4187   5.5303   5.6239   5.6633
     5.7229   5.7932   5.8906   5.9380   5.9920   6.0399   6.1309   6.1880
     6.2631   6.3173   6.3339   6.4195   6.4813   6.5223   6.5683   6.6836
     6.7388   6.8113   6.8202   6.8726   6.9157   6.9967   7.0370   7.1014
     7.1951   7.2757   7.3782   7.4046   7.4523   7.4896   7.5476   7.6328
     7.6550   7.7011   7.7617   7.8136   7.9172   7.9519   8.0482   8.0631
     8.1085   8.2224   8.3227   8.3618   8.4021   8.4764   8.4973   8.5432
     8.6185   8.7242   8.7698   8.7954   8.8347   8.9296   8.9581   9.0535
     9.1207   9.2402

     the Fermi energy is     7.6385 ev

!    total energy              =    -500.78737260 Ry
     estimated scf accuracy    <       0.00000045 Ry
     smearing contrib. (-TS)   =      -0.15597135 Ry
     internal energy E=F+TS    =    -500.63140125 Ry

     The total energy is F=E-TS. E is the sum of the following terms:
     one-electron contribution =     175.63208927 Ry
     hartree contribution      =      34.86137248 Ry
     xc contribution           =    -153.64840010 Ry
     ewald contribution        =    -557.47646290 Ry

     convergence has been achieved in  20 iterations

     Forces acting on atoms (cartesian axes, Ry/au):

     atom    1 type  1   force =    -0.03787915    0.01032827    0.05977685
     atom    2 type  1   force =    -0.05694929   -0.01369182    0.05137852
     atom    3 type  1   force =    -0.00399008    0.00576120    0.01770198
     atom    4 type  1   force =     0.01912503    0.00929074    0.00533207
     atom    5 type  1   force =    -0.03238429    0.06221867    0.03178054
     atom    6 type  1   force =    -0.00990130   -0.06337418    0.02612196
     atom    7 type  1   force =     0.00464756   -0.01081518    0.06619328
     atom    8 type  1   force =    -0.03596666   -0.01540457   -0.05401610
     atom    9 type  1   force =     0.03180490    0.01131015    0.00792118
     atom   10 type  1   force =    -0.01539528    0.03761628   -0.00719919
     atom   11 type  1   force =    -0.05491160   -0.01279139    0.05090850
     atom   12 type  1   force =     0.02463806   -0.05235160   -0.01385475
     atom   13 type  1   force =    -0.08781037   -0.10608923   -0.00919084
     atom   14 type  1   force =     0.03412471    0.05577213   -0.00700318
     atom   15 type  1   force =    -0.02960959    0.02184573    0.02213314
     atom   16 type  1   force =     0.10628473   -0.00607879   -0.01340312
     atom   17 type  1   force =    -0.09577879    0.07650657   -0.02473755
     atom   18 type  1   force =     0.00984136    0.00190617   -0.01448249
     atom   19 type  1   force =    -0.09406715   -0.01328144   -0.14553533
     atom   20 type  1   force =     0.04265734    0.01685409   -0.02542434
     atom   21 type  1   force =    -0.04043760   -0.00407957   -0.00264806
     atom   22 type  1   force =     0.00505721    0.06393724   -0.02084246
     atom   23 type  1   force =    -0.02565859   -0.02228259    0.00702538
     atom   24 type  1   force =     0.02579747    0.01077583   -0.00436141
     atom   25 type  1   force =     0.06160508   -0.03162203   -0.02771899
     atom   26 type  1   force =     0.00505400   -0.00033132    0.02736563
     atom   27 type  1   force =    -0.04710174   -0.00344963    0.05191640
     atom   28 type  1   force =    -0.05000389   -0.04560170    0.00183534
     atom   29 type  1   force =     0.03967294   -0.00889415   -0.02659630
     atom   30 type  1   force =     0.03213770    0.07981549   -0.06636564
     atom   31 type  1   force =    -0.00414106    0.00054736    0.05620773
     atom   32 type  1   force =     0.01487957    0.01560450   -0.00974276
     atom   33 type  1   force =     0.01282282   -0.00949834    0.01045165
     atom   34 type  1   force =     0.09649927    0.01512364    0.03003133
     atom   35 type  1   force =    -0.00106074    0.00009622    0.00035137
     atom   36 type  1   force =     0.01105783    0.00164826    0.00160559
     atom   37 type  1   force =    -0.03857698    0.01796728    0.00217281
     atom   38 type  1   force =     0.03689905   -0.04725171    0.04810804
     atom   39 type  1   force =     0.03257815   -0.01653478   -0.02586709
     atom   40 type  1   force =     0.01678384    0.03195882   -0.01110371
     atom   41 type  1   force =     0.01437128   -0.02658998    0.00854381
     atom   42 type  1   force =     0.01893294   -0.01162471    0.03221511
     atom   43 type  1   force =     0.03128395    0.06659713   -0.07404942
     atom   44 type  1   force =    -0.04338235   -0.00664201   -0.00614319
     atom   45 type  1   force =     0.01506861    0.02208393   -0.03374737
     atom   46 type  1   force =     0.02488170    0.00151349    0.02483635
     atom   47 type  1   force =     0.02016585    0.02157134    0.00150880
     atom   48 type  1   force =    -0.00185213    0.00815617    0.02314873
     atom   49 type  1   force =    -0.03184073    0.01170133   -0.03832520
     atom   50 type  1   force =    -0.09670365    0.03744951   -0.02527009
     atom   51 type  1   force =     0.02552884   -0.01094976   -0.02822196
     atom   52 type  1   force =     0.10949376   -0.06617085    0.09931914
     atom   53 type  1   force =    -0.03160672    0.06078776   -0.01284912
     atom   54 type  1   force =    -0.00436696   -0.05558941   -0.03929131
     atom   55 type  1   force =    -0.00109867    0.00098564   -0.06252220
     atom   56 type  1   force =     0.01788784    0.00786164    0.04965520
     atom   57 type  1   force =    -0.00833223    0.02168163   -0.02981774
     atom   58 type  1   force =    -0.03097895   -0.02502706   -0.01533878
     atom   59 type  1   force =    -0.00193596   -0.00031691    0.02055326
     atom   60 type  1   force =     0.01371810    0.03786031   -0.01933899
     atom   61 type  1   force =    -0.02486285   -0.03674506   -0.00068746
     atom   62 type  1   force =     0.00030494    0.00196166    0.03876360
     atom   63 type  1   force =     0.12664077   -0.02703812   -0.00591190
     atom   64 type  1   force =    -0.04366182   -0.09697833    0.02674469

     Total force =     0.556454     Total SCF correction =     0.001406


     Computing stress (Cartesian axis) and pressure

          total   stress  (Ry/bohr**3)                   (kbar)     P=       45.65
   0.00038992   0.00002137   0.00002966           57.36        3.14        4.36
   0.00002137   0.00023326  -0.00000894            3.14       34.31       -1.32
   0.00002966  -0.00000894   0.00030780            4.36       -1.32       45.28

 
     init_run     :      1.19s CPU      4.46s WALL (       1 calls)
     electrons    :      1.77s CPU      1.97s WALL (       1 calls)
     forces       :      0.03s CPU      0.03s WALL (       1 calls)
     stress       :      0.13s CPU      0.14s WALL (       1 calls)

     Called by init_run:
     wfcinit      :      0.69s CPU      3.79s WALL (       1 calls)
                                        3.79s GPU  (       1 calls)
     potinit      :      0.04s CPU      0.13s WALL (       1 calls)
     hinit0       :      0.45s CPU      0.48s WALL (       1 calls)

     Called by electrons:
     c_bands      :      1.10s CPU      1.22s WALL (      21 calls)
     sum_band     :      0.35s CPU      0.40s WALL (      21 calls)
     v_of_rho     :      0.14s CPU      0.24s WALL (      21 calls)
     mix_rho      :      0.14s CPU      0.16s WALL (      21 calls)

     Called by c_bands:
     init_us_2    :      0.05s CPU      0.06s WALL (      43 calls)
     init_us_2:gp :      0.05s CPU      0.06s WALL (      43 calls)
     regterg      :      0.94s CPU      1.05s WALL (      21 calls)

     Called by *egterg:
     rdiaghg      :      0.39s CPU      1.05s WALL (      82 calls)
                                        1.04s GPU  (      82 calls)
     h_psi        :      1.09s CPU      3.59s WALL (      84 calls)
                                        3.59s GPU  (      84 calls)
     g_psi        :      0.00s CPU      0.00s WALL (      62 calls)
                                        0.00s GPU  (      62 calls)

     Called by h_psi:
     h_psi:calbec :      0.67s CPU      3.10s WALL (      84 calls)
                                        3.10s GPU  (      84 calls)
     vloc_psi     :      0.37s CPU      0.43s WALL (      84 calls)
                                        0.43s GPU  (      84 calls)
     add_vuspsi   :      0.03s CPU      0.05s WALL (      84 calls)
                                        0.05s GPU  (      84 calls)

     General routines
     calbec       :      0.68s CPU      3.10s WALL (      89 calls)
     fft          :      0.56s CPU      0.69s WALL (     175 calls)
                                        0.12s GPU  (     111 calls)
     ffts         :      0.03s CPU      0.04s WALL (      21 calls)
     fftw         :      0.46s CPU      0.61s WALL (    2185 calls)
                                        0.53s GPU  (    2185 calls)
 
     Parallel routines
 
     PWSCF        :      3.17s CPU      6.68s WALL

 
   This run was terminated on:  12: 6:35  11May2023            

=------------------------------------------------------------------------------=
   JOB DONE.
=------------------------------------------------------------------------------=
