0.012185787868927121 0.0014929242823143085 0.0075389921784026976 0.0014929242823143085 0.003770873325624148 0.004111509800863145 0.0075389921784026976 0.004111509800863145 0.0033531116107083977
0.009333990316117625 -0.003288840577644436 0.005755011932070163 -0.003288840577644436 0.006478520132847331 0.001126579393849727 0.005755011932070163 0.001126579393849727 0.005511700164042309
0.006660315340656822 -0.0032658866372644495 0.00808529595944637 -0.0032658866372644495 0.005990978439176423 0.0009677381264202222 0.00808529595944637 0.0009677381264202222 0.005966188183566037
0.008328607727474227 -0.0013184743354264126 0.009817859379327736 -0.0013184743354264126 0.0044870362654797205 0.001142188073308118 0.009817859379327736 0.001142188073308118 0.003018902238775797
0.006162673913218719 -0.0013368374877304016 0.010602884140323269 -0.0013368374877304016 -0.0026947926006103905 0.0007400350378507581 0.010602884140323269 0.0007400350378507581 -0.005250943401325665
0.003343930034556403 -0.0037754641137001453 0.005182999737800905 -0.0037754641137001453 -0.002615831045703238 0.0011210704481585305 0.005182999737800905 0.0011210704481585305 -0.0031951885008940917
0.0023945550604401703 -0.006642870345968032 0.0008474594788290938 -0.006642870345968032 0.005160045797420919 -0.0008391960602922989 0.0008474594788290938 -0.0008391960602922989 -0.000778597657689135
0.0028793422812654805 -0.004288714220596639 0.002464335039195328 -0.004288714220596639 0.009535984991461506 -0.004575179396538868 0.002464335039195328 -0.004575179396538868 -0.005216053411948085
0.006622670878433645 0.0021631793414099085 -0.0010439452084817764 0.0021631793414099085 0.007196519387933303 -0.007980625991313633 -0.0010439452084817764 -0.007980625991313633 0.00021393072434147225
0.008409405597611778 0.004364003145042994 -0.0066199164055880475 0.004364003145042994 0.002278867200925039 -0.00728374436137725 -0.0066199164055880475 -0.00728374436137725 0.005342759162845609
0.00925961954928647 0.005895490047195679 -0.009019980411719412 0.005895490047195679 -0.0031639711419773103 -0.003109799842680543 -0.009019980411719412 -0.003109799842680543 0.004902043507549873
0.010948111403638262 0.006172773646985914 -0.007747413957052973 0.006172773646985914 -0.00629488860980744 0.002591040790092853 -0.007747413957052973 0.002591040790092853 0.004543962037622086
0.007264463051458062 0.0018932410025412692 -0.0029307591077166496 0.0018932410025412692 -0.007788731049736949 0.005185754210646504 -0.0029307591077166496 0.005185754210646504 0.002457907935888932
0.006633688769816038 -0.001736236050342163 0.001851923909857294 -0.001736236050342163 -0.006692450857188803 0.0026617389264632103 0.001851923909857294 0.0026617389264632103 -0.0020722817375051624
0.011582558315741084 -0.0027976262535127296 0.004263923964986254 -0.0027976262535127296 -0.004490708895940518 -8.17160277527512e-05 0.004263923964986254 -8.17160277527512e-05 -0.009255946918825673
0.010096979294348371 -0.0032603776915732527 0.003737819651476968 -0.0032603776915732527 -0.002339465603528203 -0.002959221993787833 0.003737819651476968 -0.002959221993787833 -0.0150697209382686
-0.00010926075620873476 -0.0025993042086296476 0.0003544088394669884 -0.0025993042086296476 -0.000768497923921941 -0.002715910225759978 0.0003544088394669884 -0.002715910225759978 -0.020401462209731817
-0.013439991171289573 -0.0011082162415457382 -0.004421847074800559 -0.0011082162415457382 -0.0029601401514030325 -0.0015259779564614888 -0.004421847074800559 -0.0015259779564614888 -0.02322387871885493
-0.023523198101409952 -0.0007877792338411295 -0.007162547556170922 -0.0007877792338411295 -0.0063848680560969874 -0.0025230971265680934 -0.007162547556170922 -0.0025230971265680934 -0.017689224614432637
-0.02564230587729029 -0.0028931146454934725 -0.0033081218875636244 -0.0028931146454934725 -0.010395380519288193 -0.00254513290933288 -0.0033081218875636244 -0.00254513290933288 -0.011953493992281662
-0.028618054708151708 -0.005382239940299185 -0.001120152290543331 -0.005382239940299185 -0.018174011835257946 -0.0010641446760161646 -0.001120152290543331 -0.0010641446760161646 -0.011947985046590465
-0.03699532478923151 -0.004978250589611427 -0.0026672478721544075 -0.004978250589611427 -0.02148488819566717 0.0004884598512861083 -0.0026672478721544075 0.0004884598512861083 -0.017390823389492813
-0.03580080173185702 -0.001962102823681228 -0.002723255486681574 -0.001962102823681228 -0.02141694453214241 0.0008208329079883099 -0.002723255486681574 0.0008208329079883099 -0.02826089139583912
-0.023587469134473914 -9.457023436554353e-05 0.0003911351440749664 -9.457023436554353e-05 -0.02453225332051415 0.0021778698632530995 0.0003911351440749664 0.0021778698632530995 -0.04006288938161288
-0.02041339825872941 0.002573595795404063 0.0015158782226942947 0.002573595795404063 -0.02389688825079613 0.0017243000013445703 0.0015158782226942947 0.0017243000013445703 -0.04793609093194817
-0.023951977707708096 0.007404941166583578 -0.0006776003200171954 0.007404941166583578 -0.024919715834128317 -0.0016416658159766199 -0.0006776003200171954 -0.0016416658159766199 -0.045461656158985654
-0.021301256672627278 0.005557608044802281 -0.006048822368933988 0.005557608044802281 -0.019827613700232158 -0.0025543144854848748 -0.006048822368933988 -0.0025543144854848748 -0.032227332293500756
-0.019806496075082572 0.0013157198625808142 -0.008516830038590113 0.0013157198625808142 -0.01730084394320327 0.0005802756128060534 -0.008516830038590113 0.0005802756128060534 -0.02324958713208052
-0.02630888830592509 0.0012973567102768254 -0.0070330873324278 0.0012973567102768254 -0.019017798683626245 0.004177617149157506 -0.0070330873324278 0.004177617149157506 -0.017589145434375897
-0.024406465727231826 0.0020135196501323976 -0.0027810994164391392 0.0020135196501323976 -0.014856708371542328 0.002707646807223183 -0.0027810994164391392 0.002707646807223183 -0.01254111486600931
-0.021497742402279963 -0.0014332440373263442 -0.00038470804076857026 -0.0014332440373263442 -0.007452685362573949 -0.0008942855172042659 -0.00038470804076857026 -0.0008942855172042659 -0.014309486432883455
-0.02420171657904235 -0.002051164112355575 0.0005536490419652694 -0.002051164112355575 -0.003673548618413006 -0.00231100271745702 0.0005536490419652694 -0.00231100271745702 -0.019494322485914758
-0.026616471107016905 -0.0023064119293810226 -0.0003663448884645812 -0.0023064119293810226 -0.002075036210350761 -0.004681685679902004 -0.0003663448884645812 -0.004681685679902004 -0.025049176057871443
-0.021977020677414076 -0.0012000320030656833 -0.002235713793010665 -0.0012000320030656833 -0.006365586746177799 -0.005698086159927797 -0.002235713793010665 -0.005698086159927797 -0.025223626004759338
-0.014838345219238339 -0.0004893780089013077 -0.0013524461671887923 -0.0004893780089013077 -0.008805131529762741 -0.0005784392975756546 -0.0013524461671887923 -0.0005784392975756546 -0.015219380629546113
-0.013804499744523756 -0.004448473645641343 -0.0005187590525876902 -0.004448473645641343 -0.00909159670570497 0.004829509055949116 -0.0005187590525876902 0.004829509055949116 -0.007943899686705657
-0.016721486488012412 -0.0067438676836399725 0.002215514325476277 -0.0067438676836399725 -0.007809848674886537 0.004056420343951177 0.002215514325476277 0.004056420343951177 -0.010875576952037506
-0.018744187714296808 -0.0024248542617417517 0.006147983391375528 -0.0024248542617417517 -0.00433737657420221 0.0014947605975447074 0.006147983391375528 0.0014947605975447074 -0.01903799815116063
-0.02051623191163175 0.0029482041024054394 0.008109168057441557 0.0029482041024054394 -0.001579231098143057 0.0004774419599037149 0.008109168057441557 0.0004774419599037149 -0.024474409390756582
-0.015235907466619701 0.008089886747522368 0.00582754638367092 0.008089886747522368 -0.00015333232173830844 -0.0014791519180863168 0.00582754638367092 -0.0014791519180863168 -0.023693975417837052
-0.012888178444554704 0.00925961954928647 0.0014001903631791638 0.00925961954928647 -0.003386165284855578 -0.0037414922819377656 0.0014001903631791638 -0.0037414922819377656 -0.0205961116241541
-0.012265667581449475 0.0061856278535987064 -0.0019428215137620398 0.0061856278535987064 -0.010474342074195345 -0.0029729943580158245 -0.0019428215137620398 -0.0029729943580158245 -0.016104484570598383
-0.005796329024754138 0.005386830728375183 -4.5907880759972583e-05 0.005386830728375183 -0.014844772322544737 -0.004971823486305031 -4.5907880759972583e-05 -0.004971823486305031 -0.013586896389721487
-0.0008502139516746922 0.005901917150502076 -0.001443343771093538 0.005901917150502076 -0.01622476321818951 -0.003664367042261012 -0.001443343771093538 -0.003664367042261012 -0.014044138882090813
-0.0009502931317314325 0.0031116361579109422 -0.0062645894085058594 0.0031116361579109422 -0.018633090642857675 0.0007097358365491763 -0.0062645894085058594 0.0007097358365491763 -0.01596033382501207
-0.0034844081496819192 0.0013249014387328088 -0.008066932807142383 0.0013249014387328088 -0.011454934407228359 0.0016480929192830157 -0.008066932807142383 0.0016480929192830157 -0.011235494737195692
-0.00618011890790751 0.003812190418308124 -0.006531773274528899 0.003812190418308124 -0.0014396711406327403 -0.00012762390851272379 -0.006531773274528899 -0.00012762390851272379 -0.0075527645426306895
-0.007140511773406136 0.007889728387408888 -0.0025690050073280657 0.007889728387408888 0.004235461078915071 -0.0003103372739374147 -0.0025690050073280657 -0.0003103372739374147 -0.0075647005916282825
-0.004732184348737974 0.00840665112476618 0.002520342653722495 0.00840665112476618 0.004079374284331164 0.0014993513856207048 0.002520342653722495 0.0014993513856207048 -0.005962515553105239
0.005066393720670574 0.003937978011590448 0.001402026678409563 0.003937978011590448 0.002972076200400625 0.0033448481921716025 0.001402026678409563 0.0033448481921716025 0.0004811145903645127
0.009530476045770309 -0.0008070605437603181 -0.004821245637412321 -0.0008070605437603181 0.005380403625068787 0.00314744430490372 -0.004821245637412321 0.00314744430490372 0.008380942711540594
0.004449391803256543 -0.0013891724717967704 -0.0061957275873659 -0.0013891724717967704 0.01096739271355745 0.0003709356765405785 -0.0061957275873659 0.0003709356765405785 0.012398800435653397
-3.305367414718026e-05 0.0017637807787981468 -0.004151908735931921 0.0017637807787981468 0.01508992040580299 -0.0032750682134164446 -0.004151908735931921 -0.0032750682134164446 0.008099986481289564
-0.0034284005351547524 0.005167391058342514 -0.0005196772102028897 0.005167391058342514 0.013792563695526163 -0.005536490419652694 -0.0005196772102028897 -0.005536490419652694 -0.006143392603299531
-0.006095648407309161 0.0034706357854539273 3.397183176237971e-05 0.0034706357854539273 0.014168090160142739 -0.00597720607494843 3.397183176237971e-05 -0.00597720607494843 -0.018094132122735595
-0.005261043135092858 0.002353237967756195 0.0003544088394669884 0.002353237967756195 0.015571953153782701 -0.005003040845221812 0.0003544088394669884 -0.005003040845221812 -0.01857432855548491
-0.002113598830189138 0.006162673913218719 0.0036074412701186456 0.006162673913218719 0.019323545169487658 -0.0035927507482754546 0.0036074412701186456 -0.0035927507482754546 -0.011163878443210134
-0.003024411184466994 0.007721705543827388 0.004235461078915071 0.007721705543827388 0.019013207895550246 -0.00222653221685867 0.004235461078915071 -0.00222653221685867 -0.005070066351131373
-0.003194270343278892 0.002719582856220776 0.000912648669508255 0.002719582856220776 0.013467535899745557 -0.0031602985115165125 0.000912648669508255 -0.0031602985115165125 -0.006047904211318789
0.0015030240160815026 -0.0020621820037379683 -0.004046320610183984 -0.0020621820037379683 0.006644706661198432 -0.0034972623562947117 -0.004046320610183984 -0.0034972623562947117 -0.007331488557367622
-0.00026259307794704317 -0.0034550271059955364 -0.005938643455110053 -0.0034550271059955364 -0.00011476970189993147 -0.002094317520269949 -0.005938643455110053 -0.002094317520269949 -0.008223937759341488
-0.0063059065011898344 -0.0034807355192211214 -0.0034853263072971187 -0.0034807355192211214 -0.00037552646461657573 -0.0014644613962431256 -0.0034853263072971187 -0.0014644613962431256 -0.0063334512296458175
-0.010595538879401673 -0.0038222901520753175 0.0007290171464683647 -0.0038222901520753175 0.0038571801414528967 -0.0004572424923693269 0.0007290171464683647 -0.0004572424923693269 0.0005931298194188458
-0.009333072158502428 -0.0015066966465423002 0.0009007126205106621 -0.0015066966465423002 0.0008566410549810885 0.002254076945314654 0.0009007126205106621 0.002254076945314654 0.007839229718572918
-0.0036937480859473943 0.00292984095010145 -0.0028701607051134863 0.00292984095010145 -0.0046568954242916195 0.0033953468610075726 -0.0028701607051134863 0.0033953468610075726 0.008263418536795067
0.001097198350163345 0.006365586746177799 -0.005856927427357302 0.006365586746177799 -0.005916607672345267 0.0036046867972730472 -0.005856927427357302 0.0036046867972730472 -0.0011798325355312955
0.0005775211399604551 0.0057596027201461605 -0.004519171782011701 0.0057596027201461605 -0.009983127750063638 0.001796834452945327 -0.004519171782011701 0.001796834452945327 -0.009430396865713567
-0.0009374389251186402 0.002385373484288175 0.0003020738554006196 0.002385373484288175 -0.015134910128947762 -0.003121735891678136 0.0003020738554006196 -0.003121735891678136 -0.00946069606701515
-0.003675384933643405 0.0017628626211829471 0.002232041162549867 0.0017628626211829471 -0.01595390672170567 -0.006220517842976284 0.002232041162549867 -0.006220517842976284 -0.00961035575829266
-0.008076114383294378 0.003155707723440515 0.0007345260921595613 0.003155707723440515 -0.012371255707197413 -0.004791864593725938 0.0007345260921595613 -0.004791864593725938 -0.008722497344394791
-0.009557102616611093 0.004424601547646158 -0.0006858637385539904 0.004424601547646158 -0.008480103733982136 -0.002864651759422289 -0.0006858637385539904 -0.002864651759422289 -0.008883174927054694
-0.006851292124618309 0.003102454581758947 -0.0037148657110969816 0.003102454581758947 -0.004351148938430202 0.0010219094257169898 -0.0037148657110969816 0.0010219094257169898 -0.012019601340576022
-0.0042859597477510405 0.00063628322733322 -0.00694953498944465 0.00063628322733322 0.0009034670933562606 0.006731013477027181 -0.00694953498944465 0.006731013477027181 -0.01622568137580471
-0.003976540631428825 -0.00037001751892537906 -0.008677507621250018 -0.00037001751892537906 -0.0007877792338411295 0.009383570827338397 -0.008677507621250018 0.009383570827338397 -0.024108064502292005
-0.0024019003213617655 0.0026718386602304044 -0.008579264756423677 0.0026718386602304044 -0.007003706288741417 0.008677507621250018 -0.008579264756423677 0.008677507621250018 -0.023255096077771712
-0.0028674062322678875 0.007190092284626907 -0.006691532699573603 0.007190092284626907 -0.015161536699788546 0.005229825776176077 -0.006691532699573603 0.005229825776176077 -0.018934246340643092
-0.0023082482446114216 0.005318887064850424 -0.001388254314181571 0.005318887064850424 -0.01715210240954096 0.0019382307256860425 -0.001388254314181571 0.0019382307256860425 -0.01845496806550898
0.0035505154979762798 -0.00017536810450309527 0.002722337329066374 -0.00017536810450309527 -0.015091756721033387 0.0016701287020478026 0.002722337329066374 0.0016701287020478026 -0.021210359068722533
0.006372013849484195 -0.0036965025587929923 0.0010990346653937438 -0.0036965025587929923 -0.017882037713624524 0.0033540297683235967 0.0010990346653937438 0.0033540297683235967 -0.0210965075244378
0.0058918174167348816 -0.005045276095520987 -0.004349312623199803 -0.005045276095520987 -0.017925191121538897 0.0011926867421440876 -0.004349312623199803 0.0011926867421440876 -0.021139660932352176
0.006997279185435022 -0.004108755328017546 -0.005905589780962873 -0.004108755328017546 -0.017755331962726998 0.0023670103319841864 -0.005905589780962873 0.0023670103319841864 -0.021407762955990416
0.003352193453093198 -0.001784898403947734 -0.004146399790240724 -0.001784898403947734 -0.01700244271826345 0.004330949470895813 -0.004146399790240724 0.004330949470895813 -0.024098882926140007
-0.006293970452192241 0.0006133292869532338 -0.0013092927592744182 0.0006133292869532338 -0.01110144372537657 0.004620169119683641 -0.0013092927592744182 0.004620169119683641 -0.02235621977249145
-0.015415866359198793 0.0027021378615319867 -0.00036267225800378346 0.0027021378615319867 -0.0053097054886984294 0.005804592443290933 -0.00036267225800378346 0.005804592443290933 -0.020149887023167164
-0.01978996923800898 0.003922369332132057 0.0005187590525876902 0.003922369332132057 -0.005025994785601799 0.007137757300560537 0.0005187590525876902 0.007137757300560537 -0.02251047025184496
-0.016266998468488687 0.0014258987764047483 0.005289506021164041 0.0014258987764047483 -0.008844612307216318 0.0041298729531671335 0.005289506021164041 0.0041298729531671335 -0.019278555446342886
-0.011279566302725265 -0.002703974176762385 0.008586610017345273 -0.002703974176762385 -0.013345420936924032 0.0019464941442228377 0.008586610017345273 0.0019464941442228377 -0.019003108161783053
-0.00818904776996391 -0.0037369014938617683 0.007091849419800565 -0.0037369014938617683 -0.0149035344099175 0.003642331259496225 0.007091849419800565 0.003642331259496225 -0.018363152303989036
-0.004924997447929859 -0.002122780406341132 0.002061263846122769 -0.002122780406341132 -0.014561061619448106 0.007520629026098708 0.002061263846122769 0.007520629026098708 -0.014929242823143084
0.0019685299269876244 0.00036726304607978067 -0.0010439452084817764 0.00036726304607978067 -0.01096739271355745 0.009858258314396512 -0.0010439452084817764 0.009858258314396512 -0.013187497827109726
0.009068642765324986 0.0013148017049656147 0.0009521294469618315 0.0013148017049656147 -0.003543170237054684 0.009213711668526497 0.0009521294469618315 0.009213711668526497 -0.014416910873861792
0.00922656587513929 -0.0010237457409473887 0.0022862124618466344 -0.0010237457409473887 -0.002812316775355921 0.008335034830780621 0.0022862124618466344 0.008335034830780621 -0.02001216338088725
0.004858890099635499 -0.004695458044129996 0.002423017946511353 -0.004695458044129996 -0.004235461078915071 0.004754220131502761 0.002423017946511353 0.004754220131502761 -0.0236085867596235
-0.0012082954216024785 -0.0038691161904504893 0.004326358682819817 -0.0038691161904504893 -0.005422638875367962 0.00011660601713033036 0.004326358682819817 0.00011660601713033036 -0.019112368917991788
-0.005328068641002418 -0.004683521995132403 0.004515499151550904 -0.004683521995132403 -0.009936301711688467 -0.002358746913447391 0.004515499151550904 -0.002358746913447391 -0.015324968755294049
-0.00498926848099382 -0.009539657621922304 0.0005095774764356957 -0.009539657621922304 -0.01411850964892197 -0.00661348930228165 0.0005095774764356957 -0.00661348930228165 -0.014298468541501061
-0.0037231291296337767 -0.011882795855911303 -0.006415167257398568 -0.011882795855911303 -0.01575374836159219 -0.01168814644148902 -0.006415167257398568 -0.01168814644148902 -0.01420114383428992
-0.006768657939250358 -0.009903248037541286 -0.010748871201139982 -0.009903248037541286 -0.019384143572090826 -0.012067345536566394 -0.010748871201139982 -0.012067345536566394 -0.015381894527436414
-0.011609184886581867 -0.002918823058719057 -0.011029827431391014 -0.002918823058719057 -0.019955237608744885 -0.008395633233383788 -0.011029827431391014 -0.008395633233383788 -0.019850567640612146
-0.014177271736294733 0.002731518905218369 -0.009684726525123817 0.002731518905218369 -0.017744314071344604 -0.005576889354721469 -0.009684726525123817 -0.005576889354721469 -0.028938491715856315
-0.013978031533796452 0.0028104804601255216 -0.005719203785077385 0.0028104804601255216 -0.016498374187518948 -0.0034403365841523454 -0.005719203785077385 -0.0034403365841523454 -0.030140360034152405
