An instance of this daemon is already running
An instance of this daemon is already running

     Program PWSCF v.7.1 starts on 10May2023 at 10:59:21 

     This program is part of the open-source Quantum ESPRESSO suite
     for quantum simulation of materials; please cite
         "P. Giannozzi et al., J. Phys.:Condens. Matter 21 395502 (2009);
         "P. Giannozzi et al., J. Phys.:Condens. Matter 29 465901 (2017);
         "P. Giannozzi et al., J. Chem. Phys. 152 154105 (2020);
          URL http://www.quantum-espresso.org", 
     in publications or presentations arising from this work. More details at
     http://www.quantum-espresso.org/quote

     Parallel version (MPI & OpenMP), running on       4 processor cores
     Number of MPI processes:                 4
     Threads/MPI process:                     1

     MPI processes distributed on     1 nodes
     753555 MiB available memory on the printing compute node when the environment starts
 
     Reading input from pw-si-33.in
Warning: card &CELL ignored
Warning: card / ignored

     Current dimensions of program PWSCF are:
     Max number of different atomic species (ntypx) = 10
     Max number of k-points (npk) =  40000
     Max angular momentum in pseudopotentials (lmaxx) =  4

     IMPORTANT: XC functional enforced from input :
     Exchange-correlation= PBE
                           (   1   4   3   4   0   0   0)
     Any further DFT definition will be discarded
     Please, verify this is what you really want


     gamma-point specific algorithms are used
 
     K-points division:     npool     =       2
     R & G space division:  proc/nbgrp/npool/nimage =       2
     Subspace diagonalization in iterative solution of the eigenvalue problem:
     a serial algorithm will be used

     Message from routine divide_et_impera:
     suboptimal parallelization: some nodes have no k-points
 
     Parallelization info
     --------------------
     sticks:   dense  smooth     PW     G-vecs:    dense   smooth      PW
     Min        1953    1953    519                91815    91815   12442
     Max        1956    1956    522                91820    91820   12443
     Sum        3909    3909   1041               183635   183635   24885
 
     Using Slab Decomposition
 


     bravais-lattice index     =            0
     lattice parameter (alat)  =      20.2152  a.u.
     unit-cell volume          =    8261.0764 (a.u.)^3
     number of atoms/cell      =           64
     number of atomic types    =            1
     number of electrons       =       256.00
     number of Kohn-Sham states=          154
     kinetic-energy cutoff     =      30.0000  Ry
     charge density cutoff     =     120.0000  Ry
     scf convergence threshold =      1.0E-06
     mixing beta               =       0.5000
     number of iterations used =            8  plain     mixing
     Exchange-correlation= PBE
                           (   1   4   3   4   0   0   0)

     GPU acceleration is ACTIVE.
     GPU-aware MPI enabled

     Message from routine print_cuda_info:
     High GPU oversubscription detected. Are you sure this is what you want?

     celldm(1)=  20.215239  celldm(2)=   0.000000  celldm(3)=   0.000000
     celldm(4)=   0.000000  celldm(5)=   0.000000  celldm(6)=   0.000000

     crystal axes: (cart. coord. in units of alat)
               a(1) = (   1.000000   0.000000   0.000000 )  
               a(2) = (   0.000000   1.000000   0.000000 )  
               a(3) = (   0.000000   0.000000   1.000000 )  

     reciprocal axes: (cart. coord. in units 2 pi/alat)
               b(1) = (  1.000000  0.000000  0.000000 )  
               b(2) = (  0.000000  1.000000  0.000000 )  
               b(3) = (  0.000000  0.000000  1.000000 )  


     PseudoPot. # 1 for Si read from file:
     /home/ppiaggi/pseudos/Si_ONCV_PBE_sr.upf
     MD5 check sum: 8553c464762ac42b85b1eed164b4d029
     Pseudo is Norm-conserving, Zval =  4.0
     Generated using ONCVPSP code by D. R. Hamann
     Using radial grid of 1510 points,  4 beta functions with: 
                l(1) =   0
                l(2) =   0
                l(3) =   1
                l(4) =   1

     atomic species   valence    mass     pseudopotential
        Si             4.00    28.08500     Si( 1.00)

     No symmetry found



   Cartesian axes

     site n.     atom                  positions (alat units)
         1           Si  tau(   1) = (   0.8288280   0.0701417   0.2722210  )
         2           Si  tau(   2) = (   0.7626430   0.4393950   0.0072997  )
         3           Si  tau(   3) = (   0.6786250   0.6192980   0.1263720  )
         4           Si  tau(   4) = (   0.8908610   0.5951400   0.7124090  )
         5           Si  tau(   5) = (   0.8431790   0.3748000   0.6565950  )
         6           Si  tau(   6) = (   0.1712530   0.4560030   0.2902960  )
         7           Si  tau(   7) = (   0.6123870   0.4132900   0.4226190  )
         8           Si  tau(   8) = (   0.9675460   0.0764064   0.6799530  )
         9           Si  tau(   9) = (   0.4525200   0.3316020   0.0185542  )
        10           Si  tau(  10) = (   0.6714130   0.9816530   0.6051040  )
        11           Si  tau(  11) = (   0.8416700   0.8863220   0.7529750  )
        12           Si  tau(  12) = (   0.6515260   0.6778100   0.4698690  )
        13           Si  tau(  13) = (   0.6658610   0.6537670   0.7125900  )
        14           Si  tau(  14) = (   0.9126630   0.2530220   0.8543660  )
        15           Si  tau(  15) = (   0.6770830   0.2645610   0.1049410  )
        16           Si  tau(  16) = (   0.2352960   0.5768700   0.9655130  )
        17           Si  tau(  17) = (   0.1557130   0.6835350   0.2797530  )
        18           Si  tau(  18) = (   0.4942000   0.5988750   0.2855070  )
        19           Si  tau(  19) = (   0.2501130   0.4913520   0.7571490  )
        20           Si  tau(  20) = (   0.0852622   0.9019720   0.8473860  )
        21           Si  tau(  21) = (   0.4499820   0.5631050   0.6241010  )
        22           Si  tau(  22) = (   0.9236660   0.3282980   0.4445100  )
        23           Si  tau(  23) = (   0.5921080   0.4600800   0.8774630  )
        24           Si  tau(  24) = (   0.6185300   0.9614810   0.2571440  )
        25           Si  tau(  25) = (   0.3033140   0.3911340   0.4769820  )
        26           Si  tau(  26) = (   0.7476870   0.1112940   0.9593340  )
        27           Si  tau(  27) = (   0.8097160   0.1132210   0.4969330  )
        28           Si  tau(  28) = (   0.4723330   0.2337930   0.3879600  )
        29           Si  tau(  29) = (   0.0272017   0.7532350   0.0803822  )
        30           Si  tau(  30) = (   0.0759452   0.3818060   0.9607240  )
        31           Si  tau(  31) = (   0.5122080   0.6518630   0.9661150  )
        32           Si  tau(  32) = (   0.1071960   0.1783670   0.4043850  )
        33           Si  tau(  33) = (   0.2272780   0.0681630   0.1970650  )
        34           Si  tau(  34) = (   0.3661900   0.2894350   0.7861410  )
        35           Si  tau(  35) = (   0.0271748   0.9706010   0.4304130  )
        36           Si  tau(  36) = (   0.9002200   0.8238010   0.2722310  )
        37           Si  tau(  37) = (   0.2838050   0.7841930   0.0287846  )
        38           Si  tau(  38) = (   0.4743460   0.1237650   0.2015900  )
        39           Si  tau(  39) = (   0.3386520   0.6293980   0.4436900  )
        40           Si  tau(  40) = (   0.9419090   0.5761520   0.9329080  )
        41           Si  tau(  41) = (   0.8437680   0.6157150   0.3683640  )
        42           Si  tau(  42) = (   0.7330760   0.8386840   0.1056480  )
        43           Si  tau(  43) = (   0.2428680   0.8930280   0.3421040  )
        44           Si  tau(  44) = (   0.0447023   0.6297830   0.4651140  )
        45           Si  tau(  45) = (   0.3385100   0.1183620   0.9810870  )
        46           Si  tau(  46) = (   0.1823110   0.1954630   0.6248680  )
        47           Si  tau(  47) = (   0.2556450   0.7684160   0.6633240  )
        48           Si  tau(  48) = (   0.3430300   0.8833010   0.8599240  )
        49           Si  tau(  49) = (   0.3566870   0.1247180   0.5608720  )
        50           Si  tau(  50) = (   0.3471760   0.4841540   0.1492060  )
        51           Si  tau(  51) = (   0.8239230   0.3972640   0.2679410  )
        52           Si  tau(  52) = (   0.0342748   0.7942590   0.6109870  )
        53           Si  tau(  53) = (   0.5604540   0.8665070   0.4663020  )
        54           Si  tau(  54) = (   0.0249550   0.3265910   0.1806480  )
        55           Si  tau(  55) = (   0.4405960   0.7972340   0.1878590  )
        56           Si  tau(  56) = (   0.1389570   0.1209230   0.8888190  )
        57           Si  tau(  57) = (   0.5508550   0.0849772   0.8685750  )
        58           Si  tau(  58) = (   0.5662970   0.1562040   0.6675860  )
        59           Si  tau(  59) = (   0.0162323   0.1122890   0.1133730  )
        60           Si  tau(  60) = (   0.3528710   0.9113410   0.5121300  )
        61           Si  tau(  61) = (   0.6219060   0.3621540   0.6326960  )
        62           Si  tau(  62) = (   0.0766800   0.4363320   0.5966770  )
        63           Si  tau(  63) = (   0.6021680   0.8514540   0.8725340  )
        64           Si  tau(  64) = (   0.8861850   0.9507640   0.9809300  )

     number of k points=     1  Fermi-Dirac smearing, width (Ry)=  0.0100
                       cart. coord. in units 2pi/alat
        k(    1) = (   0.0000000   0.0000000   0.0000000), wk =   2.0000000

     Dense  grid:    91818 G-vectors     FFT dimensions: (  72,  72,  72)

     Estimated max dynamical RAM per process >     147.02 MB

     Estimated total dynamical RAM >     565.65 MB

     Initial potential from superposition of free atoms

     starting charge     255.9608, renormalised to     256.0000
     Starting wfcs are  256 randomized atomic wfcs

     total cpu time spent up to now is        5.0 secs

     Self-consistent Calculation

     iteration #  1     ecut=    30.00 Ry     beta= 0.50
     Davidson diagonalization with overlap
     ethr =  1.00E-02,  avg # of iterations =  3.0

     Threshold (ethr) on eigenvalues was too large:
     Diagonalizing with lowered threshold

     Davidson diagonalization with overlap
     ethr =  4.13E-04,  avg # of iterations =  4.0

     total cpu time spent up to now is        5.3 secs

     total energy              =    -501.46898569 Ry
     estimated scf accuracy    <       1.25937790 Ry

     iteration #  2     ecut=    30.00 Ry     beta= 0.50
     Davidson diagonalization with overlap
     ethr =  4.92E-04,  avg # of iterations =  4.0

     total cpu time spent up to now is        5.4 secs

     total energy              =    -501.13931707 Ry
     estimated scf accuracy    <       3.24455666 Ry

     iteration #  3     ecut=    30.00 Ry     beta= 0.50
     Davidson diagonalization with overlap
     ethr =  4.92E-04,  avg # of iterations =  4.0

     total cpu time spent up to now is        5.5 secs

     total energy              =    -501.42685397 Ry
     estimated scf accuracy    <       2.77283815 Ry

     iteration #  4     ecut=    30.00 Ry     beta= 0.50
     Davidson diagonalization with overlap
     ethr =  4.92E-04,  avg # of iterations =  3.0

     total cpu time spent up to now is        5.6 secs

     total energy              =    -501.62870433 Ry
     estimated scf accuracy    <       0.53783837 Ry

     iteration #  5     ecut=    30.00 Ry     beta= 0.50
     Davidson diagonalization with overlap
     ethr =  2.10E-04,  avg # of iterations =  2.0

     total cpu time spent up to now is        5.7 secs

     total energy              =    -501.66601901 Ry
     estimated scf accuracy    <       0.19854042 Ry

     iteration #  6     ecut=    30.00 Ry     beta= 0.50
     Davidson diagonalization with overlap
     ethr =  7.76E-05,  avg # of iterations =  3.0

     total cpu time spent up to now is        5.8 secs

     total energy              =    -501.68748124 Ry
     estimated scf accuracy    <       0.16045648 Ry

     iteration #  7     ecut=    30.00 Ry     beta= 0.50
     Davidson diagonalization with overlap
     ethr =  6.27E-05,  avg # of iterations =  1.0

     total cpu time spent up to now is        5.9 secs

     total energy              =    -501.69991554 Ry
     estimated scf accuracy    <       0.00644198 Ry

     iteration #  8     ecut=    30.00 Ry     beta= 0.50
     Davidson diagonalization with overlap
     ethr =  2.52E-06,  avg # of iterations = 20.0

     total cpu time spent up to now is        6.1 secs

     total energy              =    -501.70053370 Ry
     estimated scf accuracy    <       0.01665428 Ry

     iteration #  9     ecut=    30.00 Ry     beta= 0.50
     Davidson diagonalization with overlap
     ethr =  2.52E-06,  avg # of iterations =  3.0

     total cpu time spent up to now is        6.3 secs

     total energy              =    -501.70194503 Ry
     estimated scf accuracy    <       0.00340158 Ry

     iteration # 10     ecut=    30.00 Ry     beta= 0.50
     Davidson diagonalization with overlap
     ethr =  1.33E-06,  avg # of iterations =  2.0

     total cpu time spent up to now is        6.3 secs

     total energy              =    -501.70213169 Ry
     estimated scf accuracy    <       0.00127418 Ry

     iteration # 11     ecut=    30.00 Ry     beta= 0.50
     Davidson diagonalization with overlap
     ethr =  4.98E-07,  avg # of iterations =  2.0

     total cpu time spent up to now is        6.4 secs

     total energy              =    -501.70223242 Ry
     estimated scf accuracy    <       0.00057589 Ry

     iteration # 12     ecut=    30.00 Ry     beta= 0.50
     Davidson diagonalization with overlap
     ethr =  2.25E-07,  avg # of iterations =  2.0

     total cpu time spent up to now is        6.5 secs

     total energy              =    -501.70229041 Ry
     estimated scf accuracy    <       0.00014795 Ry

     iteration # 13     ecut=    30.00 Ry     beta= 0.50
     Davidson diagonalization with overlap
     ethr =  5.78E-08,  avg # of iterations =  2.0

     total cpu time spent up to now is        6.6 secs

     total energy              =    -501.70230106 Ry
     estimated scf accuracy    <       0.00010250 Ry

     iteration # 14     ecut=    30.00 Ry     beta= 0.50
     Davidson diagonalization with overlap
     ethr =  4.00E-08,  avg # of iterations =  2.0

     total cpu time spent up to now is        6.7 secs

     total energy              =    -501.70230918 Ry
     estimated scf accuracy    <       0.00002279 Ry

     iteration # 15     ecut=    30.00 Ry     beta= 0.50
     Davidson diagonalization with overlap
     ethr =  8.90E-09,  avg # of iterations =  2.0

     total cpu time spent up to now is        6.8 secs

     total energy              =    -501.70231038 Ry
     estimated scf accuracy    <       0.00000664 Ry

     iteration # 16     ecut=    30.00 Ry     beta= 0.50
     Davidson diagonalization with overlap
     ethr =  2.59E-09,  avg # of iterations =  3.0

     total cpu time spent up to now is        6.9 secs

     total energy              =    -501.70231154 Ry
     estimated scf accuracy    <       0.00000638 Ry

     iteration # 17     ecut=    30.00 Ry     beta= 0.50
     Davidson diagonalization with overlap
     ethr =  2.49E-09,  avg # of iterations =  1.0

     total cpu time spent up to now is        7.0 secs

     total energy              =    -501.70231182 Ry
     estimated scf accuracy    <       0.00000100 Ry

     iteration # 18     ecut=    30.00 Ry     beta= 0.50
     Davidson diagonalization with overlap
     ethr =  3.92E-10,  avg # of iterations =  3.0

     total cpu time spent up to now is        7.1 secs

     End of self-consistent calculation

          k = 0.0000 0.0000 0.0000 ( 11492 PWs)   bands (ev):

    -5.4388  -4.5657  -4.4271  -4.3452  -4.2928  -4.1555  -3.9388  -3.5412
    -3.4420  -3.4074  -3.4035  -3.2412  -3.0836  -3.0017  -2.9840  -2.9500
    -2.8529  -2.7582  -2.6075  -2.3217  -2.2096  -2.1835  -1.9992  -1.8747
    -1.7965  -1.6331  -1.4012  -1.0169  -0.9570  -0.8504  -0.7987  -0.6842
    -0.4114  -0.3624  -0.2175  -0.1807  -0.0996  -0.0440  -0.0018   0.1292
     0.1371   0.2751   0.3391   0.3804   0.4455   0.5752   0.6963   0.7293
     0.8246   0.9960   1.0609   1.1349   1.1800   1.2933   1.4265   1.5692
     1.7080   1.7498   1.8121   1.8659   2.0110   2.1702   2.2381   2.3328
     2.4744   2.4980   2.5233   2.6379   2.7290   2.7634   2.8199   2.9377
     2.9760   3.0938   3.1069   3.1879   3.2172   3.3030   3.3197   3.5217
     3.5815   4.0023   4.0393   4.1863   4.2175   4.3064   4.3577   4.4582
     4.5288   4.5645   4.6575   4.7269   4.8243   4.9304   4.9547   4.9981
     5.0705   5.1200   5.1807   5.2000   5.2580   5.3380   5.3443   5.4764
     5.5191   5.5447   5.6104   5.6841   5.7149   5.7760   5.8618   5.8879
     5.9227   5.9551   6.0037   6.1037   6.1675   6.2752   6.3069   6.3658
     6.5003   6.5684   6.6008   6.6929   6.7253   6.7898   6.8258   6.8469
     6.8891   6.9910   7.1141   7.1553   7.2221   7.3523   7.3885   7.4807
     7.5671   7.5776   7.6470   7.7361   7.7728   7.8873   7.9055   7.9263
     8.0595   8.1430   8.1966   8.2653   8.2821   8.3751   8.4189   8.4874
     8.5294   8.6051

     the Fermi energy is     6.9259 ev

!    total energy              =    -501.70231142 Ry
     estimated scf accuracy    <       0.00000067 Ry
     smearing contrib. (-TS)   =      -0.13895740 Ry
     internal energy E=F+TS    =    -501.56335402 Ry

     The total energy is F=E-TS. E is the sum of the following terms:
     one-electron contribution =     183.03783632 Ry
     hartree contribution      =      25.03980987 Ry
     xc contribution           =    -150.98529254 Ry
     ewald contribution        =    -558.65570767 Ry

     convergence has been achieved in  18 iterations

     Forces acting on atoms (cartesian axes, Ry/au):

     atom    1 type  1   force =     0.00144367   -0.01664654    0.00537634
     atom    2 type  1   force =     0.04617491    0.03727837   -0.00250146
     atom    3 type  1   force =    -0.02907218   -0.01456186    0.00587824
     atom    4 type  1   force =    -0.00082664    0.01556925    0.00733051
     atom    5 type  1   force =     0.01673257   -0.00756035    0.02138709
     atom    6 type  1   force =     0.03699892   -0.01356161    0.01183159
     atom    7 type  1   force =    -0.00340384    0.00297819   -0.03592594
     atom    8 type  1   force =     0.01249309    0.00367785    0.02104508
     atom    9 type  1   force =    -0.00230112   -0.01530799    0.00019390
     atom   10 type  1   force =     0.05766388   -0.00751054    0.02979623
     atom   11 type  1   force =    -0.00251848    0.01184509   -0.01833711
     atom   12 type  1   force =     0.01700186   -0.06422888    0.03221555
     atom   13 type  1   force =     0.00768461    0.01488378    0.00137510
     atom   14 type  1   force =    -0.00934458   -0.00953429   -0.03286683
     atom   15 type  1   force =    -0.02102467   -0.01929764    0.02787702
     atom   16 type  1   force =     0.01955707   -0.00753221    0.01083350
     atom   17 type  1   force =     0.00705634    0.01273497    0.00165981
     atom   18 type  1   force =     0.01142137   -0.01846054   -0.01981649
     atom   19 type  1   force =     0.01097919    0.01003636   -0.00949394
     atom   20 type  1   force =     0.00655202    0.00792414   -0.01492997
     atom   21 type  1   force =    -0.00572912   -0.02550808    0.01911374
     atom   22 type  1   force =     0.00645062   -0.06252804    0.05140789
     atom   23 type  1   force =    -0.03306525    0.00449654   -0.05134726
     atom   24 type  1   force =    -0.01620950   -0.01968036   -0.00094414
     atom   25 type  1   force =    -0.01508140   -0.00223649   -0.02265323
     atom   26 type  1   force =     0.01774053    0.05999440   -0.02213111
     atom   27 type  1   force =     0.05470075    0.01902573   -0.01642654
     atom   28 type  1   force =    -0.02458475    0.03663966    0.04398253
     atom   29 type  1   force =     0.01879753   -0.00710200    0.00218473
     atom   30 type  1   force =    -0.01154292    0.00659270    0.00367547
     atom   31 type  1   force =    -0.00856092    0.03282781    0.01243468
     atom   32 type  1   force =    -0.00967717    0.02314234   -0.01086908
     atom   33 type  1   force =     0.00793835   -0.01228138    0.02477749
     atom   34 type  1   force =    -0.01569791   -0.00227213    0.00773320
     atom   35 type  1   force =    -0.01710198   -0.03163327    0.00491080
     atom   36 type  1   force =     0.00768812   -0.00090253   -0.01762552
     atom   37 type  1   force =    -0.03270495   -0.04797498    0.04926879
     atom   38 type  1   force =    -0.01151577    0.01512056   -0.03241062
     atom   39 type  1   force =    -0.00631894   -0.00730519   -0.00828883
     atom   40 type  1   force =    -0.00889773   -0.00754367    0.02673228
     atom   41 type  1   force =    -0.00785670    0.00711594   -0.01289540
     atom   42 type  1   force =    -0.00094977    0.00257477    0.00504718
     atom   43 type  1   force =    -0.04860200   -0.01508206   -0.09089886
     atom   44 type  1   force =    -0.01417050   -0.03434633    0.01585094
     atom   45 type  1   force =     0.07238793    0.01671871   -0.00463191
     atom   46 type  1   force =    -0.10723181    0.07196753    0.04140988
     atom   47 type  1   force =     0.00479946   -0.00907032    0.00826547
     atom   48 type  1   force =     0.00518938    0.03669973   -0.07614775
     atom   49 type  1   force =     0.13824710   -0.03109142   -0.03552934
     atom   50 type  1   force =     0.00696778    0.00313341   -0.02104326
     atom   51 type  1   force =    -0.02992124    0.02744366   -0.00588293
     atom   52 type  1   force =    -0.00506180    0.02278286    0.02272994
     atom   53 type  1   force =    -0.00466332    0.02693591   -0.05698987
     atom   54 type  1   force =    -0.00680182    0.01317595   -0.02352195
     atom   55 type  1   force =    -0.01324684    0.00521476    0.00966488
     atom   56 type  1   force =    -0.03540835    0.01713627   -0.01664088
     atom   57 type  1   force =    -0.02472731   -0.02418991    0.02755681
     atom   58 type  1   force =    -0.05939373    0.01287759   -0.00332049
     atom   59 type  1   force =    -0.00665235   -0.01923672   -0.00440709
     atom   60 type  1   force =     0.02158410   -0.00822922    0.05676685
     atom   61 type  1   force =    -0.01339687    0.01978792    0.04353181
     atom   62 type  1   force =     0.03319827    0.01016648    0.00895302
     atom   63 type  1   force =    -0.00193228   -0.02436385   -0.00909394
     atom   64 type  1   force =     0.01774711   -0.02171881    0.01477337

     Total force =     0.393352     Total SCF correction =     0.001644


     Computing stress (Cartesian axis) and pressure

          total   stress  (Ry/bohr**3)                   (kbar)     P=      -25.23
  -0.00021477  -0.00008105   0.00001714          -31.59      -11.92        2.52
  -0.00008105  -0.00017475  -0.00003675          -11.92      -25.71       -5.41
   0.00001714  -0.00003675  -0.00012491            2.52       -5.41      -18.37

 
     init_run     :      1.10s CPU      4.97s WALL (       1 calls)
     electrons    :      1.91s CPU      2.07s WALL (       1 calls)
     forces       :      0.04s CPU      0.04s WALL (       1 calls)
     stress       :      0.15s CPU      0.16s WALL (       1 calls)

     Called by init_run:
     wfcinit      :      0.56s CPU      4.25s WALL (       1 calls)
                                        4.25s GPU  (       1 calls)
     potinit      :      0.05s CPU      0.15s WALL (       1 calls)
     hinit0       :      0.47s CPU      0.50s WALL (       1 calls)

     Called by electrons:
     c_bands      :      1.14s CPU      1.20s WALL (      19 calls)
     sum_band     :      0.37s CPU      0.42s WALL (      19 calls)
     v_of_rho     :      0.18s CPU      0.29s WALL (      19 calls)
     mix_rho      :      0.18s CPU      0.20s WALL (      19 calls)

     Called by c_bands:
     init_us_2    :      0.07s CPU      0.07s WALL (      39 calls)
     init_us_2:gp :      0.07s CPU      0.07s WALL (      39 calls)
     regterg      :      0.98s CPU      1.04s WALL (      19 calls)

     Called by *egterg:
     rdiaghg      :      0.41s CPU      1.16s WALL (      84 calls)
                                        1.14s GPU  (      84 calls)
     h_psi        :      0.95s CPU      3.92s WALL (      86 calls)
                                        3.92s GPU  (      86 calls)
     g_psi        :      0.00s CPU      0.00s WALL (      66 calls)
                                        0.00s GPU  (      66 calls)

     Called by h_psi:
     h_psi:calbec :      0.52s CPU      3.41s WALL (      86 calls)
                                        3.41s GPU  (      86 calls)
     vloc_psi     :      0.38s CPU      0.45s WALL (      86 calls)
                                        0.45s GPU  (      86 calls)
     add_vuspsi   :      0.03s CPU      0.05s WALL (      86 calls)
                                        0.05s GPU  (      86 calls)

     General routines
     calbec       :      0.53s CPU      3.42s WALL (      91 calls)
     fft          :      0.62s CPU      0.76s WALL (     159 calls)
                                        0.14s GPU  (     101 calls)
     ffts         :      0.05s CPU      0.05s WALL (      19 calls)
     fftw         :      0.45s CPU      0.60s WALL (    2005 calls)
                                        0.53s GPU  (    2005 calls)
 
     Parallel routines
 
     PWSCF        :      3.25s CPU      7.33s WALL

 
   This run was terminated on:  10:59:28  10May2023            

=------------------------------------------------------------------------------=
   JOB DONE.
=------------------------------------------------------------------------------=
