An instance of this daemon is already running

     Program PWSCF v.7.1 starts on 10May2023 at 10:55:17 

     This program is part of the open-source Quantum ESPRESSO suite
     for quantum simulation of materials; please cite
         "P. Giannozzi et al., J. Phys.:Condens. Matter 21 395502 (2009);
         "P. Giannozzi et al., J. Phys.:Condens. Matter 29 465901 (2017);
         "P. Giannozzi et al., J. Chem. Phys. 152 154105 (2020);
          URL http://www.quantum-espresso.org", 
     in publications or presentations arising from this work. More details at
     http://www.quantum-espresso.org/quote

     Parallel version (MPI & OpenMP), running on       4 processor cores
     Number of MPI processes:                 4
     Threads/MPI process:                     1

     MPI processes distributed on     1 nodes
     753556 MiB available memory on the printing compute node when the environment starts
 
     Reading input from pw-si-8.in
Warning: card &CELL ignored
Warning: card / ignored

     Current dimensions of program PWSCF are:
     Max number of different atomic species (ntypx) = 10
     Max number of k-points (npk) =  40000
     Max angular momentum in pseudopotentials (lmaxx) =  4

     IMPORTANT: XC functional enforced from input :
     Exchange-correlation= PBE
                           (   1   4   3   4   0   0   0)
     Any further DFT definition will be discarded
     Please, verify this is what you really want


     gamma-point specific algorithms are used
 
     K-points division:     npool     =       2
     R & G space division:  proc/nbgrp/npool/nimage =       2
     Subspace diagonalization in iterative solution of the eigenvalue problem:
     a serial algorithm will be used

     Message from routine divide_et_impera:
     suboptimal parallelization: some nodes have no k-points
 
     Parallelization info
     --------------------
     sticks:   dense  smooth     PW     G-vecs:    dense   smooth      PW
     Min        1916    1916    502                89532    89532   12150
     Max        1917    1917    503                89537    89537   12153
     Sum        3833    3833   1005               179069   179069   24303
 
     Using Slab Decomposition
 


     bravais-lattice index     =            0
     lattice parameter (alat)  =      20.0650  a.u.
     unit-cell volume          =    8078.2503 (a.u.)^3
     number of atoms/cell      =           64
     number of atomic types    =            1
     number of electrons       =       256.00
     number of Kohn-Sham states=          154
     kinetic-energy cutoff     =      30.0000  Ry
     charge density cutoff     =     120.0000  Ry
     scf convergence threshold =      1.0E-06
     mixing beta               =       0.5000
     number of iterations used =            8  plain     mixing
     Exchange-correlation= PBE
                           (   1   4   3   4   0   0   0)

     GPU acceleration is ACTIVE.
     GPU-aware MPI enabled

     Message from routine print_cuda_info:
     High GPU oversubscription detected. Are you sure this is what you want?

     celldm(1)=  20.064997  celldm(2)=   0.000000  celldm(3)=   0.000000
     celldm(4)=   0.000000  celldm(5)=   0.000000  celldm(6)=   0.000000

     crystal axes: (cart. coord. in units of alat)
               a(1) = (   1.000000   0.000000   0.000000 )  
               a(2) = (   0.000000   1.000000   0.000000 )  
               a(3) = (   0.000000   0.000000   1.000000 )  

     reciprocal axes: (cart. coord. in units 2 pi/alat)
               b(1) = (  1.000000  0.000000  0.000000 )  
               b(2) = (  0.000000  1.000000  0.000000 )  
               b(3) = (  0.000000  0.000000  1.000000 )  


     PseudoPot. # 1 for Si read from file:
     /home/ppiaggi/pseudos/Si_ONCV_PBE_sr.upf
     MD5 check sum: 8553c464762ac42b85b1eed164b4d029
     Pseudo is Norm-conserving, Zval =  4.0
     Generated using ONCVPSP code by D. R. Hamann
     Using radial grid of 1510 points,  4 beta functions with: 
                l(1) =   0
                l(2) =   0
                l(3) =   1
                l(4) =   1

     atomic species   valence    mass     pseudopotential
        Si             4.00    28.08500     Si( 1.00)

     No symmetry found



   Cartesian axes

     site n.     atom                  positions (alat units)
         1           Si  tau(   1) = (   0.7739550   0.3723130   0.3106520  )
         2           Si  tau(   2) = (   0.2489690   0.1525680   0.4136800  )
         3           Si  tau(   3) = (   0.7703060   0.8723150   0.4038370  )
         4           Si  tau(   4) = (   0.0842088   0.5775020   0.3143380  )
         5           Si  tau(   5) = (   0.1674530   0.7006170   0.6742450  )
         6           Si  tau(   6) = (   0.6063370   0.1952260   0.5130020  )
         7           Si  tau(   7) = (   0.8825610   0.9402350   0.0417011  )
         8           Si  tau(   8) = (   0.0393794   0.8963370   0.2049040  )
         9           Si  tau(   9) = (   0.6618610   0.4899120   0.7148200  )
        10           Si  tau(  10) = (   0.0979010   0.4272640   0.5914390  )
        11           Si  tau(  11) = (   0.2933060   0.8757870   0.6711880  )
        12           Si  tau(  12) = (   0.4758370   0.5874690   0.6462760  )
        13           Si  tau(  13) = (   0.0133492   0.2502580   0.7016460  )
        14           Si  tau(  14) = (   0.8946960   0.8036230   0.8530800  )
        15           Si  tau(  15) = (   0.3680890   0.1306900   0.6338890  )
        16           Si  tau(  16) = (   0.2430010   0.7868360   0.4010600  )
        17           Si  tau(  17) = (   0.0157688   0.8645360   0.4406300  )
        18           Si  tau(  18) = (   0.6371860   0.9427310   0.5722170  )
        19           Si  tau(  19) = (   0.8883330   0.9108950   0.6784460  )
        20           Si  tau(  20) = (   0.2799750   0.4924350   0.7395210  )
        21           Si  tau(  21) = (   0.5686800   0.4442120   0.0323547  )
        22           Si  tau(  22) = (   0.6404340   0.7261050   0.3038320  )
        23           Si  tau(  23) = (   0.6427350   0.6398270   0.0635142  )
        24           Si  tau(  24) = (   0.1876470   0.0977847   0.9996320  )
        25           Si  tau(  25) = (   0.7314440   0.2696690   0.9895500  )
        26           Si  tau(  26) = (   0.8583890   0.2163560   0.4929080  )
        27           Si  tau(  27) = (   0.9571300   0.1650660   0.9246960  )
        28           Si  tau(  28) = (   0.5460980   0.3842980   0.2495700  )
        29           Si  tau(  29) = (   0.8135900   0.0759145   0.3081950  )
        30           Si  tau(  30) = (   0.5464080   0.9169050   0.2029090  )
        31           Si  tau(  31) = (   0.0643097   0.0783414   0.5262480  )
        32           Si  tau(  32) = (   0.1911710   0.4003060   0.9145220  )
        33           Si  tau(  33) = (   0.1948560   0.8756870   0.9760320  )
        34           Si  tau(  34) = (   0.1462860   0.3516930   0.2095200  )
        35           Si  tau(  35) = (   0.8247930   0.4413990   0.5699490  )
        36           Si  tau(  36) = (   0.4714640   0.1006500   0.8917040  )
        37           Si  tau(  37) = (   0.2613390   0.2046790   0.8450770  )
        38           Si  tau(  38) = (   0.0964039   0.6850930   0.8842990  )
        39           Si  tau(  39) = (   0.9903240   0.5200570   0.0125858  )
        40           Si  tau(  40) = (   0.3976180   0.8786870   0.8573330  )
        41           Si  tau(  41) = (   0.4255430   0.3718540   0.5613550  )
        42           Si  tau(  42) = (   0.7750850   0.1193630   0.7216100  )
        43           Si  tau(  43) = (   0.0437303   0.1172600   0.2266590  )
        44           Si  tau(  44) = (   0.5626510   0.7875400   0.7426800  )
        45           Si  tau(  45) = (   0.3926670   0.5449020   0.3078950  )
        46           Si  tau(  46) = (   0.8364560   0.5957290   0.3455980  )
        47           Si  tau(  47) = (   0.1026340   0.9719590   0.7311810  )
        48           Si  tau(  48) = (   0.4453110   0.9494660   0.4766790  )
        49           Si  tau(  49) = (   0.3218480   0.1856730   0.1486310  )
        50           Si  tau(  50) = (   0.4875090   0.1668440   0.3097140  )
        51           Si  tau(  51) = (   0.9619010   0.6628460   0.5701160  )
        52           Si  tau(  52) = (   0.2549740   0.6511250   0.1421080  )
        53           Si  tau(  53) = (   0.3084070   0.9394950   0.2106830  )
        54           Si  tau(  54) = (   0.7410590   0.6369460   0.8766030  )
        55           Si  tau(  55) = (   0.9012680   0.4275440   0.8388510  )
        56           Si  tau(  56) = (   0.6871610   0.9691720   0.8859530  )
        57           Si  tau(  57) = (   0.2437890   0.4074060   0.4341370  )
        58           Si  tau(  58) = (   0.3560210   0.4365160   0.0615182  )
        59           Si  tau(  59) = (   0.6787530   0.0719653   0.1091170  )
        60           Si  tau(  60) = (   0.9172180   0.3184670   0.1427130  )
        61           Si  tau(  61) = (   0.6217590   0.2820120   0.7943870  )
        62           Si  tau(  62) = (   0.4709680   0.6759860   0.4352260  )
        63           Si  tau(  63) = (   0.4542120   0.7517930   0.0365972  )
        64           Si  tau(  64) = (   0.8677110   0.6747810   0.1328850  )

     number of k points=     1  Fermi-Dirac smearing, width (Ry)=  0.0100
                       cart. coord. in units 2pi/alat
        k(    1) = (   0.0000000   0.0000000   0.0000000), wk =   2.0000000

     Dense  grid:    89535 G-vectors     FFT dimensions: (  72,  72,  72)

     Estimated max dynamical RAM per process >     144.08 MB

     Estimated total dynamical RAM >     554.45 MB

     Initial potential from superposition of free atoms

     starting charge     255.9608, renormalised to     256.0000
     Starting wfcs are  256 randomized atomic wfcs

     total cpu time spent up to now is        5.0 secs

     Self-consistent Calculation

     iteration #  1     ecut=    30.00 Ry     beta= 0.50
     Davidson diagonalization with overlap
     ethr =  1.00E-02,  avg # of iterations =  3.0

     Threshold (ethr) on eigenvalues was too large:
     Diagonalizing with lowered threshold

     Davidson diagonalization with overlap
     ethr =  4.50E-04,  avg # of iterations =  4.0

     total cpu time spent up to now is        5.3 secs

     total energy              =    -501.14747159 Ry
     estimated scf accuracy    <       1.37905410 Ry

     iteration #  2     ecut=    30.00 Ry     beta= 0.50
     Davidson diagonalization with overlap
     ethr =  5.39E-04,  avg # of iterations =  4.0

     total cpu time spent up to now is        5.4 secs

     total energy              =    -500.64338755 Ry
     estimated scf accuracy    <       5.98990174 Ry

     iteration #  3     ecut=    30.00 Ry     beta= 0.50
     Davidson diagonalization with overlap
     ethr =  5.39E-04,  avg # of iterations =  4.0

     total cpu time spent up to now is        5.5 secs

     total energy              =    -501.23356931 Ry
     estimated scf accuracy    <       2.17755986 Ry

     iteration #  4     ecut=    30.00 Ry     beta= 0.50
     Davidson diagonalization with overlap
     ethr =  5.39E-04,  avg # of iterations =  2.0

     total cpu time spent up to now is        5.6 secs

     total energy              =    -501.39780862 Ry
     estimated scf accuracy    <       0.58254341 Ry

     iteration #  5     ecut=    30.00 Ry     beta= 0.50
     Davidson diagonalization with overlap
     ethr =  2.28E-04,  avg # of iterations =  2.0

     total cpu time spent up to now is        5.7 secs

     total energy              =    -501.43710384 Ry
     estimated scf accuracy    <       0.19953795 Ry

     iteration #  6     ecut=    30.00 Ry     beta= 0.50
     Davidson diagonalization with overlap
     ethr =  7.79E-05,  avg # of iterations =  2.0

     total cpu time spent up to now is        5.8 secs

     total energy              =    -501.45845117 Ry
     estimated scf accuracy    <       0.15388026 Ry

     iteration #  7     ecut=    30.00 Ry     beta= 0.50
     Davidson diagonalization with overlap
     ethr =  6.01E-05,  avg # of iterations =  1.0

     total cpu time spent up to now is        5.9 secs

     total energy              =    -501.47182438 Ry
     estimated scf accuracy    <       0.00569571 Ry

     iteration #  8     ecut=    30.00 Ry     beta= 0.50
     Davidson diagonalization with overlap
     ethr =  2.22E-06,  avg # of iterations = 20.0

     total cpu time spent up to now is        6.1 secs

     total energy              =    -501.47250182 Ry
     estimated scf accuracy    <       0.01211645 Ry

     iteration #  9     ecut=    30.00 Ry     beta= 0.50
     Davidson diagonalization with overlap
     ethr =  2.22E-06,  avg # of iterations =  3.0

     total cpu time spent up to now is        6.2 secs

     total energy              =    -501.47353388 Ry
     estimated scf accuracy    <       0.00513563 Ry

     iteration # 10     ecut=    30.00 Ry     beta= 0.50
     Davidson diagonalization with overlap
     ethr =  2.01E-06,  avg # of iterations =  2.0

     total cpu time spent up to now is        6.3 secs

     total energy              =    -501.47385906 Ry
     estimated scf accuracy    <       0.00071156 Ry

     iteration # 11     ecut=    30.00 Ry     beta= 0.50
     Davidson diagonalization with overlap
     ethr =  2.78E-07,  avg # of iterations =  2.0

     total cpu time spent up to now is        6.4 secs

     total energy              =    -501.47392596 Ry
     estimated scf accuracy    <       0.00016936 Ry

     iteration # 12     ecut=    30.00 Ry     beta= 0.50
     Davidson diagonalization with overlap
     ethr =  6.62E-08,  avg # of iterations =  5.0

     total cpu time spent up to now is        6.5 secs

     total energy              =    -501.47392106 Ry
     estimated scf accuracy    <       0.00083543 Ry

     iteration # 13     ecut=    30.00 Ry     beta= 0.50
     Davidson diagonalization with overlap
     ethr =  6.62E-08,  avg # of iterations =  3.0

     total cpu time spent up to now is        6.6 secs

     total energy              =    -501.47397394 Ry
     estimated scf accuracy    <       0.00006306 Ry

     iteration # 14     ecut=    30.00 Ry     beta= 0.50
     Davidson diagonalization with overlap
     ethr =  2.46E-08,  avg # of iterations =  2.0

     total cpu time spent up to now is        6.7 secs

     total energy              =    -501.47397854 Ry
     estimated scf accuracy    <       0.00002060 Ry

     iteration # 15     ecut=    30.00 Ry     beta= 0.50
     Davidson diagonalization with overlap
     ethr =  8.05E-09,  avg # of iterations =  3.0

     total cpu time spent up to now is        6.8 secs

     total energy              =    -501.47397936 Ry
     estimated scf accuracy    <       0.00000851 Ry

     iteration # 16     ecut=    30.00 Ry     beta= 0.50
     Davidson diagonalization with overlap
     ethr =  3.32E-09,  avg # of iterations =  6.0

     total cpu time spent up to now is        6.9 secs

     total energy              =    -501.47397917 Ry
     estimated scf accuracy    <       0.00002718 Ry

     iteration # 17     ecut=    30.00 Ry     beta= 0.50
     Davidson diagonalization with overlap
     ethr =  3.32E-09,  avg # of iterations =  3.0

     total cpu time spent up to now is        7.0 secs

     total energy              =    -501.47398091 Ry
     estimated scf accuracy    <       0.00000306 Ry

     iteration # 18     ecut=    30.00 Ry     beta= 0.50
     Davidson diagonalization with overlap
     ethr =  1.20E-09,  avg # of iterations =  3.0

     total cpu time spent up to now is        7.1 secs

     total energy              =    -501.47398114 Ry
     estimated scf accuracy    <       0.00000184 Ry

     iteration # 19     ecut=    30.00 Ry     beta= 0.50
     Davidson diagonalization with overlap
     ethr =  7.19E-10,  avg # of iterations =  1.0

     total cpu time spent up to now is        7.2 secs

     End of self-consistent calculation

          k = 0.0000 0.0000 0.0000 ( 11168 PWs)   bands (ev):

    -5.3057  -4.3404  -4.2519  -4.1654  -4.1065  -4.0706  -3.8895  -3.3376
    -3.2786  -3.1754  -3.1045  -3.0717  -2.8832  -2.8523  -2.8047  -2.7537
    -2.6880  -2.6090  -2.4353  -2.0804  -2.0204  -1.8686  -1.7627  -1.7053
    -1.6220  -1.4350  -1.2600  -0.8866  -0.7558  -0.5997  -0.4942  -0.4067
    -0.2862  -0.0941  -0.0170   0.1060   0.2128   0.2230   0.3239   0.3577
     0.4846   0.5050   0.6229   0.7169   0.7915   0.8651   0.9446   1.0336
     1.0394   1.1105   1.2109   1.3394   1.4232   1.4338   1.5230   1.7885
     1.8335   1.9182   2.0282   2.1688   2.2499   2.3099   2.4432   2.4657
     2.5348   2.5535   2.7496   2.8373   2.8885   2.9325   3.0093   3.0250
     3.0702   3.1950   3.3131   3.4162   3.5107   3.5434   3.5812   3.7666
     3.8789   4.2807   4.3370   4.4336   4.4791   4.5325   4.6701   4.7216
     4.8631   4.8890   4.9662   5.0142   5.0301   5.1162   5.1870   5.2739
     5.3614   5.3887   5.4187   5.4605   5.4905   5.5870   5.6938   5.7613
     5.8872   5.8988   5.9524   5.9780   5.9940   6.0889   6.1688   6.2203
     6.2686   6.3465   6.3930   6.4449   6.4952   6.5763   6.6549   6.6816
     6.7487   6.7882   6.8245   6.9528   6.9637   7.1027   7.1500   7.1994
     7.2221   7.3078   7.3856   7.4125   7.4747   7.5552   7.6313   7.6972
     7.7744   7.8067   7.9127   7.9746   8.0284   8.0604   8.1556   8.1614
     8.2214   8.3219   8.3307   8.4095   8.4384   8.5102   8.6064   8.6369
     8.8099   8.8423

     the Fermi energy is     7.2181 ev

!    total energy              =    -501.47398116 Ry
     estimated scf accuracy    <       0.00000015 Ry
     smearing contrib. (-TS)   =      -0.14392636 Ry
     internal energy E=F+TS    =    -501.33005479 Ry

     The total energy is F=E-TS. E is the sum of the following terms:
     one-electron contribution =     191.47159615 Ry
     hartree contribution      =      23.22082745 Ry
     xc contribution           =    -151.22394404 Ry
     ewald contribution        =    -564.79853435 Ry

     convergence has been achieved in  19 iterations

     Forces acting on atoms (cartesian axes, Ry/au):

     atom    1 type  1   force =    -0.00038588    0.01037278    0.02010031
     atom    2 type  1   force =     0.00504358    0.02793925   -0.00451319
     atom    3 type  1   force =     0.02863117    0.03419852    0.03255581
     atom    4 type  1   force =     0.00821634   -0.00340704    0.01054874
     atom    5 type  1   force =     0.00376727   -0.04540601   -0.01397537
     atom    6 type  1   force =     0.00859416   -0.00728702    0.01911718
     atom    7 type  1   force =    -0.01542372    0.00378923   -0.01156434
     atom    8 type  1   force =     0.00778060   -0.00976659   -0.00597418
     atom    9 type  1   force =     0.02313906   -0.01018645    0.01898209
     atom   10 type  1   force =    -0.02064311    0.03467484    0.02203575
     atom   11 type  1   force =     0.00240112    0.02233472   -0.06071148
     atom   12 type  1   force =    -0.01339475    0.02286990    0.00722950
     atom   13 type  1   force =    -0.02274526   -0.00417195    0.04071374
     atom   14 type  1   force =    -0.00178260   -0.05701731    0.07212053
     atom   15 type  1   force =     0.01276637    0.01037536    0.00604281
     atom   16 type  1   force =     0.01787643   -0.00169393   -0.01183889
     atom   17 type  1   force =    -0.01717997   -0.00248230   -0.01089390
     atom   18 type  1   force =     0.04652666    0.00305819    0.03184363
     atom   19 type  1   force =    -0.01496595    0.04248654   -0.06633917
     atom   20 type  1   force =    -0.00444694    0.03760158   -0.05129502
     atom   21 type  1   force =     0.02391758   -0.05633063   -0.00316375
     atom   22 type  1   force =     0.00360555    0.00946533   -0.02382254
     atom   23 type  1   force =     0.01104825    0.02954100    0.05535072
     atom   24 type  1   force =    -0.09528274   -0.07884123    0.04987498
     atom   25 type  1   force =     0.01662370    0.01870500    0.00767284
     atom   26 type  1   force =    -0.02809159    0.01478521    0.00428573
     atom   27 type  1   force =     0.00423943   -0.00721081    0.00397838
     atom   28 type  1   force =     0.01082624   -0.01973869    0.01680047
     atom   29 type  1   force =     0.01294900    0.00751180   -0.01452585
     atom   30 type  1   force =    -0.03350386   -0.01857676   -0.01151752
     atom   31 type  1   force =    -0.00553011   -0.01983634   -0.00534371
     atom   32 type  1   force =    -0.00385252   -0.00050854    0.01601951
     atom   33 type  1   force =    -0.00909361    0.00999393    0.02718125
     atom   34 type  1   force =     0.00802407   -0.01587109    0.01977441
     atom   35 type  1   force =     0.02826567   -0.00179449   -0.01397228
     atom   36 type  1   force =     0.01121519   -0.01243522   -0.02944263
     atom   37 type  1   force =     0.04205144    0.03479883   -0.09342705
     atom   38 type  1   force =    -0.02048517    0.03323941    0.01851187
     atom   39 type  1   force =     0.02870136   -0.00035195    0.01199203
     atom   40 type  1   force =     0.03073716    0.02678168    0.05439251
     atom   41 type  1   force =     0.00633143   -0.03822206    0.01116728
     atom   42 type  1   force =     0.00169449   -0.02243452   -0.01065262
     atom   43 type  1   force =    -0.00938060    0.02721880    0.00364673
     atom   44 type  1   force =     0.04343567   -0.00196335   -0.00091032
     atom   45 type  1   force =    -0.06885909   -0.09597996   -0.06832277
     atom   46 type  1   force =     0.02563776   -0.01547517    0.01106995
     atom   47 type  1   force =    -0.01297891    0.03989044    0.01577378
     atom   48 type  1   force =    -0.06474915    0.00503815   -0.01468658
     atom   49 type  1   force =     0.01146373    0.03694100    0.02056836
     atom   50 type  1   force =    -0.00282150    0.00784687   -0.00757294
     atom   51 type  1   force =    -0.00047700    0.00353405   -0.03181924
     atom   52 type  1   force =     0.05051191   -0.01248872    0.00634646
     atom   53 type  1   force =    -0.00119578   -0.03379459    0.01199871
     atom   54 type  1   force =     0.01457053    0.00511555   -0.07055638
     atom   55 type  1   force =    -0.03271825   -0.04060474   -0.03219235
     atom   56 type  1   force =    -0.00760463    0.00881406   -0.00276368
     atom   57 type  1   force =     0.01251639   -0.02330249   -0.07190842
     atom   58 type  1   force =    -0.03836199   -0.00610331    0.02463320
     atom   59 type  1   force =     0.01538256   -0.01076329   -0.01112904
     atom   60 type  1   force =    -0.00027346   -0.00948258   -0.02307132
     atom   61 type  1   force =     0.00806971   -0.02573166   -0.00615609
     atom   62 type  1   force =    -0.00116593    0.09431508    0.08584111
     atom   63 type  1   force =    -0.03340415    0.02431483    0.02210439
     atom   64 type  1   force =    -0.00576334    0.02170885    0.00378787

     Total force =     0.414922     Total SCF correction =     0.000701


     Computing stress (Cartesian axis) and pressure

          total   stress  (Ry/bohr**3)                   (kbar)     P=      -21.06
  -0.00011917   0.00008356   0.00005473          -17.53       12.29        8.05
   0.00008356  -0.00023011   0.00001352           12.29      -33.85        1.99
   0.00005473   0.00001352  -0.00008020            8.05        1.99      -11.80

 
     init_run     :      1.09s CPU      4.93s WALL (       1 calls)
     electrons    :      2.04s CPU      2.21s WALL (       1 calls)
     forces       :      0.03s CPU      0.04s WALL (       1 calls)
     stress       :      0.15s CPU      0.15s WALL (       1 calls)

     Called by init_run:
     wfcinit      :      0.54s CPU      4.21s WALL (       1 calls)
                                        4.21s GPU  (       1 calls)
     potinit      :      0.06s CPU      0.15s WALL (       1 calls)
     hinit0       :      0.47s CPU      0.50s WALL (       1 calls)

     Called by electrons:
     c_bands      :      1.22s CPU      1.31s WALL (      20 calls)
     sum_band     :      0.39s CPU      0.44s WALL (      20 calls)
     v_of_rho     :      0.20s CPU      0.29s WALL (      20 calls)
     mix_rho      :      0.19s CPU      0.20s WALL (      20 calls)

     Called by c_bands:
     init_us_2    :      0.07s CPU      0.08s WALL (      41 calls)
     init_us_2:gp :      0.07s CPU      0.08s WALL (      41 calls)
     regterg      :      1.05s CPU      1.13s WALL (      20 calls)

     Called by *egterg:
     rdiaghg      :      0.44s CPU      1.19s WALL (      94 calls)
                                        1.17s GPU  (      94 calls)
     h_psi        :      0.97s CPU      3.94s WALL (      96 calls)
                                        3.94s GPU  (      96 calls)
     g_psi        :      0.00s CPU      0.00s WALL (      75 calls)
                                        0.00s GPU  (      75 calls)

     Called by h_psi:
     h_psi:calbec :      0.50s CPU      3.39s WALL (      96 calls)
                                        3.39s GPU  (      96 calls)
     vloc_psi     :      0.41s CPU      0.49s WALL (      96 calls)
                                        0.48s GPU  (      96 calls)
     add_vuspsi   :      0.04s CPU      0.05s WALL (      96 calls)
                                        0.05s GPU  (      96 calls)

     General routines
     calbec       :      0.51s CPU      3.39s WALL (     101 calls)
     fft          :      0.64s CPU      0.77s WALL (     167 calls)
                                        0.14s GPU  (     106 calls)
     ffts         :      0.05s CPU      0.05s WALL (      20 calls)
     fftw         :      0.49s CPU      0.65s WALL (    2128 calls)
                                        0.57s GPU  (    2128 calls)
 
     Parallel routines
 
     PWSCF        :      3.35s CPU      7.42s WALL

 
   This run was terminated on:  10:55:25  10May2023            

=------------------------------------------------------------------------------=
   JOB DONE.
=------------------------------------------------------------------------------=
