An instance of this daemon is already running
An instance of this daemon is already running

     Program PWSCF v.7.1 starts on 10May2023 at 11: 3:33 

     This program is part of the open-source Quantum ESPRESSO suite
     for quantum simulation of materials; please cite
         "P. Giannozzi et al., J. Phys.:Condens. Matter 21 395502 (2009);
         "P. Giannozzi et al., J. Phys.:Condens. Matter 29 465901 (2017);
         "P. Giannozzi et al., J. Chem. Phys. 152 154105 (2020);
          URL http://www.quantum-espresso.org", 
     in publications or presentations arising from this work. More details at
     http://www.quantum-espresso.org/quote

     Parallel version (MPI & OpenMP), running on       4 processor cores
     Number of MPI processes:                 4
     Threads/MPI process:                     1

     MPI processes distributed on     1 nodes
     753563 MiB available memory on the printing compute node when the environment starts
 
     Reading input from pw-si-59.in
Warning: card &CELL ignored
Warning: card / ignored

     Current dimensions of program PWSCF are:
     Max number of different atomic species (ntypx) = 10
     Max number of k-points (npk) =  40000
     Max angular momentum in pseudopotentials (lmaxx) =  4

     IMPORTANT: XC functional enforced from input :
     Exchange-correlation= PBE
                           (   1   4   3   4   0   0   0)
     Any further DFT definition will be discarded
     Please, verify this is what you really want


     gamma-point specific algorithms are used
 
     K-points division:     npool     =       2
     R & G space division:  proc/nbgrp/npool/nimage =       2
     Subspace diagonalization in iterative solution of the eigenvalue problem:
     a serial algorithm will be used

     Message from routine divide_et_impera:
     suboptimal parallelization: some nodes have no k-points
 
     Parallelization info
     --------------------
     sticks:   dense  smooth     PW     G-vecs:    dense   smooth      PW
     Min        1941    1941    516                91047    91047   12416
     Max        1944    1944    517                91052    91052   12421
     Sum        3885    3885   1033               182099   182099   24837
 
     Using Slab Decomposition
 


     bravais-lattice index     =            0
     lattice parameter (alat)  =      20.1657  a.u.
     unit-cell volume          =    8200.4601 (a.u.)^3
     number of atoms/cell      =           64
     number of atomic types    =            1
     number of electrons       =       256.00
     number of Kohn-Sham states=          154
     kinetic-energy cutoff     =      30.0000  Ry
     charge density cutoff     =     120.0000  Ry
     scf convergence threshold =      1.0E-06
     mixing beta               =       0.5000
     number of iterations used =            8  plain     mixing
     Exchange-correlation= PBE
                           (   1   4   3   4   0   0   0)

     GPU acceleration is ACTIVE.
     GPU-aware MPI enabled

     Message from routine print_cuda_info:
     High GPU oversubscription detected. Are you sure this is what you want?

     celldm(1)=  20.165674  celldm(2)=   0.000000  celldm(3)=   0.000000
     celldm(4)=   0.000000  celldm(5)=   0.000000  celldm(6)=   0.000000

     crystal axes: (cart. coord. in units of alat)
               a(1) = (   1.000000   0.000000   0.000000 )  
               a(2) = (   0.000000   1.000000   0.000000 )  
               a(3) = (   0.000000   0.000000   1.000000 )  

     reciprocal axes: (cart. coord. in units 2 pi/alat)
               b(1) = (  1.000000  0.000000  0.000000 )  
               b(2) = (  0.000000  1.000000  0.000000 )  
               b(3) = (  0.000000  0.000000  1.000000 )  


     PseudoPot. # 1 for Si read from file:
     /home/ppiaggi/pseudos/Si_ONCV_PBE_sr.upf
     MD5 check sum: 8553c464762ac42b85b1eed164b4d029
     Pseudo is Norm-conserving, Zval =  4.0
     Generated using ONCVPSP code by D. R. Hamann
     Using radial grid of 1510 points,  4 beta functions with: 
                l(1) =   0
                l(2) =   0
                l(3) =   1
                l(4) =   1

     atomic species   valence    mass     pseudopotential
        Si             4.00    28.08500     Si( 1.00)

     No symmetry found



   Cartesian axes

     site n.     atom                  positions (alat units)
         1           Si  tau(   1) = (   0.9566490   0.3711340   0.2422980  )
         2           Si  tau(   2) = (   0.0985237   0.4829080   0.0462785  )
         3           Si  tau(   3) = (   0.3461540   0.9599180   0.1087690  )
         4           Si  tau(   4) = (   0.1607550   0.2777370   0.9448610  )
         5           Si  tau(   5) = (   0.4191990   0.3464870   0.1795810  )
         6           Si  tau(   6) = (   0.4331740   0.8217140   0.9209380  )
         7           Si  tau(   7) = (   0.6542280   0.3853890   0.2021700  )
         8           Si  tau(   8) = (   0.1514720   0.1661830   0.5536600  )
         9           Si  tau(   9) = (   0.0076403   0.3363820   0.5157140  )
        10           Si  tau(  10) = (   0.9834990   0.0252107   0.6378680  )
        11           Si  tau(  11) = (   0.8002790   0.3427930   0.0446030  )
        12           Si  tau(  12) = (   0.6292490   0.5632580   0.6777310  )
        13           Si  tau(  13) = (   0.9753660   0.6596390   0.6305050  )
        14           Si  tau(  14) = (   0.8643410   0.5084340   0.4810650  )
        15           Si  tau(  15) = (   0.9897660   0.1240240   0.8617760  )
        16           Si  tau(  16) = (   0.2541320   0.0955231   0.3382390  )
        17           Si  tau(  17) = (   0.4734440   0.7866990   0.6867130  )
        18           Si  tau(  18) = (   0.3027330   0.5440360   0.1574290  )
        19           Si  tau(  19) = (   0.1844650   0.6485120   0.8940580  )
        20           Si  tau(  20) = (   0.1607820   0.7512040   0.5683340  )
        21           Si  tau(  21) = (   0.4099640   0.2566700   0.3876100  )
        22           Si  tau(  22) = (   0.6001320   0.0166587   0.8312020  )
        23           Si  tau(  23) = (   0.6259920   0.0004226   0.4593120  )
        24           Si  tau(  24) = (   0.2277040   0.0108268   0.8744150  )
        25           Si  tau(  25) = (   0.7047030   0.3033580   0.5433870  )
        26           Si  tau(  26) = (   0.1028140   0.8666320   0.7646940  )
        27           Si  tau(  27) = (   0.9366210   0.6283560   0.0406155  )
        28           Si  tau(  28) = (   0.3843920   0.6300990   0.3290520  )
        29           Si  tau(  29) = (   0.6172510   0.4961870   0.4179970  )
        30           Si  tau(  30) = (   0.0696736   0.7751450   0.3293450  )
        31           Si  tau(  31) = (   0.8047610   0.1037300   0.0220121  )
        32           Si  tau(  32) = (   0.7604550   0.0617141   0.6219010  )
        33           Si  tau(  33) = (   0.4643700   0.3196470   0.5867760  )
        34           Si  tau(  34) = (   0.6085470   0.5514550   0.0611631  )
        35           Si  tau(  35) = (   0.5236480   0.2351270   0.8505870  )
        36           Si  tau(  36) = (   0.2658640   0.4452080   0.5429950  )
        37           Si  tau(  37) = (   0.6259070   0.1739080   0.3128280  )
        38           Si  tau(  38) = (   0.7370810   0.6678990   0.9195980  )
        39           Si  tau(  39) = (   0.0055019   0.4929380   0.7785490  )
        40           Si  tau(  40) = (   0.1183770   0.8861590   0.1433510  )
        41           Si  tau(  41) = (   0.9480450   0.0603759   0.1903850  )
        42           Si  tau(  42) = (   0.3564550   0.1285380   0.6753630  )
        43           Si  tau(  43) = (   0.7686480   0.8145970   0.4292050  )
        44           Si  tau(  44) = (   0.8091480   0.8998230   0.8201740  )
        45           Si  tau(  45) = (   0.1200190   0.1935880   0.1873080  )
        46           Si  tau(  46) = (   0.1237620   0.5230620   0.3279940  )
        47           Si  tau(  47) = (   0.4311780   0.6196270   0.9771740  )
        48           Si  tau(  48) = (   0.7627290   0.7381060   0.6305170  )
        49           Si  tau(  49) = (   0.5121200   0.9148430   0.2654390  )
        50           Si  tau(  50) = (   0.5823660   0.1060020   0.0911110  )
        51           Si  tau(  51) = (   0.8705350   0.6392670   0.2631230  )
        52           Si  tau(  52) = (   0.8771790   0.1866940   0.3979220  )
        53           Si  tau(  53) = (   0.8857360   0.3050890   0.7270570  )
        54           Si  tau(  54) = (   0.3561780   0.6303630   0.5567930  )
        55           Si  tau(  55) = (   0.9606490   0.9526780   0.4022130  )
        56           Si  tau(  56) = (   0.6382870   0.8486660   0.0211020  )
        57           Si  tau(  57) = (   0.1810550   0.3660620   0.7344070  )
        58           Si  tau(  58) = (   0.0004305   0.8340050   0.9685620  )
        59           Si  tau(  59) = (   0.6981100   0.3756630   0.8331230  )
        60           Si  tau(  60) = (   0.4478170   0.9550740   0.5547480  )
        61           Si  tau(  61) = (   0.3562020   0.1941240   0.0281439  )
        62           Si  tau(  62) = (   0.6003480   0.7039880   0.2389810  )
        63           Si  tau(  63) = (   0.2873570   0.8776110   0.3999200  )
        64           Si  tau(  64) = (   0.4182640   0.4717460   0.7871480  )

     number of k points=     1  Fermi-Dirac smearing, width (Ry)=  0.0100
                       cart. coord. in units 2pi/alat
        k(    1) = (   0.0000000   0.0000000   0.0000000), wk =   2.0000000

     Dense  grid:    91050 G-vectors     FFT dimensions: (  72,  72,  72)

     Estimated max dynamical RAM per process >     146.04 MB

     Estimated total dynamical RAM >     561.91 MB

     Initial potential from superposition of free atoms

     starting charge     255.9608, renormalised to     256.0000
     Starting wfcs are  256 randomized atomic wfcs

     total cpu time spent up to now is        5.0 secs

     Self-consistent Calculation

     iteration #  1     ecut=    30.00 Ry     beta= 0.50
     Davidson diagonalization with overlap
     ethr =  1.00E-02,  avg # of iterations =  3.0

     Threshold (ethr) on eigenvalues was too large:
     Diagonalizing with lowered threshold

     Davidson diagonalization with overlap
     ethr =  3.86E-04,  avg # of iterations =  4.0

     total cpu time spent up to now is        5.3 secs

     total energy              =    -501.37718045 Ry
     estimated scf accuracy    <       1.17323265 Ry

     iteration #  2     ecut=    30.00 Ry     beta= 0.50
     Davidson diagonalization with overlap
     ethr =  4.58E-04,  avg # of iterations =  3.0

     total cpu time spent up to now is        5.4 secs

     total energy              =    -501.23434089 Ry
     estimated scf accuracy    <       1.61832113 Ry

     iteration #  3     ecut=    30.00 Ry     beta= 0.50
     Davidson diagonalization with overlap
     ethr =  4.58E-04,  avg # of iterations =  3.0

     total cpu time spent up to now is        5.5 secs

     total energy              =    -501.31402962 Ry
     estimated scf accuracy    <       2.54542156 Ry

     iteration #  4     ecut=    30.00 Ry     beta= 0.50
     Davidson diagonalization with overlap
     ethr =  4.58E-04,  avg # of iterations =  2.0

     total cpu time spent up to now is        5.6 secs

     total energy              =    -501.50161379 Ry
     estimated scf accuracy    <       0.73026195 Ry

     iteration #  5     ecut=    30.00 Ry     beta= 0.50
     Davidson diagonalization with overlap
     ethr =  2.85E-04,  avg # of iterations =  2.0

     total cpu time spent up to now is        5.7 secs

     total energy              =    -501.55865487 Ry
     estimated scf accuracy    <       0.11039859 Ry

     iteration #  6     ecut=    30.00 Ry     beta= 0.50
     Davidson diagonalization with overlap
     ethr =  4.31E-05,  avg # of iterations =  4.0

     total cpu time spent up to now is        5.8 secs

     total energy              =    -501.56535064 Ry
     estimated scf accuracy    <       0.23288176 Ry

     iteration #  7     ecut=    30.00 Ry     beta= 0.50
     Davidson diagonalization with overlap
     ethr =  4.31E-05,  avg # of iterations =  2.0

     total cpu time spent up to now is        5.9 secs

     total energy              =    -501.58319277 Ry
     estimated scf accuracy    <       0.01349199 Ry

     iteration #  8     ecut=    30.00 Ry     beta= 0.50
     Davidson diagonalization with overlap
     ethr =  5.27E-06,  avg # of iterations =  8.0

     total cpu time spent up to now is        6.1 secs

     total energy              =    -501.58501923 Ry
     estimated scf accuracy    <       0.00660175 Ry

     iteration #  9     ecut=    30.00 Ry     beta= 0.50
     Davidson diagonalization with overlap
     ethr =  2.58E-06,  avg # of iterations =  3.0

     total cpu time spent up to now is        6.2 secs

     total energy              =    -501.58552316 Ry
     estimated scf accuracy    <       0.00588356 Ry

     iteration # 10     ecut=    30.00 Ry     beta= 0.50
     Davidson diagonalization with overlap
     ethr =  2.30E-06,  avg # of iterations =  2.0

     total cpu time spent up to now is        6.3 secs

     total energy              =    -501.58598328 Ry
     estimated scf accuracy    <       0.00080601 Ry

     iteration # 11     ecut=    30.00 Ry     beta= 0.50
     Davidson diagonalization with overlap
     ethr =  3.15E-07,  avg # of iterations =  2.0

     total cpu time spent up to now is        6.4 secs

     total energy              =    -501.58607204 Ry
     estimated scf accuracy    <       0.00024987 Ry

     iteration # 12     ecut=    30.00 Ry     beta= 0.50
     Davidson diagonalization with overlap
     ethr =  9.76E-08,  avg # of iterations =  4.0

     total cpu time spent up to now is        6.5 secs

     total energy              =    -501.58608371 Ry
     estimated scf accuracy    <       0.00039728 Ry

     iteration # 13     ecut=    30.00 Ry     beta= 0.50
     Davidson diagonalization with overlap
     ethr =  9.76E-08,  avg # of iterations =  2.0

     total cpu time spent up to now is        6.6 secs

     total energy              =    -501.58610949 Ry
     estimated scf accuracy    <       0.00008922 Ry

     iteration # 14     ecut=    30.00 Ry     beta= 0.50
     Davidson diagonalization with overlap
     ethr =  3.49E-08,  avg # of iterations =  2.0

     total cpu time spent up to now is        6.7 secs

     total energy              =    -501.58611725 Ry
     estimated scf accuracy    <       0.00007190 Ry

     iteration # 15     ecut=    30.00 Ry     beta= 0.50
     Davidson diagonalization with overlap
     ethr =  2.81E-08,  avg # of iterations =  1.0

     total cpu time spent up to now is        6.8 secs

     total energy              =    -501.58612181 Ry
     estimated scf accuracy    <       0.00000765 Ry

     iteration # 16     ecut=    30.00 Ry     beta= 0.50
     Davidson diagonalization with overlap
     ethr =  2.99E-09,  avg # of iterations =  4.0

     total cpu time spent up to now is        6.9 secs

     total energy              =    -501.58612315 Ry
     estimated scf accuracy    <       0.00000447 Ry

     iteration # 17     ecut=    30.00 Ry     beta= 0.50
     Davidson diagonalization with overlap
     ethr =  1.75E-09,  avg # of iterations =  2.0

     total cpu time spent up to now is        7.0 secs

     total energy              =    -501.58612342 Ry
     estimated scf accuracy    <       0.00000214 Ry

     iteration # 18     ecut=    30.00 Ry     beta= 0.50
     Davidson diagonalization with overlap
     ethr =  8.34E-10,  avg # of iterations =  2.0

     total cpu time spent up to now is        7.1 secs

     total energy              =    -501.58612358 Ry
     estimated scf accuracy    <       0.00000135 Ry

     iteration # 19     ecut=    30.00 Ry     beta= 0.50
     Davidson diagonalization with overlap
     ethr =  5.28E-10,  avg # of iterations =  2.0

     total cpu time spent up to now is        7.1 secs

     End of self-consistent calculation

          k = 0.0000 0.0000 0.0000 ( 11444 PWs)   bands (ev):

    -5.3489  -4.4801  -4.2798  -4.2540  -4.1225  -4.0581  -4.0026  -3.4122
    -3.3694  -3.2928  -3.2195  -3.0909  -3.0098  -2.9914  -2.8376  -2.7661
    -2.7405  -2.6537  -2.5434  -2.1474  -2.1178  -2.0127  -1.9104  -1.8055
    -1.5800  -1.4852  -1.3625  -1.0932  -0.8823  -0.7380  -0.6413  -0.5678
    -0.3390  -0.2497  -0.0726  -0.0285   0.0449   0.1289   0.2010   0.2220
     0.3222   0.3796   0.4167   0.5666   0.6310   0.6807   0.7794   0.9230
     1.0410   1.0617   1.2088   1.2529   1.2915   1.3156   1.4658   1.5560
     1.6762   1.7787   1.8078   1.9450   2.0084   2.1323   2.2603   2.4084
     2.4133   2.5454   2.6474   2.7156   2.7952   2.8473   2.8846   2.9801
     3.0337   3.0482   3.2068   3.2952   3.3267   3.4913   3.5196   3.6200
     3.7458   4.1218   4.2003   4.2898   4.3322   4.4550   4.5079   4.5516
     4.6041   4.7044   4.7695   4.8743   5.0179   5.0654   5.0838   5.1476
     5.1674   5.2233   5.3043   5.3456   5.4011   5.4879   5.5494   5.6385
     5.6590   5.6967   5.7699   5.8018   5.8602   5.9412   6.0124   6.0376
     6.1173   6.1254   6.2163   6.2267   6.3508   6.3893   6.4362   6.5016
     6.5534   6.5851   6.6843   6.7480   6.7671   6.8156   6.8403   6.9376
     7.0015   7.0318   7.1391   7.1962   7.2310   7.2722   7.3222   7.4797
     7.5179   7.5694   7.6901   7.7538   7.8778   7.9430   8.0120   8.0844
     8.1389   8.2097   8.2501   8.3748   8.3877   8.4294   8.5262   8.5862
     8.6412   8.6956

     the Fermi energy is     6.9721 ev

!    total energy              =    -501.58612358 Ry
     estimated scf accuracy    <       0.00000017 Ry
     smearing contrib. (-TS)   =      -0.15184743 Ry
     internal energy E=F+TS    =    -501.43427615 Ry

     The total energy is F=E-TS. E is the sum of the following terms:
     one-electron contribution =     189.65742583 Ry
     hartree contribution      =      22.60850426 Ry
     xc contribution           =    -150.76330563 Ry
     ewald contribution        =    -562.93690061 Ry

     convergence has been achieved in  19 iterations

     Forces acting on atoms (cartesian axes, Ry/au):

     atom    1 type  1   force =     0.01226297   -0.00847376   -0.01717793
     atom    2 type  1   force =     0.02108342   -0.01868328   -0.00156475
     atom    3 type  1   force =    -0.02240621    0.01651822   -0.02918264
     atom    4 type  1   force =    -0.01306399   -0.01238512    0.01649912
     atom    5 type  1   force =     0.01748152    0.02059697    0.02296122
     atom    6 type  1   force =     0.00143722    0.04552606   -0.01723572
     atom    7 type  1   force =    -0.04123216   -0.00957708    0.01787703
     atom    8 type  1   force =     0.00170154   -0.01688696    0.00150780
     atom    9 type  1   force =    -0.02001081   -0.00943589    0.00480335
     atom   10 type  1   force =     0.01327227    0.00148206   -0.00094721
     atom   11 type  1   force =     0.02672071   -0.02605625    0.00499717
     atom   12 type  1   force =    -0.00963203    0.00055612    0.02201814
     atom   13 type  1   force =    -0.04638202   -0.04136120   -0.00704743
     atom   14 type  1   force =    -0.00604191    0.01347297   -0.02786535
     atom   15 type  1   force =    -0.00789499    0.03431651   -0.00711603
     atom   16 type  1   force =    -0.01074091    0.01747864    0.02547879
     atom   17 type  1   force =     0.01143216   -0.03575023    0.03533653
     atom   18 type  1   force =    -0.03884287   -0.04863087   -0.05296218
     atom   19 type  1   force =    -0.01207154   -0.00433425   -0.01124926
     atom   20 type  1   force =     0.02930497    0.01745618   -0.02064242
     atom   21 type  1   force =     0.00884118   -0.02444220   -0.04419322
     atom   22 type  1   force =     0.02714609   -0.00277976   -0.00785164
     atom   23 type  1   force =     0.04619927   -0.01364466   -0.05344769
     atom   24 type  1   force =     0.01690122    0.02675213   -0.00276129
     atom   25 type  1   force =    -0.00122348   -0.00641914    0.00522867
     atom   26 type  1   force =     0.00027027   -0.02073488   -0.03140907
     atom   27 type  1   force =    -0.03015396    0.02378735   -0.00581663
     atom   28 type  1   force =     0.04114753    0.05415260    0.06483286
     atom   29 type  1   force =     0.01638838   -0.00719755    0.02056605
     atom   30 type  1   force =     0.02147518   -0.05074064    0.02408219
     atom   31 type  1   force =     0.01946345    0.02089297   -0.00021509
     atom   32 type  1   force =     0.01291747    0.03069557    0.02766590
     atom   33 type  1   force =     0.01501762   -0.00427793    0.01879380
     atom   34 type  1   force =     0.04146687    0.01221353    0.03838878
     atom   35 type  1   force =    -0.04022086   -0.01360330    0.00104687
     atom   36 type  1   force =    -0.01434755   -0.05474838   -0.01040197
     atom   37 type  1   force =     0.00660371    0.00434025    0.00764594
     atom   38 type  1   force =     0.02510440    0.00175683   -0.02928774
     atom   39 type  1   force =     0.00719517    0.03257967    0.01691258
     atom   40 type  1   force =     0.03293893    0.04078239   -0.00670339
     atom   41 type  1   force =     0.00763402   -0.02315185    0.01051325
     atom   42 type  1   force =     0.00493141   -0.00019982    0.02213896
     atom   43 type  1   force =    -0.00197835    0.04096990   -0.04329045
     atom   44 type  1   force =    -0.00976296   -0.01438349    0.00347464
     atom   45 type  1   force =    -0.00308447    0.02130594   -0.00785930
     atom   46 type  1   force =     0.01147576    0.01105549    0.00421394
     atom   47 type  1   force =    -0.09276157   -0.03607204   -0.02348783
     atom   48 type  1   force =     0.01768796    0.00594088    0.05595201
     atom   49 type  1   force =    -0.01435770   -0.00461342   -0.01949844
     atom   50 type  1   force =     0.00631473   -0.02695555    0.00169448
     atom   51 type  1   force =     0.00180387    0.00546765    0.02400455
     atom   52 type  1   force =    -0.02631952    0.00834799   -0.02298512
     atom   53 type  1   force =    -0.00241061   -0.02794132    0.00177489
     atom   54 type  1   force =     0.00837297    0.07114357    0.01104621
     atom   55 type  1   force =    -0.04378891   -0.00525852    0.02252603
     atom   56 type  1   force =    -0.01265322    0.01674756   -0.00596888
     atom   57 type  1   force =     0.03277066    0.00815091   -0.00536068
     atom   58 type  1   force =    -0.01640634   -0.02100524   -0.02817191
     atom   59 type  1   force =     0.01724512    0.01495065    0.00591618
     atom   60 type  1   force =    -0.07181429    0.00319670    0.01645512
     atom   61 type  1   force =     0.01547338   -0.02378315   -0.01177356
     atom   62 type  1   force =    -0.00134674    0.00761186    0.00187696
     atom   63 type  1   force =     0.01951939   -0.00952062    0.00308774
     atom   64 type  1   force =    -0.00605281   -0.00719777   -0.00784295

     Total force =     0.341276     Total SCF correction =     0.000800


     Computing stress (Cartesian axis) and pressure

          total   stress  (Ry/bohr**3)                   (kbar)     P=      -32.03
  -0.00023133   0.00001550   0.00002446          -34.03        2.28        3.60
   0.00001550  -0.00011240   0.00000950            2.28      -16.54        1.40
   0.00002446   0.00000950  -0.00030952            3.60        1.40      -45.53

 
     init_run     :      1.09s CPU      4.95s WALL (       1 calls)
     electrons    :      1.98s CPU      2.12s WALL (       1 calls)
     forces       :      0.04s CPU      0.04s WALL (       1 calls)
     stress       :      0.16s CPU      0.16s WALL (       1 calls)

     Called by init_run:
     wfcinit      :      0.55s CPU      4.23s WALL (       1 calls)
                                        4.23s GPU  (       1 calls)
     potinit      :      0.05s CPU      0.14s WALL (       1 calls)
     hinit0       :      0.47s CPU      0.50s WALL (       1 calls)

     Called by electrons:
     c_bands      :      1.15s CPU      1.21s WALL (      20 calls)
     sum_band     :      0.41s CPU      0.45s WALL (      20 calls)
     v_of_rho     :      0.19s CPU      0.30s WALL (      20 calls)
     mix_rho      :      0.19s CPU      0.21s WALL (      20 calls)

     Called by c_bands:
     init_us_2    :      0.07s CPU      0.08s WALL (      41 calls)
     init_us_2:gp :      0.07s CPU      0.07s WALL (      41 calls)
     regterg      :      0.97s CPU      1.03s WALL (      20 calls)

     Called by *egterg:
     rdiaghg      :      0.38s CPU      1.14s WALL (      76 calls)
                                        1.12s GPU  (      76 calls)
     h_psi        :      0.97s CPU      3.93s WALL (      78 calls)
                                        3.92s GPU  (      78 calls)
     g_psi        :      0.00s CPU      0.00s WALL (      57 calls)
                                        0.00s GPU  (      57 calls)

     Called by h_psi:
     h_psi:calbec :      0.52s CPU      3.40s WALL (      78 calls)
                                        3.40s GPU  (      78 calls)
     vloc_psi     :      0.40s CPU      0.47s WALL (      78 calls)
                                        0.47s GPU  (      78 calls)
     add_vuspsi   :      0.03s CPU      0.05s WALL (      78 calls)
                                        0.05s GPU  (      78 calls)

     General routines
     calbec       :      0.53s CPU      3.40s WALL (      83 calls)
     fft          :      0.63s CPU      0.76s WALL (     167 calls)
                                        0.14s GPU  (     106 calls)
     ffts         :      0.05s CPU      0.06s WALL (      20 calls)
     fftw         :      0.49s CPU      0.64s WALL (    2080 calls)
                                        0.55s GPU  (    2080 calls)
 
     Parallel routines
 
     PWSCF        :      3.31s CPU      7.36s WALL

 
   This run was terminated on:  11: 3:40  10May2023            

=------------------------------------------------------------------------------=
   JOB DONE.
=------------------------------------------------------------------------------=
