An instance of this daemon is already running
An instance of this daemon is already running
An instance of this daemon is already running

     Program PWSCF v.7.1 starts on 10May2023 at 11: 2:15 

     This program is part of the open-source Quantum ESPRESSO suite
     for quantum simulation of materials; please cite
         "P. Giannozzi et al., J. Phys.:Condens. Matter 21 395502 (2009);
         "P. Giannozzi et al., J. Phys.:Condens. Matter 29 465901 (2017);
         "P. Giannozzi et al., J. Chem. Phys. 152 154105 (2020);
          URL http://www.quantum-espresso.org", 
     in publications or presentations arising from this work. More details at
     http://www.quantum-espresso.org/quote

     Parallel version (MPI & OpenMP), running on       4 processor cores
     Number of MPI processes:                 4
     Threads/MPI process:                     1

     MPI processes distributed on     1 nodes
     753553 MiB available memory on the printing compute node when the environment starts
 
     Reading input from pw-si-51.in
Warning: card &CELL ignored
Warning: card / ignored

     Current dimensions of program PWSCF are:
     Max number of different atomic species (ntypx) = 10
     Max number of k-points (npk) =  40000
     Max angular momentum in pseudopotentials (lmaxx) =  4

     IMPORTANT: XC functional enforced from input :
     Exchange-correlation= PBE
                           (   1   4   3   4   0   0   0)
     Any further DFT definition will be discarded
     Please, verify this is what you really want


     gamma-point specific algorithms are used
 
     K-points division:     npool     =       2
     R & G space division:  proc/nbgrp/npool/nimage =       2
     Subspace diagonalization in iterative solution of the eigenvalue problem:
     a serial algorithm will be used

     Message from routine divide_et_impera:
     suboptimal parallelization: some nodes have no k-points
 
     Parallelization info
     --------------------
     sticks:   dense  smooth     PW     G-vecs:    dense   smooth      PW
     Min        1945    1945    516                91383    91383   12416
     Max        1948    1948    517                91388    91388   12421
     Sum        3893    3893   1033               182771   182771   24837
 
     Using Slab Decomposition
 


     bravais-lattice index     =            0
     lattice parameter (alat)  =      20.1936  a.u.
     unit-cell volume          =    8234.5836 (a.u.)^3
     number of atoms/cell      =           64
     number of atomic types    =            1
     number of electrons       =       256.00
     number of Kohn-Sham states=          154
     kinetic-energy cutoff     =      30.0000  Ry
     charge density cutoff     =     120.0000  Ry
     scf convergence threshold =      1.0E-06
     mixing beta               =       0.5000
     number of iterations used =            8  plain     mixing
     Exchange-correlation= PBE
                           (   1   4   3   4   0   0   0)

     GPU acceleration is ACTIVE.
     GPU-aware MPI enabled

     Message from routine print_cuda_info:
     High GPU oversubscription detected. Are you sure this is what you want?

     celldm(1)=  20.193606  celldm(2)=   0.000000  celldm(3)=   0.000000
     celldm(4)=   0.000000  celldm(5)=   0.000000  celldm(6)=   0.000000

     crystal axes: (cart. coord. in units of alat)
               a(1) = (   1.000000   0.000000   0.000000 )  
               a(2) = (   0.000000   1.000000   0.000000 )  
               a(3) = (   0.000000   0.000000   1.000000 )  

     reciprocal axes: (cart. coord. in units 2 pi/alat)
               b(1) = (  1.000000  0.000000  0.000000 )  
               b(2) = (  0.000000  1.000000  0.000000 )  
               b(3) = (  0.000000  0.000000  1.000000 )  


     PseudoPot. # 1 for Si read from file:
     /home/ppiaggi/pseudos/Si_ONCV_PBE_sr.upf
     MD5 check sum: 8553c464762ac42b85b1eed164b4d029
     Pseudo is Norm-conserving, Zval =  4.0
     Generated using ONCVPSP code by D. R. Hamann
     Using radial grid of 1510 points,  4 beta functions with: 
                l(1) =   0
                l(2) =   0
                l(3) =   1
                l(4) =   1

     atomic species   valence    mass     pseudopotential
        Si             4.00    28.08500     Si( 1.00)

     No symmetry found



   Cartesian axes

     site n.     atom                  positions (alat units)
         1           Si  tau(   1) = (   0.4872610   0.2820170   0.0225835  )
         2           Si  tau(   2) = (   0.0226107   0.2268260   0.2956310  )
         3           Si  tau(   3) = (   0.8826260   0.8173810   0.8921270  )
         4           Si  tau(   4) = (   0.1281020   0.0224643   0.3760150  )
         5           Si  tau(   5) = (   0.2050680   0.6354420   0.5630500  )
         6           Si  tau(   6) = (   0.0424555   0.2819020   0.7535800  )
         7           Si  tau(   7) = (   0.3871880   0.6383370   0.8509910  )
         8           Si  tau(   8) = (   0.2666030   0.3554510   0.4626500  )
         9           Si  tau(   9) = (   0.0698835   0.9777470   0.8885170  )
        10           Si  tau(  10) = (   0.0408704   0.1970550   0.0611853  )
        11           Si  tau(  11) = (   0.3910110   0.5492720   0.0486246  )
        12           Si  tau(  12) = (   0.4555570   0.4856940   0.6811140  )
        13           Si  tau(  13) = (   0.1418690   0.8034790   0.1683120  )
        14           Si  tau(  14) = (   0.6284040   0.6868750   0.1070090  )
        15           Si  tau(  15) = (   0.5725250   0.2466950   0.4804440  )
        16           Si  tau(  16) = (   0.3226090   0.9420720   0.2209250  )
        17           Si  tau(  17) = (   0.6159530   0.4549050   0.1357180  )
        18           Si  tau(  18) = (   0.4632270   0.7783100   0.2967450  )
        19           Si  tau(  19) = (   0.7390310   0.3402130   0.3177190  )
        20           Si  tau(  20) = (   0.8727770   0.3842320   0.6384270  )
        21           Si  tau(  21) = (   0.8352970   0.8128900   0.5411320  )
        22           Si  tau(  22) = (   0.2309620   0.1690740   0.9300010  )
        23           Si  tau(  23) = (   0.8604380   0.2659260   0.9076450  )
        24           Si  tau(  24) = (   0.3573740   0.9868990   0.0103477  )
        25           Si  tau(  25) = (   0.2411740   0.4255930   0.8600020  )
        26           Si  tau(  26) = (   0.6691130   0.9117830   0.7524860  )
        27           Si  tau(  27) = (   0.2279620   0.0076732   0.5631450  )
        28           Si  tau(  28) = (   0.7523480   0.7587040   0.3191200  )
        29           Si  tau(  29) = (   0.5893280   0.7143000   0.8706230  )
        30           Si  tau(  30) = (   0.0379862   0.0637624   0.6824410  )
        31           Si  tau(  31) = (   0.8355480   0.6397590   0.0181325  )
        32           Si  tau(  32) = (   0.9530940   0.6677850   0.2643980  )
        33           Si  tau(  33) = (   0.8878640   0.4090160   0.1280380  )
        34           Si  tau(  34) = (   0.4445040   0.0823335   0.5823760  )
        35           Si  tau(  35) = (   0.5217000   0.2960640   0.8131920  )
        36           Si  tau(  36) = (   0.3092320   0.8194420   0.6266610  )
        37           Si  tau(  37) = (   0.6934340   0.5333100   0.7150490  )
        38           Si  tau(  38) = (   0.3498900   0.6109890   0.3720310  )
        39           Si  tau(  39) = (   0.2715720   0.2613950   0.6672680  )
        40           Si  tau(  40) = (   0.4780850   0.0645913   0.8002780  )
        41           Si  tau(  41) = (   0.8217470   0.0525128   0.6162750  )
        42           Si  tau(  42) = (   0.5841310   0.0774362   0.0614590  )
        43           Si  tau(  43) = (   0.4777380   0.4539460   0.4393900  )
        44           Si  tau(  44) = (   0.8092380   0.1208500   0.3867150  )
        45           Si  tau(  45) = (   0.2184130   0.5802150   0.1973840  )
        46           Si  tau(  46) = (   0.7306820   0.4578500   0.9425500  )
        47           Si  tau(  47) = (   0.6365710   0.6159310   0.4876690  )
        48           Si  tau(  48) = (   0.0754176   0.4422410   0.3628170  )
        49           Si  tau(  49) = (   0.6037280   0.9424290   0.4160010  )
        50           Si  tau(  50) = (   0.8605830   0.4846550   0.4249930  )
        51           Si  tau(  51) = (   0.0865626   0.5498340   0.7441070  )
        52           Si  tau(  52) = (   0.8504670   0.6725240   0.6966360  )
        53           Si  tau(  53) = (   0.9880170   0.9727720   0.1110000  )
        54           Si  tau(  54) = (   0.0941241   0.4729870   0.0534431  )
        55           Si  tau(  55) = (   0.7229880   0.2153290   0.7025550  )
        56           Si  tau(  56) = (   0.5256820   0.1319770   0.2879460  )
        57           Si  tau(  57) = (   0.7588140   0.9607000   0.1806860  )
        58           Si  tau(  58) = (   0.0560145   0.7869940   0.4707450  )
        59           Si  tau(  59) = (   0.2856620   0.1998270   0.3052110  )
        60           Si  tau(  60) = (   0.5427500   0.7865880   0.5881750  )
        61           Si  tau(  61) = (   0.2810890   0.3171250   0.1238800  )
        62           Si  tau(  62) = (   0.7785520   0.0472317   0.9434140  )
        63           Si  tau(  63) = (   0.2637480   0.8321150   0.8521720  )
        64           Si  tau(  64) = (   0.0969720   0.6771880   0.9369360  )

     number of k points=     1  Fermi-Dirac smearing, width (Ry)=  0.0100
                       cart. coord. in units 2pi/alat
        k(    1) = (   0.0000000   0.0000000   0.0000000), wk =   2.0000000

     Dense  grid:    91386 G-vectors     FFT dimensions: (  72,  72,  72)

     Estimated max dynamical RAM per process >     146.57 MB

     Estimated total dynamical RAM >     563.99 MB

     Initial potential from superposition of free atoms

     starting charge     255.9608, renormalised to     256.0000
     Starting wfcs are  256 randomized atomic wfcs

     total cpu time spent up to now is        5.0 secs

     Self-consistent Calculation

     iteration #  1     ecut=    30.00 Ry     beta= 0.50
     Davidson diagonalization with overlap
     ethr =  1.00E-02,  avg # of iterations =  3.0

     Threshold (ethr) on eigenvalues was too large:
     Diagonalizing with lowered threshold

     Davidson diagonalization with overlap
     ethr =  3.75E-04,  avg # of iterations =  4.0

     total cpu time spent up to now is        5.3 secs

     total energy              =    -501.46083567 Ry
     estimated scf accuracy    <       1.13260727 Ry

     iteration #  2     ecut=    30.00 Ry     beta= 0.50
     Davidson diagonalization with overlap
     ethr =  4.42E-04,  avg # of iterations =  3.0

     total cpu time spent up to now is        5.4 secs

     total energy              =    -501.10996762 Ry
     estimated scf accuracy    <       3.37392082 Ry

     iteration #  3     ecut=    30.00 Ry     beta= 0.50
     Davidson diagonalization with overlap
     ethr =  4.42E-04,  avg # of iterations =  4.0

     total cpu time spent up to now is        5.5 secs

     total energy              =    -501.43445860 Ry
     estimated scf accuracy    <       2.29952512 Ry

     iteration #  4     ecut=    30.00 Ry     beta= 0.50
     Davidson diagonalization with overlap
     ethr =  4.42E-04,  avg # of iterations =  2.0

     total cpu time spent up to now is        5.6 secs

     total energy              =    -501.57580813 Ry
     estimated scf accuracy    <       0.57427899 Ry

     iteration #  5     ecut=    30.00 Ry     beta= 0.50
     Davidson diagonalization with overlap
     ethr =  2.24E-04,  avg # of iterations =  2.0

     total cpu time spent up to now is        5.7 secs

     total energy              =    -501.61838201 Ry
     estimated scf accuracy    <       0.23078094 Ry

     iteration #  6     ecut=    30.00 Ry     beta= 0.50
     Davidson diagonalization with overlap
     ethr =  9.01E-05,  avg # of iterations =  2.0

     total cpu time spent up to now is        5.8 secs

     total energy              =    -501.64573552 Ry
     estimated scf accuracy    <       0.08502299 Ry

     iteration #  7     ecut=    30.00 Ry     beta= 0.50
     Davidson diagonalization with overlap
     ethr =  3.32E-05,  avg # of iterations =  3.0

     total cpu time spent up to now is        5.9 secs

     total energy              =    -501.65203401 Ry
     estimated scf accuracy    <       0.01446087 Ry

     iteration #  8     ecut=    30.00 Ry     beta= 0.50
     Davidson diagonalization with overlap
     ethr =  5.65E-06,  avg # of iterations = 17.0

     total cpu time spent up to now is        6.1 secs

     total energy              =    -501.65370332 Ry
     estimated scf accuracy    <       0.01449403 Ry

     iteration #  9     ecut=    30.00 Ry     beta= 0.50
     Davidson diagonalization with overlap
     ethr =  5.65E-06,  avg # of iterations =  2.0

     total cpu time spent up to now is        6.2 secs

     total energy              =    -501.65487472 Ry
     estimated scf accuracy    <       0.00261374 Ry

     iteration # 10     ecut=    30.00 Ry     beta= 0.50
     Davidson diagonalization with overlap
     ethr =  1.02E-06,  avg # of iterations =  3.0

     total cpu time spent up to now is        6.3 secs

     total energy              =    -501.65512348 Ry
     estimated scf accuracy    <       0.00196314 Ry

     iteration # 11     ecut=    30.00 Ry     beta= 0.50
     Davidson diagonalization with overlap
     ethr =  7.67E-07,  avg # of iterations =  2.0

     total cpu time spent up to now is        6.4 secs

     total energy              =    -501.65529144 Ry
     estimated scf accuracy    <       0.00024131 Ry

     iteration # 12     ecut=    30.00 Ry     beta= 0.50
     Davidson diagonalization with overlap
     ethr =  9.43E-08,  avg # of iterations =  3.0

     total cpu time spent up to now is        6.5 secs

     total energy              =    -501.65531992 Ry
     estimated scf accuracy    <       0.00014802 Ry

     iteration # 13     ecut=    30.00 Ry     beta= 0.50
     Davidson diagonalization with overlap
     ethr =  5.78E-08,  avg # of iterations =  3.0

     total cpu time spent up to now is        6.6 secs

     total energy              =    -501.65533250 Ry
     estimated scf accuracy    <       0.00010462 Ry

     iteration # 14     ecut=    30.00 Ry     beta= 0.50
     Davidson diagonalization with overlap
     ethr =  4.09E-08,  avg # of iterations =  2.0

     total cpu time spent up to now is        6.7 secs

     total energy              =    -501.65534119 Ry
     estimated scf accuracy    <       0.00001422 Ry

     iteration # 15     ecut=    30.00 Ry     beta= 0.50
     Davidson diagonalization with overlap
     ethr =  5.56E-09,  avg # of iterations =  4.0

     total cpu time spent up to now is        6.8 secs

     total energy              =    -501.65534160 Ry
     estimated scf accuracy    <       0.00002145 Ry

     iteration # 16     ecut=    30.00 Ry     beta= 0.50
     Davidson diagonalization with overlap
     ethr =  5.56E-09,  avg # of iterations =  2.0

     total cpu time spent up to now is        6.9 secs

     total energy              =    -501.65534370 Ry
     estimated scf accuracy    <       0.00000365 Ry

     iteration # 17     ecut=    30.00 Ry     beta= 0.50
     Davidson diagonalization with overlap
     ethr =  1.43E-09,  avg # of iterations =  2.0

     total cpu time spent up to now is        7.0 secs

     total energy              =    -501.65534387 Ry
     estimated scf accuracy    <       0.00000171 Ry

     iteration # 18     ecut=    30.00 Ry     beta= 0.50
     Davidson diagonalization with overlap
     ethr =  6.66E-10,  avg # of iterations =  3.0

     total cpu time spent up to now is        7.1 secs

     total energy              =    -501.65534398 Ry
     estimated scf accuracy    <       0.00000189 Ry

     iteration # 19     ecut=    30.00 Ry     beta= 0.50
     Davidson diagonalization with overlap
     ethr =  6.66E-10,  avg # of iterations =  2.0

     total cpu time spent up to now is        7.2 secs

     End of self-consistent calculation

          k = 0.0000 0.0000 0.0000 ( 11444 PWs)   bands (ev):

    -5.4175  -4.4873  -4.4057  -4.3650  -4.1535  -4.0485  -3.9315  -3.5926
    -3.4086  -3.3478  -3.2025  -3.1276  -3.0494  -3.0024  -2.9446  -2.8680
    -2.7823  -2.6430  -2.5092  -2.2889  -2.0506  -2.0202  -1.9469  -1.7875
    -1.7247  -1.5954  -1.3635  -1.1145  -0.9644  -0.6945  -0.6642  -0.5612
    -0.4208  -0.3823  -0.1956  -0.1415   0.0049   0.0598   0.1103   0.3072
     0.3195   0.3431   0.4035   0.4513   0.5650   0.6672   0.7065   0.8587
     0.8718   0.9008   0.9960   1.0781   1.1893   1.3499   1.4874   1.5830
     1.6727   1.7730   1.8889   1.9836   2.0893   2.1868   2.2600   2.2991
     2.3679   2.5137   2.6205   2.6375   2.7497   2.8530   2.8847   2.9395
     3.0492   3.0703   3.1002   3.2228   3.2252   3.2782   3.4378   3.5483
     3.6615   4.0632   4.1426   4.1904   4.3040   4.3971   4.4529   4.5100
     4.6363   4.6625   4.8294   4.8540   4.9091   4.9597   5.0639   5.0972
     5.1140   5.1604   5.2801   5.3352   5.3784   5.4496   5.4691   5.5291
     5.5777   5.7038   5.7232   5.7528   5.7852   5.8798   5.8993   5.9574
     5.9979   6.0891   6.1591   6.2339   6.2644   6.3447   6.3816   6.4544
     6.5131   6.5410   6.6866   6.7031   6.7321   6.7785   6.8144   6.9041
     6.9635   7.0268   7.1262   7.2445   7.3032   7.3782   7.3932   7.4747
     7.4939   7.5978   7.6629   7.7003   7.7472   7.8537   7.9452   8.0047
     8.0686   8.1655   8.2061   8.2504   8.3865   8.4098   8.4773   8.5084
     8.5280   8.6216

     the Fermi energy is     6.9587 ev

!    total energy              =    -501.65534395 Ry
     estimated scf accuracy    <       0.00000023 Ry
     smearing contrib. (-TS)   =      -0.13737246 Ry
     internal energy E=F+TS    =    -501.51797149 Ry

     The total energy is F=E-TS. E is the sum of the following terms:
     one-electron contribution =     184.42579334 Ry
     hartree contribution      =      24.76924542 Ry
     xc contribution           =    -150.75002067 Ry
     ewald contribution        =    -559.96298957 Ry

     convergence has been achieved in  19 iterations

     Forces acting on atoms (cartesian axes, Ry/au):

     atom    1 type  1   force =    -0.00577473    0.03165958    0.05685992
     atom    2 type  1   force =     0.00115770    0.00095154   -0.02013462
     atom    3 type  1   force =     0.03546367    0.00790347   -0.02826585
     atom    4 type  1   force =     0.01837683   -0.02483973   -0.05375478
     atom    5 type  1   force =    -0.01397979    0.02125779   -0.02428420
     atom    6 type  1   force =    -0.00909780    0.00518160    0.00119134
     atom    7 type  1   force =    -0.01257133   -0.01656857   -0.02826541
     atom    8 type  1   force =    -0.00387892   -0.00521091    0.00100349
     atom    9 type  1   force =    -0.00429672   -0.03540117   -0.00245413
     atom   10 type  1   force =    -0.01559246    0.00665286    0.01845265
     atom   11 type  1   force =     0.02560124   -0.02910383    0.01497249
     atom   12 type  1   force =     0.02748844   -0.01876808    0.00660107
     atom   13 type  1   force =    -0.01915532   -0.03266971   -0.01217728
     atom   14 type  1   force =    -0.01517381   -0.00154337    0.01723515
     atom   15 type  1   force =     0.01716107    0.01455602    0.01603233
     atom   16 type  1   force =    -0.02468999   -0.02054947    0.04343297
     atom   17 type  1   force =    -0.01753926   -0.01305566   -0.01148154
     atom   18 type  1   force =     0.03617099    0.05358371   -0.01200694
     atom   19 type  1   force =    -0.00406168   -0.01533140   -0.04320427
     atom   20 type  1   force =    -0.00408299    0.01068451   -0.01841707
     atom   21 type  1   force =     0.01219906    0.04076562   -0.04994021
     atom   22 type  1   force =    -0.00053087    0.00414543    0.01598710
     atom   23 type  1   force =     0.02228476   -0.00879296    0.00606864
     atom   24 type  1   force =     0.01998304    0.02504517   -0.05134774
     atom   25 type  1   force =    -0.02414269   -0.00500589    0.01062190
     atom   26 type  1   force =    -0.02528881   -0.01153860    0.01964837
     atom   27 type  1   force =    -0.01022390    0.03285335    0.00815266
     atom   28 type  1   force =    -0.02161413    0.02909784    0.00767431
     atom   29 type  1   force =     0.02389357    0.01626975    0.00791850
     atom   30 type  1   force =    -0.00076545    0.00907753    0.01470678
     atom   31 type  1   force =     0.02246044   -0.00311509    0.04232177
     atom   32 type  1   force =     0.01168887   -0.00611814    0.01122259
     atom   33 type  1   force =     0.01545651   -0.00663514    0.00888853
     atom   34 type  1   force =    -0.02373452    0.01808110   -0.01073564
     atom   35 type  1   force =     0.00870084    0.00487812   -0.05206820
     atom   36 type  1   force =     0.03632335   -0.02773860    0.03816464
     atom   37 type  1   force =    -0.04450924   -0.02366297    0.00994913
     atom   38 type  1   force =    -0.04698349    0.00991615    0.01787697
     atom   39 type  1   force =     0.00635262   -0.00680038    0.00965829
     atom   40 type  1   force =     0.01489662   -0.00709153   -0.00092732
     atom   41 type  1   force =     0.03016450   -0.06982940   -0.05132997
     atom   42 type  1   force =    -0.02351710   -0.00090550    0.02377385
     atom   43 type  1   force =     0.01307115   -0.03120275    0.06080230
     atom   44 type  1   force =    -0.00280151    0.00477885   -0.02066660
     atom   45 type  1   force =    -0.00372014    0.01636934    0.01199547
     atom   46 type  1   force =     0.00944224   -0.01559535   -0.00733728
     atom   47 type  1   force =     0.03814657   -0.01847517    0.00333635
     atom   48 type  1   force =    -0.00331868   -0.00644778   -0.00653441
     atom   49 type  1   force =    -0.02886735   -0.01979671   -0.01581753
     atom   50 type  1   force =     0.02236134    0.02306231    0.03402622
     atom   51 type  1   force =    -0.01401647    0.00505521   -0.00833103
     atom   52 type  1   force =     0.05510012    0.01278371    0.04053620
     atom   53 type  1   force =    -0.01373102    0.00091329   -0.01734295
     atom   54 type  1   force =     0.00896535   -0.02375740   -0.01708867
     atom   55 type  1   force =    -0.03534689    0.06270322    0.00968313
     atom   56 type  1   force =    -0.01010178   -0.03752480   -0.00149613
     atom   57 type  1   force =     0.02234628    0.00079208    0.02891605
     atom   58 type  1   force =    -0.01957710    0.00306221   -0.02285004
     atom   59 type  1   force =     0.00453263   -0.02964911    0.01269916
     atom   60 type  1   force =    -0.01963751    0.06207135    0.00757367
     atom   61 type  1   force =    -0.00668194   -0.00029865   -0.06052679
     atom   62 type  1   force =    -0.00297914    0.00086214   -0.00527463
     atom   63 type  1   force =    -0.00918878    0.01236285    0.01151480
     atom   64 type  1   force =    -0.01861645    0.02564613    0.00456244

     Total force =     0.330570     Total SCF correction =     0.000953


     Computing stress (Cartesian axis) and pressure

          total   stress  (Ry/bohr**3)                   (kbar)     P=      -35.35
  -0.00031803   0.00004118   0.00008004          -46.78        6.06       11.77
   0.00004118  -0.00018170  -0.00003335            6.06      -26.73       -4.91
   0.00008004  -0.00003335  -0.00022121           11.77       -4.91      -32.54

 
     init_run     :      1.11s CPU      4.95s WALL (       1 calls)
     electrons    :      2.01s CPU      2.20s WALL (       1 calls)
     forces       :      0.03s CPU      0.04s WALL (       1 calls)
     stress       :      0.15s CPU      0.16s WALL (       1 calls)

     Called by init_run:
     wfcinit      :      0.56s CPU      4.23s WALL (       1 calls)
                                        4.23s GPU  (       1 calls)
     potinit      :      0.06s CPU      0.15s WALL (       1 calls)
     hinit0       :      0.47s CPU      0.50s WALL (       1 calls)

     Called by electrons:
     c_bands      :      1.19s CPU      1.28s WALL (      20 calls)
     sum_band     :      0.40s CPU      0.45s WALL (      20 calls)
     v_of_rho     :      0.20s CPU      0.30s WALL (      20 calls)
     mix_rho      :      0.19s CPU      0.21s WALL (      20 calls)

     Called by c_bands:
     init_us_2    :      0.07s CPU      0.08s WALL (      41 calls)
     init_us_2:gp :      0.07s CPU      0.08s WALL (      41 calls)
     regterg      :      1.03s CPU      1.11s WALL (      20 calls)

     Called by *egterg:
     rdiaghg      :      0.44s CPU      1.19s WALL (      87 calls)
                                        1.18s GPU  (      87 calls)
     h_psi        :      0.97s CPU      3.93s WALL (      89 calls)
                                        3.93s GPU  (      89 calls)
     g_psi        :      0.00s CPU      0.00s WALL (      68 calls)
                                        0.00s GPU  (      68 calls)

     Called by h_psi:
     h_psi:calbec :      0.52s CPU      3.40s WALL (      89 calls)
                                        3.40s GPU  (      89 calls)
     vloc_psi     :      0.39s CPU      0.47s WALL (      89 calls)
                                        0.47s GPU  (      89 calls)
     add_vuspsi   :      0.04s CPU      0.05s WALL (      89 calls)
                                        0.05s GPU  (      89 calls)

     General routines
     calbec       :      0.52s CPU      3.40s WALL (      94 calls)
     fft          :      0.64s CPU      0.77s WALL (     167 calls)
                                        0.14s GPU  (     106 calls)
     ffts         :      0.05s CPU      0.05s WALL (      20 calls)
     fftw         :      0.48s CPU      0.63s WALL (    2098 calls)
                                        0.55s GPU  (    2098 calls)
 
     Parallel routines
 
     PWSCF        :      3.36s CPU      7.43s WALL

 
   This run was terminated on:  11: 2:23  10May2023            

=------------------------------------------------------------------------------=
   JOB DONE.
=------------------------------------------------------------------------------=
