An instance of this daemon is already running
An instance of this daemon is already running

     Program PWSCF v.7.1 starts on 10May2023 at 11: 8:34 

     This program is part of the open-source Quantum ESPRESSO suite
     for quantum simulation of materials; please cite
         "P. Giannozzi et al., J. Phys.:Condens. Matter 21 395502 (2009);
         "P. Giannozzi et al., J. Phys.:Condens. Matter 29 465901 (2017);
         "P. Giannozzi et al., J. Chem. Phys. 152 154105 (2020);
          URL http://www.quantum-espresso.org", 
     in publications or presentations arising from this work. More details at
     http://www.quantum-espresso.org/quote

     Parallel version (MPI & OpenMP), running on       4 processor cores
     Number of MPI processes:                 4
     Threads/MPI process:                     1

     MPI processes distributed on     1 nodes
     753577 MiB available memory on the printing compute node when the environment starts
 
     Reading input from pw-si-90.in
Warning: card &CELL ignored
Warning: card / ignored

     Current dimensions of program PWSCF are:
     Max number of different atomic species (ntypx) = 10
     Max number of k-points (npk) =  40000
     Max angular momentum in pseudopotentials (lmaxx) =  4

     IMPORTANT: XC functional enforced from input :
     Exchange-correlation= PBE
                           (   1   4   3   4   0   0   0)
     Any further DFT definition will be discarded
     Please, verify this is what you really want


     gamma-point specific algorithms are used
 
     K-points division:     npool     =       2
     R & G space division:  proc/nbgrp/npool/nimage =       2
     Subspace diagonalization in iterative solution of the eigenvalue problem:
     a serial algorithm will be used

     Message from routine divide_et_impera:
     suboptimal parallelization: some nodes have no k-points
 
     Parallelization info
     --------------------
     sticks:   dense  smooth     PW     G-vecs:    dense   smooth      PW
     Min        1920    1920    502                89653    89653   12150
     Max        1921    1921    503                89656    89656   12153
     Sum        3841    3841   1005               179309   179309   24303
 
     Using Slab Decomposition
 


     bravais-lattice index     =            0
     lattice parameter (alat)  =      20.0739  a.u.
     unit-cell volume          =    8089.0496 (a.u.)^3
     number of atoms/cell      =           64
     number of atomic types    =            1
     number of electrons       =       256.00
     number of Kohn-Sham states=          154
     kinetic-energy cutoff     =      30.0000  Ry
     charge density cutoff     =     120.0000  Ry
     scf convergence threshold =      1.0E-06
     mixing beta               =       0.5000
     number of iterations used =            8  plain     mixing
     Exchange-correlation= PBE
                           (   1   4   3   4   0   0   0)

     GPU acceleration is ACTIVE.
     GPU-aware MPI enabled

     Message from routine print_cuda_info:
     High GPU oversubscription detected. Are you sure this is what you want?

     celldm(1)=  20.073934  celldm(2)=   0.000000  celldm(3)=   0.000000
     celldm(4)=   0.000000  celldm(5)=   0.000000  celldm(6)=   0.000000

     crystal axes: (cart. coord. in units of alat)
               a(1) = (   1.000000   0.000000   0.000000 )  
               a(2) = (   0.000000   1.000000   0.000000 )  
               a(3) = (   0.000000   0.000000   1.000000 )  

     reciprocal axes: (cart. coord. in units 2 pi/alat)
               b(1) = (  1.000000  0.000000  0.000000 )  
               b(2) = (  0.000000  1.000000  0.000000 )  
               b(3) = (  0.000000  0.000000  1.000000 )  


     PseudoPot. # 1 for Si read from file:
     /home/ppiaggi/pseudos/Si_ONCV_PBE_sr.upf
     MD5 check sum: 8553c464762ac42b85b1eed164b4d029
     Pseudo is Norm-conserving, Zval =  4.0
     Generated using ONCVPSP code by D. R. Hamann
     Using radial grid of 1510 points,  4 beta functions with: 
                l(1) =   0
                l(2) =   0
                l(3) =   1
                l(4) =   1

     atomic species   valence    mass     pseudopotential
        Si             4.00    28.08500     Si( 1.00)

     No symmetry found



   Cartesian axes

     site n.     atom                  positions (alat units)
         1           Si  tau(   1) = (   0.0370703   0.5685500   0.6264440  )
         2           Si  tau(   2) = (   0.0927321   0.9610260   0.5611400  )
         3           Si  tau(   3) = (   0.4840960   0.4840090   0.3560640  )
         4           Si  tau(   4) = (   0.0699723   0.4078300   0.8890760  )
         5           Si  tau(   5) = (   0.3845780   0.2165680   0.8873490  )
         6           Si  tau(   6) = (   0.8798510   0.8727940   0.8928610  )
         7           Si  tau(   7) = (   0.8557570   0.4388520   0.4121080  )
         8           Si  tau(   8) = (   0.7791900   0.8240690   0.6755360  )
         9           Si  tau(   9) = (   0.9847110   0.6826830   0.3360680  )
        10           Si  tau(  10) = (   0.1405630   0.8656750   0.3064730  )
        11           Si  tau(  11) = (   0.5381940   0.3261000   0.5814740  )
        12           Si  tau(  12) = (   0.8649840   0.4618310   0.1835130  )
        13           Si  tau(  13) = (   0.6559860   0.2904860   0.3789630  )
        14           Si  tau(  14) = (   0.2499620   0.1506450   0.6980380  )
        15           Si  tau(  15) = (   0.2057110   0.3714430   0.7247660  )
        16           Si  tau(  16) = (   0.0870870   0.9860470   0.8479990  )
        17           Si  tau(  17) = (   0.3560270   0.4613010   0.5900260  )
        18           Si  tau(  18) = (   0.5219340   0.7101780   0.2301900  )
        19           Si  tau(  19) = (   0.2013600   0.6528500   0.7870470  )
        20           Si  tau(  20) = (   0.4379920   0.9388590   0.7574180  )
        21           Si  tau(  21) = (   0.3553420   0.7448290   0.5471920  )
        22           Si  tau(  22) = (   0.9642250   0.1924520   0.8709300  )
        23           Si  tau(  23) = (   0.2427290   0.8578500   0.6992410  )
        24           Si  tau(  24) = (   0.1958290   0.6221040   0.4643970  )
        25           Si  tau(  25) = (   0.0370533   0.6074120   0.0913137  )
        26           Si  tau(  26) = (   0.0813538   0.1170270   0.3719580  )
        27           Si  tau(  27) = (   0.2821090   0.3202580   0.3601800  )
        28           Si  tau(  28) = (   0.6572850   0.3913200   0.8726730  )
        29           Si  tau(  29) = (   0.5683030   0.7140050   0.7219880  )
        30           Si  tau(  30) = (   0.7728650   0.1274150   0.4698050  )
        31           Si  tau(  31) = (   0.5126230   0.9442380   0.2879970  )
        32           Si  tau(  32) = (   0.4392630   0.5453570   0.8043060  )
        33           Si  tau(  33) = (   0.7831060   0.7830140   0.2545800  )
        34           Si  tau(  34) = (   0.2038780   0.7667790   0.9827140  )
        35           Si  tau(  35) = (   0.4304230   0.0392949   0.0698942  )
        36           Si  tau(  36) = (   0.7514220   0.5340820   0.5901450  )
        37           Si  tau(  37) = (   0.6779690   0.8682350   0.4511960  )
        38           Si  tau(  38) = (   0.2570190   0.6024160   0.2269490  )
        39           Si  tau(  39) = (   0.5538430   0.8283180   0.9725060  )
        40           Si  tau(  40) = (   0.9187200   0.2015210   0.6161670  )
        41           Si  tau(  41) = (   0.6877530   0.5676030   0.1302350  )
        42           Si  tau(  42) = (   0.7073590   0.6396190   0.9190060  )
        43           Si  tau(  43) = (   0.1253190   0.1719690   0.1740000  )
        44           Si  tau(  44) = (   0.7814740   0.0635467   0.7916860  )
        45           Si  tau(  45) = (   0.0710764   0.3398770   0.4893270  )
        46           Si  tau(  46) = (   0.3322900   0.9189370   0.4251610  )
        47           Si  tau(  47) = (   0.2278230   0.0071460   0.0410781  )
        48           Si  tau(  48) = (   0.5585230   0.0468806   0.5776980  )
        49           Si  tau(  49) = (   0.1937290   0.3827580   0.1190890  )
        50           Si  tau(  50) = (   0.9063940   0.2643920   0.1040330  )
        51           Si  tau(  51) = (   0.6864120   0.1722540   0.0377018  )
        52           Si  tau(  52) = (   0.7181260   0.9437930   0.0813834  )
        53           Si  tau(  53) = (   0.5923350   0.6774210   0.4743680  )
        54           Si  tau(  54) = (   0.8724380   0.0888674   0.2575280  )
        55           Si  tau(  55) = (   0.8254980   0.4019710   0.7498450  )
        56           Si  tau(  56) = (   0.3630730   0.4004930   0.9896150  )
        57           Si  tau(  57) = (   0.5762650   0.1995240   0.7731310  )
        58           Si  tau(  58) = (   0.3422870   0.1366640   0.4854920  )
        59           Si  tau(  59) = (   0.3945770   0.6762970   0.0421437  )
        60           Si  tau(  60) = (   0.9618110   0.7846680   0.5559200  )
        61           Si  tau(  61) = (   0.0129236   0.8944870   0.1218260  )
        62           Si  tau(  62) = (   0.9415220   0.6284690   0.8680630  )
        63           Si  tau(  63) = (   0.5530570   0.3751330   0.1034250  )
        64           Si  tau(  64) = (   0.4870440   0.1964230   0.2574530  )

     number of k points=     1  Fermi-Dirac smearing, width (Ry)=  0.0100
                       cart. coord. in units 2pi/alat
        k(    1) = (   0.0000000   0.0000000   0.0000000), wk =   2.0000000

     Dense  grid:    89655 G-vectors     FFT dimensions: (  72,  72,  72)

     Estimated max dynamical RAM per process >     144.24 MB

     Estimated total dynamical RAM >     555.07 MB

     Initial potential from superposition of free atoms

     starting charge     255.9608, renormalised to     256.0000
     Starting wfcs are  256 randomized atomic wfcs

     total cpu time spent up to now is        5.0 secs

     Self-consistent Calculation

     iteration #  1     ecut=    30.00 Ry     beta= 0.50
     Davidson diagonalization with overlap
     ethr =  1.00E-02,  avg # of iterations =  3.0

     Threshold (ethr) on eigenvalues was too large:
     Diagonalizing with lowered threshold

     Davidson diagonalization with overlap
     ethr =  3.80E-04,  avg # of iterations =  4.0

     total cpu time spent up to now is        5.3 secs

     total energy              =    -501.21585545 Ry
     estimated scf accuracy    <       1.18372558 Ry

     iteration #  2     ecut=    30.00 Ry     beta= 0.50
     Davidson diagonalization with overlap
     ethr =  4.62E-04,  avg # of iterations =  5.0

     total cpu time spent up to now is        5.4 secs

     total energy              =    -500.76317088 Ry
     estimated scf accuracy    <       5.12745998 Ry

     iteration #  3     ecut=    30.00 Ry     beta= 0.50
     Davidson diagonalization with overlap
     ethr =  4.62E-04,  avg # of iterations =  4.0

     total cpu time spent up to now is        5.5 secs

     total energy              =    -501.28014259 Ry
     estimated scf accuracy    <       1.85956394 Ry

     iteration #  4     ecut=    30.00 Ry     beta= 0.50
     Davidson diagonalization with overlap
     ethr =  4.62E-04,  avg # of iterations =  2.0

     total cpu time spent up to now is        5.6 secs

     total energy              =    -501.38951558 Ry
     estimated scf accuracy    <       0.53392297 Ry

     iteration #  5     ecut=    30.00 Ry     beta= 0.50
     Davidson diagonalization with overlap
     ethr =  2.09E-04,  avg # of iterations =  2.0

     total cpu time spent up to now is        5.7 secs

     total energy              =    -501.41877840 Ry
     estimated scf accuracy    <       0.41607632 Ry

     iteration #  6     ecut=    30.00 Ry     beta= 0.50
     Davidson diagonalization with overlap
     ethr =  1.63E-04,  avg # of iterations =  2.0

     total cpu time spent up to now is        5.8 secs

     total energy              =    -501.45720510 Ry
     estimated scf accuracy    <       0.10328125 Ry

     iteration #  7     ecut=    30.00 Ry     beta= 0.50
     Davidson diagonalization with overlap
     ethr =  4.03E-05,  avg # of iterations =  2.0

     total cpu time spent up to now is        5.9 secs

     total energy              =    -501.46620319 Ry
     estimated scf accuracy    <       0.01820062 Ry

     iteration #  8     ecut=    30.00 Ry     beta= 0.50
     Davidson diagonalization with overlap
     ethr =  7.11E-06,  avg # of iterations = 17.0

     total cpu time spent up to now is        6.1 secs

     total energy              =    -501.46878954 Ry
     estimated scf accuracy    <       0.01628526 Ry

     iteration #  9     ecut=    30.00 Ry     beta= 0.50
     Davidson diagonalization with overlap
     ethr =  6.36E-06,  avg # of iterations =  2.0

     total cpu time spent up to now is        6.2 secs

     total energy              =    -501.47008778 Ry
     estimated scf accuracy    <       0.00110165 Ry

     iteration # 10     ecut=    30.00 Ry     beta= 0.50
     Davidson diagonalization with overlap
     ethr =  4.30E-07,  avg # of iterations =  8.0

     total cpu time spent up to now is        6.3 secs

     total energy              =    -501.47031394 Ry
     estimated scf accuracy    <       0.00032918 Ry

     iteration # 11     ecut=    30.00 Ry     beta= 0.50
     Davidson diagonalization with overlap
     ethr =  1.29E-07,  avg # of iterations =  3.0

     total cpu time spent up to now is        6.4 secs

     total energy              =    -501.47031832 Ry
     estimated scf accuracy    <       0.00033542 Ry

     iteration # 12     ecut=    30.00 Ry     beta= 0.50
     Davidson diagonalization with overlap
     ethr =  1.29E-07,  avg # of iterations =  3.0

     total cpu time spent up to now is        6.5 secs

     total energy              =    -501.47034429 Ry
     estimated scf accuracy    <       0.00036610 Ry

     iteration # 13     ecut=    30.00 Ry     beta= 0.50
     Davidson diagonalization with overlap
     ethr =  1.29E-07,  avg # of iterations =  1.0

     total cpu time spent up to now is        6.6 secs

     total energy              =    -501.47037077 Ry
     estimated scf accuracy    <       0.00001861 Ry

     iteration # 14     ecut=    30.00 Ry     beta= 0.50
     Davidson diagonalization with overlap
     ethr =  7.27E-09,  avg # of iterations =  4.0

     total cpu time spent up to now is        6.7 secs

     total energy              =    -501.47037303 Ry
     estimated scf accuracy    <       0.00002696 Ry

     iteration # 15     ecut=    30.00 Ry     beta= 0.50
     Davidson diagonalization with overlap
     ethr =  7.27E-09,  avg # of iterations =  2.0

     total cpu time spent up to now is        6.8 secs

     total energy              =    -501.47037443 Ry
     estimated scf accuracy    <       0.00000823 Ry

     iteration # 16     ecut=    30.00 Ry     beta= 0.50
     Davidson diagonalization with overlap
     ethr =  3.21E-09,  avg # of iterations =  3.0

     total cpu time spent up to now is        6.9 secs

     total energy              =    -501.47037490 Ry
     estimated scf accuracy    <       0.00001358 Ry

     iteration # 17     ecut=    30.00 Ry     beta= 0.50
     Davidson diagonalization with overlap
     ethr =  3.21E-09,  avg # of iterations =  2.0

     total cpu time spent up to now is        7.0 secs

     total energy              =    -501.47037564 Ry
     estimated scf accuracy    <       0.00000290 Ry

     iteration # 18     ecut=    30.00 Ry     beta= 0.50
     Davidson diagonalization with overlap
     ethr =  1.13E-09,  avg # of iterations =  2.0

     total cpu time spent up to now is        7.1 secs

     total energy              =    -501.47037590 Ry
     estimated scf accuracy    <       0.00000108 Ry

     iteration # 19     ecut=    30.00 Ry     beta= 0.50
     Davidson diagonalization with overlap
     ethr =  4.21E-10,  avg # of iterations =  2.0

     total cpu time spent up to now is        7.2 secs

     End of self-consistent calculation

          k = 0.0000 0.0000 0.0000 ( 11288 PWs)   bands (ev):

    -5.2377  -4.3025  -4.1231  -4.0776  -4.0505  -3.8856  -3.8066  -3.2387
    -3.1137  -3.0572  -2.9721  -2.9179  -2.8394  -2.7678  -2.7401  -2.7151
    -2.6837  -2.6191  -2.3880  -2.0738  -1.8975  -1.8567  -1.8067  -1.5775
    -1.5006  -1.4123  -1.2569  -0.8198  -0.6192  -0.5878  -0.5325  -0.4335
    -0.1597  -0.1005   0.0070   0.0854   0.1774   0.2921   0.3762   0.3883
     0.4938   0.5387   0.6204   0.6804   0.7844   0.8327   0.9291   1.0219
     1.1139   1.1527   1.2483   1.3771   1.4366   1.5723   1.7429   1.7641
     1.8175   1.9759   2.0562   2.1415   2.2297   2.2959   2.3128   2.5761
     2.5895   2.7029   2.7436   2.7901   2.9091   2.9274   3.0371   3.0711
     3.1283   3.2145   3.3051   3.3406   3.4114   3.4851   3.5700   3.6634
     3.8647   4.2120   4.3554   4.4748   4.5154   4.6350   4.6966   4.7969
     4.8745   4.9243   4.9973   5.0601   5.1205   5.2474   5.2599   5.2962
     5.3676   5.4536   5.5276   5.6099   5.6542   5.6878   5.6985   5.7957
     5.8494   5.9141   5.9548   5.9822   5.9974   6.0750   6.1038   6.2081
     6.2814   6.3418   6.4276   6.4542   6.5134   6.6030   6.6214   6.6617
     6.7474   6.7608   6.8784   6.9540   6.9734   6.9833   7.1294   7.1420
     7.2142   7.2622   7.3617   7.4117   7.4504   7.5474   7.5987   7.6229
     7.7399   7.7601   7.7976   7.8664   7.9299   7.9794   8.0080   8.1057
     8.1743   8.2471   8.2915   8.3450   8.4324   8.5593   8.5998   8.6846
     8.7531   8.7998

     the Fermi energy is     7.1890 ev

!    total energy              =    -501.47037596 Ry
     estimated scf accuracy    <       0.00000008 Ry
     smearing contrib. (-TS)   =      -0.14770262 Ry
     internal energy E=F+TS    =    -501.32267333 Ry

     The total energy is F=E-TS. E is the sum of the following terms:
     one-electron contribution =     198.01136376 Ry
     hartree contribution      =      19.94000122 Ry
     xc contribution           =    -150.76740419 Ry
     ewald contribution        =    -568.50663412 Ry

     convergence has been achieved in  19 iterations

     Forces acting on atoms (cartesian axes, Ry/au):

     atom    1 type  1   force =     0.01551455    0.01603261    0.01630980
     atom    2 type  1   force =     0.01436641    0.03697668    0.00447586
     atom    3 type  1   force =    -0.00213240    0.01243108    0.00658004
     atom    4 type  1   force =    -0.03755496    0.00942667    0.03425152
     atom    5 type  1   force =     0.00451241   -0.09110132   -0.03107313
     atom    6 type  1   force =    -0.00000198   -0.00062746    0.00858774
     atom    7 type  1   force =     0.01380931   -0.01539372   -0.00852192
     atom    8 type  1   force =    -0.02964978    0.00684606    0.00274030
     atom    9 type  1   force =    -0.00054597    0.02735337    0.00858889
     atom   10 type  1   force =     0.01055920   -0.01393729    0.03058234
     atom   11 type  1   force =    -0.00002031   -0.00742856   -0.00205619
     atom   12 type  1   force =     0.03555557    0.02424248    0.03776596
     atom   13 type  1   force =    -0.00121263    0.03468929    0.02526898
     atom   14 type  1   force =     0.00856781    0.00394068    0.01816958
     atom   15 type  1   force =    -0.01144812   -0.03302192   -0.04902597
     atom   16 type  1   force =     0.01759182    0.03141984    0.02026551
     atom   17 type  1   force =     0.02091303    0.00282696   -0.01300373
     atom   18 type  1   force =     0.01058065   -0.00809045    0.01341307
     atom   19 type  1   force =    -0.00153075   -0.01363066   -0.00310049
     atom   20 type  1   force =     0.04001464   -0.01961317    0.00445259
     atom   21 type  1   force =     0.05799672   -0.02273115    0.01822354
     atom   22 type  1   force =    -0.00305487    0.00503833   -0.00235741
     atom   23 type  1   force =    -0.01308751    0.00297780    0.01611184
     atom   24 type  1   force =    -0.01049623   -0.01888999   -0.03062266
     atom   25 type  1   force =     0.00458671    0.00041246   -0.00579293
     atom   26 type  1   force =    -0.01584352   -0.01286998    0.04448371
     atom   27 type  1   force =     0.01639036   -0.00542828   -0.00819464
     atom   28 type  1   force =    -0.07086293    0.01139089    0.04708496
     atom   29 type  1   force =     0.02076195    0.03333365    0.00049051
     atom   30 type  1   force =    -0.02791576   -0.02564529   -0.01418567
     atom   31 type  1   force =     0.01199504   -0.01246775   -0.00345294
     atom   32 type  1   force =    -0.01773219   -0.00600888    0.00911181
     atom   33 type  1   force =    -0.00584127    0.02393662    0.00868500
     atom   34 type  1   force =    -0.03439515    0.00120997    0.01338835
     atom   35 type  1   force =     0.07451419    0.03003462    0.00745249
     atom   36 type  1   force =    -0.02262132    0.01556603   -0.03332741
     atom   37 type  1   force =     0.03257964    0.06830704   -0.02646175
     atom   38 type  1   force =    -0.00867080   -0.01375566    0.01143511
     atom   39 type  1   force =    -0.01444503    0.01468737   -0.02908085
     atom   40 type  1   force =     0.01110879    0.03465681    0.03657669
     atom   41 type  1   force =    -0.04393610    0.00886642   -0.01092646
     atom   42 type  1   force =    -0.00422130   -0.01010368   -0.01468780
     atom   43 type  1   force =     0.00317338    0.02149899   -0.04791516
     atom   44 type  1   force =    -0.00686749    0.01745912    0.00557191
     atom   45 type  1   force =    -0.03508288   -0.02033809    0.01365598
     atom   46 type  1   force =    -0.00538835    0.03460120   -0.05102854
     atom   47 type  1   force =    -0.08547198   -0.00685345   -0.03674600
     atom   48 type  1   force =    -0.01793927    0.01121419   -0.00021095
     atom   49 type  1   force =    -0.03156814    0.03013871    0.01007163
     atom   50 type  1   force =    -0.00757180   -0.05991462   -0.02520732
     atom   51 type  1   force =     0.01904671    0.01994636   -0.01469424
     atom   52 type  1   force =     0.01850115   -0.02083790    0.01314835
     atom   53 type  1   force =    -0.04747754   -0.07660191    0.02147996
     atom   54 type  1   force =     0.02269716   -0.02061144    0.00053999
     atom   55 type  1   force =     0.08100386   -0.01976428   -0.03422257
     atom   56 type  1   force =     0.03482091    0.05099806   -0.00824307
     atom   57 type  1   force =     0.02031039    0.01093262    0.00059697
     atom   58 type  1   force =     0.02172522   -0.00734157    0.03063536
     atom   59 type  1   force =     0.00865434   -0.01437413   -0.00608990
     atom   60 type  1   force =    -0.02375574   -0.04428859   -0.02067562
     atom   61 type  1   force =    -0.01841118   -0.01370701    0.00478341
     atom   62 type  1   force =     0.01053349   -0.01869820    0.02364245
     atom   63 type  1   force =     0.01581832   -0.01279778   -0.00242699
     atom   64 type  1   force =    -0.02144851    0.01348121   -0.03528986

     Total force =     0.364546     Total SCF correction =     0.000529


     Computing stress (Cartesian axis) and pressure

          total   stress  (Ry/bohr**3)                   (kbar)     P=      -31.84
  -0.00013699   0.00004020  -0.00002859          -20.15        5.91       -4.21
   0.00004020  -0.00027139  -0.00007896            5.91      -39.92      -11.62
  -0.00002859  -0.00007896  -0.00024095           -4.21      -11.62      -35.44

 
     init_run     :      1.08s CPU      4.95s WALL (       1 calls)
     electrons    :      2.01s CPU      2.19s WALL (       1 calls)
     forces       :      0.03s CPU      0.04s WALL (       1 calls)
     stress       :      0.15s CPU      0.16s WALL (       1 calls)

     Called by init_run:
     wfcinit      :      0.54s CPU      4.23s WALL (       1 calls)
                                        4.23s GPU  (       1 calls)
     potinit      :      0.05s CPU      0.15s WALL (       1 calls)
     hinit0       :      0.47s CPU      0.50s WALL (       1 calls)

     Called by electrons:
     c_bands      :      1.21s CPU      1.29s WALL (      20 calls)
     sum_band     :      0.38s CPU      0.44s WALL (      20 calls)
     v_of_rho     :      0.19s CPU      0.30s WALL (      20 calls)
     mix_rho      :      0.19s CPU      0.21s WALL (      20 calls)

     Called by c_bands:
     init_us_2    :      0.07s CPU      0.08s WALL (      41 calls)
     init_us_2:gp :      0.07s CPU      0.08s WALL (      41 calls)
     regterg      :      1.04s CPU      1.11s WALL (      20 calls)

     Called by *egterg:
     rdiaghg      :      0.42s CPU      1.19s WALL (      92 calls)
                                        1.17s GPU  (      92 calls)
     h_psi        :      0.96s CPU      3.94s WALL (      94 calls)
                                        3.94s GPU  (      94 calls)
     g_psi        :      0.00s CPU      0.00s WALL (      73 calls)
                                        0.00s GPU  (      73 calls)

     Called by h_psi:
     h_psi:calbec :      0.51s CPU      3.40s WALL (      94 calls)
                                        3.40s GPU  (      94 calls)
     vloc_psi     :      0.40s CPU      0.47s WALL (      94 calls)
                                        0.47s GPU  (      94 calls)
     add_vuspsi   :      0.04s CPU      0.05s WALL (      94 calls)
                                        0.05s GPU  (      94 calls)

     General routines
     calbec       :      0.52s CPU      3.40s WALL (      99 calls)
     fft          :      0.63s CPU      0.76s WALL (     167 calls)
                                        0.14s GPU  (     106 calls)
     ffts         :      0.05s CPU      0.05s WALL (      20 calls)
     fftw         :      0.48s CPU      0.63s WALL (    2110 calls)
                                        0.55s GPU  (    2110 calls)
 
     Parallel routines
 
     PWSCF        :      3.32s CPU      7.42s WALL

 
   This run was terminated on:  11: 8:42  10May2023            

=------------------------------------------------------------------------------=
   JOB DONE.
=------------------------------------------------------------------------------=
