
     Program PWSCF v.7.1 starts on 10May2023 at 11: 5:59 

     This program is part of the open-source Quantum ESPRESSO suite
     for quantum simulation of materials; please cite
         "P. Giannozzi et al., J. Phys.:Condens. Matter 21 395502 (2009);
         "P. Giannozzi et al., J. Phys.:Condens. Matter 29 465901 (2017);
         "P. Giannozzi et al., J. Chem. Phys. 152 154105 (2020);
          URL http://www.quantum-espresso.org", 
     in publications or presentations arising from this work. More details at
     http://www.quantum-espresso.org/quote

     Parallel version (MPI & OpenMP), running on       4 processor cores
     Number of MPI processes:                 4
     Threads/MPI process:                     1

     MPI processes distributed on     1 nodes
     753571 MiB available memory on the printing compute node when the environment starts
 
     Reading input from pw-si-74.in
Warning: card &CELL ignored
Warning: card / ignored

     Current dimensions of program PWSCF are:
     Max number of different atomic species (ntypx) = 10
     Max number of k-points (npk) =  40000
     Max angular momentum in pseudopotentials (lmaxx) =  4

     IMPORTANT: XC functional enforced from input :
     Exchange-correlation= PBE
                           (   1   4   3   4   0   0   0)
     Any further DFT definition will be discarded
     Please, verify this is what you really want


     gamma-point specific algorithms are used
 
     K-points division:     npool     =       2
     R & G space division:  proc/nbgrp/npool/nimage =       2
     Subspace diagonalization in iterative solution of the eigenvalue problem:
     a serial algorithm will be used

     Message from routine divide_et_impera:
     suboptimal parallelization: some nodes have no k-points
 
     Parallelization info
     --------------------
     sticks:   dense  smooth     PW     G-vecs:    dense   smooth      PW
     Min        1983    1983    519                93681    93681   12703
     Max        1986    1986    522                93686    93686   12710
     Sum        3969    3969   1041               187367   187367   25413
 
     Using Slab Decomposition
 


     bravais-lattice index     =            0
     lattice parameter (alat)  =      20.3554  a.u.
     unit-cell volume          =    8434.1617 (a.u.)^3
     number of atoms/cell      =           64
     number of atomic types    =            1
     number of electrons       =       256.00
     number of Kohn-Sham states=          154
     kinetic-energy cutoff     =      30.0000  Ry
     charge density cutoff     =     120.0000  Ry
     scf convergence threshold =      1.0E-06
     mixing beta               =       0.5000
     number of iterations used =            8  plain     mixing
     Exchange-correlation= PBE
                           (   1   4   3   4   0   0   0)

     GPU acceleration is ACTIVE.
     GPU-aware MPI enabled

     Message from routine print_cuda_info:
     High GPU oversubscription detected. Are you sure this is what you want?

     celldm(1)=  20.355447  celldm(2)=   0.000000  celldm(3)=   0.000000
     celldm(4)=   0.000000  celldm(5)=   0.000000  celldm(6)=   0.000000

     crystal axes: (cart. coord. in units of alat)
               a(1) = (   1.000000   0.000000   0.000000 )  
               a(2) = (   0.000000   1.000000   0.000000 )  
               a(3) = (   0.000000   0.000000   1.000000 )  

     reciprocal axes: (cart. coord. in units 2 pi/alat)
               b(1) = (  1.000000  0.000000  0.000000 )  
               b(2) = (  0.000000  1.000000  0.000000 )  
               b(3) = (  0.000000  0.000000  1.000000 )  


     PseudoPot. # 1 for Si read from file:
     /home/ppiaggi/pseudos/Si_ONCV_PBE_sr.upf
     MD5 check sum: 8553c464762ac42b85b1eed164b4d029
     Pseudo is Norm-conserving, Zval =  4.0
     Generated using ONCVPSP code by D. R. Hamann
     Using radial grid of 1510 points,  4 beta functions with: 
                l(1) =   0
                l(2) =   0
                l(3) =   1
                l(4) =   1

     atomic species   valence    mass     pseudopotential
        Si             4.00    28.08500     Si( 1.00)

     No symmetry found



   Cartesian axes

     site n.     atom                  positions (alat units)
         1           Si  tau(   1) = (   0.6279950   0.7778440   0.6783420  )
         2           Si  tau(   2) = (   0.6796370   0.7149340   0.1403050  )
         3           Si  tau(   3) = (   0.5080170   0.0774721   0.2638280  )
         4           Si  tau(   4) = (   0.5114150   0.3425230   0.0981336  )
         5           Si  tau(   5) = (   0.3119220   0.6189140   0.5837160  )
         6           Si  tau(   6) = (   0.9922840   0.6976060   0.4185820  )
         7           Si  tau(   7) = (   0.4628620   0.1127310   0.9185830  )
         8           Si  tau(   8) = (   0.1651490   0.1254510   0.0970749  )
         9           Si  tau(   9) = (   0.0877591   0.4539090   0.1418250  )
        10           Si  tau(  10) = (   0.3404750   0.2118170   0.1915500  )
        11           Si  tau(  11) = (   0.1644870   0.3721510   0.5331020  )
        12           Si  tau(  12) = (   0.7221890   0.7207830   0.4526630  )
        13           Si  tau(  13) = (   0.6797060   0.3517670   0.2509990  )
        14           Si  tau(  14) = (   0.0254906   0.7516230   0.6586950  )
        15           Si  tau(  15) = (   0.5705240   0.6868910   0.3116180  )
        16           Si  tau(  16) = (   0.8971580   0.3418700   0.3822360  )
        17           Si  tau(  17) = (   0.3300240   0.8545080   0.2784260  )
        18           Si  tau(  18) = (   0.0790617   0.9359160   0.2255670  )
        19           Si  tau(  19) = (   0.7669470   0.9971960   0.3459800  )
        20           Si  tau(  20) = (   0.3216110   0.4680350   0.1714630  )
        21           Si  tau(  21) = (   0.0582172   0.3157250   0.8972510  )
        22           Si  tau(  22) = (   0.2028390   0.5249360   0.9186850  )
        23           Si  tau(  23) = (   0.3296090   0.6253720   0.3626600  )
        24           Si  tau(  24) = (   0.1761240   0.8470120   0.0302563  )
        25           Si  tau(  25) = (   0.0567488   0.6785770   0.9787070  )
        26           Si  tau(  26) = (   0.2156580   0.7349620   0.7666540  )
        27           Si  tau(  27) = (   0.4986000   0.1514060   0.5096860  )
        28           Si  tau(  28) = (   0.9636130   0.5345160   0.7037360  )
        29           Si  tau(  29) = (   0.8796370   0.8212260   0.2397930  )
        30           Si  tau(  30) = (   0.9765690   0.2750840   0.6655020  )
        31           Si  tau(  31) = (   0.2831810   0.1216560   0.6111310  )
        32           Si  tau(  32) = (   0.9213710   0.5907390   0.1687590  )
        33           Si  tau(  33) = (   0.8399550   0.5189030   0.5212900  )
        34           Si  tau(  34) = (   0.4773600   0.5859630   0.7214390  )
        35           Si  tau(  35) = (   0.0833386   0.0782184   0.5554530  )
        36           Si  tau(  36) = (   0.6488200   0.5694970   0.9849610  )
        37           Si  tau(  37) = (   0.5085000   0.4569340   0.3599190  )
        38           Si  tau(  38) = (   0.4890600   0.3134910   0.6795350  )
        39           Si  tau(  39) = (   0.3776340   0.8856570   0.6165890  )
        40           Si  tau(  40) = (   0.7083480   0.2234240   0.4759450  )
        41           Si  tau(  41) = (   0.7635540   0.1116180   0.1538120  )
        42           Si  tau(  42) = (   0.5759460   0.2748230   0.8994220  )
        43           Si  tau(  43) = (   0.5367920   0.9114200   0.4328830  )
        44           Si  tau(  44) = (   0.9618840   0.2447640   0.1653660  )
        45           Si  tau(  45) = (   0.7678400   0.9099240   0.0177027  )
        46           Si  tau(  46) = (   0.9606530   0.9891140   0.7150820  )
        47           Si  tau(  47) = (   0.5547500   0.9699240   0.0643392  )
        48           Si  tau(  48) = (   0.1740590   0.8570860   0.4671390  )
        49           Si  tau(  49) = (   0.4089410   0.7841150   0.0927605  )
        50           Si  tau(  50) = (   0.4361270   0.5940120   0.9504320  )
        51           Si  tau(  51) = (   0.8084040   0.4191800   0.0749890  )
        52           Si  tau(  52) = (   0.6065590   0.4686260   0.5644870  )
        53           Si  tau(  53) = (   0.7784810   0.1500990   0.6845220  )
        54           Si  tau(  54) = (   0.5812470   0.0100083   0.7264350  )
        55           Si  tau(  55) = (   0.9361130   0.0759731   0.9371820  )
        56           Si  tau(  56) = (   0.2466620   0.1759600   0.8607390  )
        57           Si  tau(  57) = (   0.8097520   0.2737830   0.9154920  )
        58           Si  tau(  58) = (   0.8525870   0.6596110   0.8958880  )
        59           Si  tau(  59) = (   0.3467450   0.2933910   0.4030770  )
        60           Si  tau(  60) = (   0.9766730   0.0878476   0.3680420  )
        61           Si  tau(  61) = (   0.1749880   0.9746840   0.8344950  )
        62           Si  tau(  62) = (   0.1284230   0.5156560   0.3660320  )
        63           Si  tau(  63) = (   0.2825540   0.4013030   0.7290200  )
        64           Si  tau(  64) = (   0.8225980   0.8387540   0.7879190  )

     number of k points=     1  Fermi-Dirac smearing, width (Ry)=  0.0100
                       cart. coord. in units 2pi/alat
        k(    1) = (   0.0000000   0.0000000   0.0000000), wk =   2.0000000

     Dense  grid:    93684 G-vectors     FFT dimensions: (  72,  72,  72)

     Estimated max dynamical RAM per process >     149.77 MB

     Estimated total dynamical RAM >     576.21 MB

     Initial potential from superposition of free atoms

     starting charge     255.9608, renormalised to     256.0000
     Starting wfcs are  256 randomized atomic wfcs

     total cpu time spent up to now is        5.0 secs

     Self-consistent Calculation

     iteration #  1     ecut=    30.00 Ry     beta= 0.50
     Davidson diagonalization with overlap
     ethr =  1.00E-02,  avg # of iterations =  3.0

     Threshold (ethr) on eigenvalues was too large:
     Diagonalizing with lowered threshold

     Davidson diagonalization with overlap
     ethr =  3.86E-04,  avg # of iterations =  4.0

     total cpu time spent up to now is        5.3 secs

     total energy              =    -501.34535468 Ry
     estimated scf accuracy    <       1.17337732 Ry

     iteration #  2     ecut=    30.00 Ry     beta= 0.50
     Davidson diagonalization with overlap
     ethr =  4.58E-04,  avg # of iterations =  5.0

     total cpu time spent up to now is        5.4 secs

     total energy              =    -500.94232109 Ry
     estimated scf accuracy    <       4.14763171 Ry

     iteration #  3     ecut=    30.00 Ry     beta= 0.50
     Davidson diagonalization with overlap
     ethr =  4.58E-04,  avg # of iterations =  4.0

     total cpu time spent up to now is        5.5 secs

     total energy              =    -501.34767154 Ry
     estimated scf accuracy    <       2.19930650 Ry

     iteration #  4     ecut=    30.00 Ry     beta= 0.50
     Davidson diagonalization with overlap
     ethr =  4.58E-04,  avg # of iterations =  2.0

     total cpu time spent up to now is        5.6 secs

     total energy              =    -501.47626425 Ry
     estimated scf accuracy    <       0.65438339 Ry

     iteration #  5     ecut=    30.00 Ry     beta= 0.50
     Davidson diagonalization with overlap
     ethr =  2.56E-04,  avg # of iterations =  2.0

     total cpu time spent up to now is        5.7 secs

     total energy              =    -501.51279516 Ry
     estimated scf accuracy    <       0.46105374 Ry

     iteration #  6     ecut=    30.00 Ry     beta= 0.50
     Davidson diagonalization with overlap
     ethr =  1.80E-04,  avg # of iterations =  2.0

     total cpu time spent up to now is        5.8 secs

     total energy              =    -501.55691961 Ry
     estimated scf accuracy    <       0.05199615 Ry

     iteration #  7     ecut=    30.00 Ry     beta= 0.50
     Davidson diagonalization with overlap
     ethr =  2.03E-05,  avg # of iterations =  2.0

     total cpu time spent up to now is        5.9 secs

     total energy              =    -501.56346779 Ry
     estimated scf accuracy    <       0.01860307 Ry

     iteration #  8     ecut=    30.00 Ry     beta= 0.50
     Davidson diagonalization with overlap
     c_bands:  1 eigenvalues not converged
     ethr =  7.27E-06,  avg # of iterations = 20.0

     total cpu time spent up to now is        6.1 secs

     total energy              =    -501.56516944 Ry
     estimated scf accuracy    <       0.02053128 Ry

     iteration #  9     ecut=    30.00 Ry     beta= 0.50
     Davidson diagonalization with overlap
     c_bands:  1 eigenvalues not converged
     ethr =  7.27E-06,  avg # of iterations = 20.0

     total cpu time spent up to now is        6.3 secs

     total energy              =    -501.56669045 Ry
     estimated scf accuracy    <       0.00170418 Ry

     iteration # 10     ecut=    30.00 Ry     beta= 0.50
     Davidson diagonalization with overlap
     ethr =  6.66E-07,  avg # of iterations =  8.0

     total cpu time spent up to now is        6.4 secs

     total energy              =    -501.56686202 Ry
     estimated scf accuracy    <       0.00234619 Ry

     iteration # 11     ecut=    30.00 Ry     beta= 0.50
     Davidson diagonalization with overlap
     ethr =  6.66E-07,  avg # of iterations =  2.0

     total cpu time spent up to now is        6.5 secs

     total energy              =    -501.56704171 Ry
     estimated scf accuracy    <       0.00035576 Ry

     iteration # 12     ecut=    30.00 Ry     beta= 0.50
     Davidson diagonalization with overlap
     ethr =  1.39E-07,  avg # of iterations =  2.0

     total cpu time spent up to now is        6.6 secs

     total energy              =    -501.56708255 Ry
     estimated scf accuracy    <       0.00019400 Ry

     iteration # 13     ecut=    30.00 Ry     beta= 0.50
     Davidson diagonalization with overlap
     ethr =  7.58E-08,  avg # of iterations =  2.0

     total cpu time spent up to now is        6.7 secs

     total energy              =    -501.56709344 Ry
     estimated scf accuracy    <       0.00021050 Ry

     iteration # 14     ecut=    30.00 Ry     beta= 0.50
     Davidson diagonalization with overlap
     ethr =  7.58E-08,  avg # of iterations =  1.0

     total cpu time spent up to now is        6.8 secs

     total energy              =    -501.56710549 Ry
     estimated scf accuracy    <       0.00002078 Ry

     iteration # 15     ecut=    30.00 Ry     beta= 0.50
     Davidson diagonalization with overlap
     ethr =  8.12E-09,  avg # of iterations =  4.0

     total cpu time spent up to now is        6.9 secs

     total energy              =    -501.56710827 Ry
     estimated scf accuracy    <       0.00002911 Ry

     iteration # 16     ecut=    30.00 Ry     beta= 0.50
     Davidson diagonalization with overlap
     ethr =  8.12E-09,  avg # of iterations =  2.0

     total cpu time spent up to now is        7.0 secs

     total energy              =    -501.56711041 Ry
     estimated scf accuracy    <       0.00000556 Ry

     iteration # 17     ecut=    30.00 Ry     beta= 0.50
     Davidson diagonalization with overlap
     ethr =  2.17E-09,  avg # of iterations =  2.0

     total cpu time spent up to now is        7.1 secs

     total energy              =    -501.56711088 Ry
     estimated scf accuracy    <       0.00000171 Ry

     iteration # 18     ecut=    30.00 Ry     beta= 0.50
     Davidson diagonalization with overlap
     ethr =  6.69E-10,  avg # of iterations =  2.0

     total cpu time spent up to now is        7.2 secs

     total energy              =    -501.56711101 Ry
     estimated scf accuracy    <       0.00000178 Ry

     iteration # 19     ecut=    30.00 Ry     beta= 0.50
     Davidson diagonalization with overlap
     ethr =  6.69E-10,  avg # of iterations =  2.0

     total cpu time spent up to now is        7.3 secs

     End of self-consistent calculation

          k = 0.0000 0.0000 0.0000 ( 11720 PWs)   bands (ev):

    -5.5682  -4.6956  -4.6339  -4.5207  -4.3856  -4.2069  -4.0694  -3.7759
    -3.6550  -3.5181  -3.4291  -3.3578  -3.3332  -3.3028  -3.1250  -3.0466
    -2.9213  -2.8192  -2.7250  -2.4970  -2.3355  -2.2492  -2.1459  -2.0783
    -2.0356  -1.8371  -1.4502  -1.2849  -1.1059  -0.9947  -0.9017  -0.7492
    -0.6604  -0.5013  -0.3849  -0.3563  -0.3004  -0.2544  -0.1520  -0.0547
     0.0271   0.0978   0.1543   0.2131   0.2717   0.3477   0.4297   0.5661
     0.5912   0.7266   0.7996   0.9389   0.9807   1.0946   1.1601   1.2326
     1.3539   1.4432   1.6181   1.7507   1.8758   1.9716   2.0746   2.1281
     2.2903   2.3394   2.3980   2.4960   2.5477   2.6415   2.6832   2.7427
     2.8362   2.8994   2.9514   3.1188   3.1808   3.2818   3.3019   3.4856
     3.6267   3.6787   3.8130   3.9321   4.0338   4.0958   4.1931   4.2800
     4.3089   4.3766   4.5020   4.5472   4.6358   4.6851   4.7395   4.8657
     4.8877   4.9617   4.9775   5.0324   5.0945   5.1708   5.2059   5.2346
     5.2894   5.3780   5.4295   5.4666   5.4878   5.5808   5.7439   5.7879
     5.8173   5.8656   5.9107   5.9633   5.9792   6.0171   6.0443   6.0825
     6.2114   6.3076   6.4043   6.4308   6.5158   6.6059   6.6909   6.7777
     6.7920   6.8253   6.8700   6.9041   6.9796   7.0214   7.1080   7.1755
     7.2441   7.2993   7.4079   7.4595   7.5293   7.6038   7.6065   7.6954
     7.8201   7.8573   7.9143   7.9985   8.0712   8.1120   8.1460   8.2177
     8.2800   8.3579

     the Fermi energy is     6.7396 ev

!    total energy              =    -501.56711101 Ry
     estimated scf accuracy    <       0.00000021 Ry
     smearing contrib. (-TS)   =      -0.14814979 Ry
     internal energy E=F+TS    =    -501.41896122 Ry

     The total energy is F=E-TS. E is the sum of the following terms:
     one-electron contribution =     171.80471993 Ry
     hartree contribution      =      28.58531816 Ry
     xc contribution           =    -150.29006495 Ry
     ewald contribution        =    -551.51893435 Ry

     convergence has been achieved in  19 iterations

     Forces acting on atoms (cartesian axes, Ry/au):

     atom    1 type  1   force =     0.01529877   -0.00500183   -0.02662926
     atom    2 type  1   force =     0.04234133    0.02223524   -0.02913175
     atom    3 type  1   force =     0.00650306   -0.02495674   -0.00978556
     atom    4 type  1   force =    -0.02507822    0.01560236    0.00941877
     atom    5 type  1   force =    -0.02237802    0.01281900    0.01706782
     atom    6 type  1   force =     0.00167785    0.00989649    0.01143338
     atom    7 type  1   force =    -0.04666961   -0.10159151   -0.02581596
     atom    8 type  1   force =    -0.04957652   -0.00088812   -0.01391460
     atom    9 type  1   force =     0.02195899   -0.01911324    0.00354993
     atom   10 type  1   force =     0.02445219    0.02590115    0.02548213
     atom   11 type  1   force =     0.00257968   -0.00614365    0.01313614
     atom   12 type  1   force =     0.02889068    0.01842878    0.07116114
     atom   13 type  1   force =     0.00309351   -0.02544988   -0.01023294
     atom   14 type  1   force =     0.00681469   -0.00538998   -0.03325398
     atom   15 type  1   force =    -0.07280121   -0.00445338    0.01432432
     atom   16 type  1   force =    -0.01569564    0.00154731    0.01480060
     atom   17 type  1   force =     0.00101745   -0.01600448    0.05521708
     atom   18 type  1   force =     0.03165543    0.00242962   -0.00091204
     atom   19 type  1   force =     0.00053675    0.00075315    0.01955207
     atom   20 type  1   force =     0.00653994   -0.00586905   -0.00609493
     atom   21 type  1   force =     0.00197784    0.00165836   -0.02465186
     atom   22 type  1   force =     0.01129975   -0.02474526   -0.00998504
     atom   23 type  1   force =    -0.00999100    0.00618009   -0.01242284
     atom   24 type  1   force =     0.03626935    0.03730775    0.00349548
     atom   25 type  1   force =    -0.02247657   -0.02809407    0.01700153
     atom   26 type  1   force =     0.00566949    0.00005796   -0.01638415
     atom   27 type  1   force =    -0.02246517   -0.00765248    0.00840745
     atom   28 type  1   force =    -0.02112249    0.00512221    0.01907496
     atom   29 type  1   force =    -0.00850908   -0.01830165    0.01560072
     atom   30 type  1   force =     0.03602460    0.01062919    0.00521207
     atom   31 type  1   force =     0.03505777   -0.02360580    0.01284973
     atom   32 type  1   force =    -0.00603114    0.02461349   -0.01820806
     atom   33 type  1   force =    -0.03190305   -0.00360930   -0.01153593
     atom   34 type  1   force =     0.03507578    0.02216186    0.00199085
     atom   35 type  1   force =    -0.00358593   -0.01275582   -0.00549177
     atom   36 type  1   force =     0.05438169   -0.02692945    0.00770848
     atom   37 type  1   force =     0.00092056    0.01856884    0.02501748
     atom   38 type  1   force =     0.01078385    0.01346998    0.02916433
     atom   39 type  1   force =    -0.00277565    0.02929582   -0.03504202
     atom   40 type  1   force =     0.02332880    0.00714858    0.00358721
     atom   41 type  1   force =    -0.00415367    0.01487117   -0.00135489
     atom   42 type  1   force =     0.07096022    0.08344959   -0.05629478
     atom   43 type  1   force =    -0.02265833   -0.01254937    0.00116605
     atom   44 type  1   force =     0.02589457   -0.00177887    0.01274272
     atom   45 type  1   force =     0.01288924    0.01866550   -0.00236371
     atom   46 type  1   force =     0.01017390    0.00717313    0.02494660
     atom   47 type  1   force =    -0.02497947   -0.01864077    0.00977811
     atom   48 type  1   force =    -0.01228537    0.00778450   -0.00088763
     atom   49 type  1   force =     0.00392165    0.01003915   -0.04693392
     atom   50 type  1   force =    -0.03240916    0.00210788    0.00093203
     atom   51 type  1   force =    -0.02619117    0.04244211    0.02463467
     atom   52 type  1   force =     0.01783539   -0.00908638   -0.01116703
     atom   53 type  1   force =    -0.00590633   -0.00654285    0.00402664
     atom   54 type  1   force =     0.00224971    0.01508885    0.00495855
     atom   55 type  1   force =    -0.02622960    0.01051712    0.00325385
     atom   56 type  1   force =     0.01130056   -0.00373492    0.00831235
     atom   57 type  1   force =    -0.00631344   -0.04436568   -0.03468027
     atom   58 type  1   force =     0.00554858   -0.04233576   -0.02337741
     atom   59 type  1   force =     0.00282850    0.00437553    0.00689807
     atom   60 type  1   force =    -0.01605114    0.01069317   -0.02910537
     atom   61 type  1   force =    -0.02697221   -0.04009684    0.00531287
     atom   62 type  1   force =    -0.01219857    0.01534896   -0.00953618
     atom   63 type  1   force =     0.01246034    0.00300857   -0.01346636
     atom   64 type  1   force =    -0.04280471    0.00829467    0.00744405

     Total force =     0.330425     Total SCF correction =     0.000839


     Computing stress (Cartesian axis) and pressure

          total   stress  (Ry/bohr**3)                   (kbar)     P=      -39.93
  -0.00026263   0.00005232   0.00006504          -38.63        7.70        9.57
   0.00005232  -0.00023786  -0.00005765            7.70      -34.99       -8.48
   0.00006504  -0.00005765  -0.00031386            9.57       -8.48      -46.17

 
     init_run     :      1.05s CPU      4.92s WALL (       1 calls)
     electrons    :      2.15s CPU      2.29s WALL (       1 calls)
     forces       :      0.04s CPU      0.04s WALL (       1 calls)
     stress       :      0.16s CPU      0.16s WALL (       1 calls)

     Called by init_run:
     wfcinit      :      0.52s CPU      4.20s WALL (       1 calls)
                                        4.20s GPU  (       1 calls)
     potinit      :      0.04s CPU      0.14s WALL (       1 calls)
     hinit0       :      0.47s CPU      0.50s WALL (       1 calls)

     Called by electrons:
     c_bands      :      1.30s CPU      1.36s WALL (      20 calls)
     sum_band     :      0.41s CPU      0.46s WALL (      20 calls)
     v_of_rho     :      0.18s CPU      0.30s WALL (      20 calls)
     mix_rho      :      0.20s CPU      0.21s WALL (      20 calls)

     Called by c_bands:
     init_us_2    :      0.07s CPU      0.08s WALL (      41 calls)
     init_us_2:gp :      0.07s CPU      0.07s WALL (      41 calls)
     regterg      :      1.13s CPU      1.18s WALL (      20 calls)

     Called by *egterg:
     rdiaghg      :      0.48s CPU      1.24s WALL (     110 calls)
                                        1.22s GPU  (     110 calls)
     h_psi        :      0.97s CPU      3.93s WALL (     112 calls)
                                        3.93s GPU  (     112 calls)
     g_psi        :      0.00s CPU      0.00s WALL (      91 calls)
                                        0.00s GPU  (      91 calls)

     Called by h_psi:
     h_psi:calbec :      0.50s CPU      3.38s WALL (     112 calls)
                                        3.38s GPU  (     112 calls)
     vloc_psi     :      0.40s CPU      0.47s WALL (     112 calls)
                                        0.46s GPU  (     112 calls)
     add_vuspsi   :      0.05s CPU      0.07s WALL (     112 calls)
                                        0.07s GPU  (     112 calls)

     General routines
     calbec       :      0.51s CPU      3.39s WALL (     117 calls)
     fft          :      0.63s CPU      0.77s WALL (     167 calls)
                                        0.13s GPU  (     106 calls)
     ffts         :      0.05s CPU      0.06s WALL (      20 calls)
     fftw         :      0.49s CPU      0.64s WALL (    2150 calls)
                                        0.56s GPU  (    2150 calls)
 
     Parallel routines
 
     PWSCF        :      3.45s CPU      7.51s WALL

 
   This run was terminated on:  11: 6: 6  10May2023            

=------------------------------------------------------------------------------=
   JOB DONE.
=------------------------------------------------------------------------------=
