An instance of this daemon is already running

     Program PWSCF v.7.1 starts on 10May2023 at 11: 6:57 

     This program is part of the open-source Quantum ESPRESSO suite
     for quantum simulation of materials; please cite
         "P. Giannozzi et al., J. Phys.:Condens. Matter 21 395502 (2009);
         "P. Giannozzi et al., J. Phys.:Condens. Matter 29 465901 (2017);
         "P. Giannozzi et al., J. Chem. Phys. 152 154105 (2020);
          URL http://www.quantum-espresso.org", 
     in publications or presentations arising from this work. More details at
     http://www.quantum-espresso.org/quote

     Parallel version (MPI & OpenMP), running on       4 processor cores
     Number of MPI processes:                 4
     Threads/MPI process:                     1

     MPI processes distributed on     1 nodes
     753559 MiB available memory on the printing compute node when the environment starts
 
     Reading input from pw-si-80.in
Warning: card &CELL ignored
Warning: card / ignored

     Current dimensions of program PWSCF are:
     Max number of different atomic species (ntypx) = 10
     Max number of k-points (npk) =  40000
     Max angular momentum in pseudopotentials (lmaxx) =  4

     IMPORTANT: XC functional enforced from input :
     Exchange-correlation= PBE
                           (   1   4   3   4   0   0   0)
     Any further DFT definition will be discarded
     Please, verify this is what you really want


     gamma-point specific algorithms are used
 
     K-points division:     npool     =       2
     R & G space division:  proc/nbgrp/npool/nimage =       2
     Subspace diagonalization in iterative solution of the eigenvalue problem:
     a serial algorithm will be used

     Message from routine divide_et_impera:
     suboptimal parallelization: some nodes have no k-points
 
     Parallelization info
     --------------------
     sticks:   dense  smooth     PW     G-vecs:    dense   smooth      PW
     Min        1972    1972    520                92819    92819   12668
     Max        1973    1973    521                92820    92820   12673
     Sum        3945    3945   1041               185639   185639   25341
 
     Using Slab Decomposition
 


     bravais-lattice index     =            0
     lattice parameter (alat)  =      20.2996  a.u.
     unit-cell volume          =    8364.9270 (a.u.)^3
     number of atoms/cell      =           64
     number of atomic types    =            1
     number of electrons       =       256.00
     number of Kohn-Sham states=          154
     kinetic-energy cutoff     =      30.0000  Ry
     charge density cutoff     =     120.0000  Ry
     scf convergence threshold =      1.0E-06
     mixing beta               =       0.5000
     number of iterations used =            8  plain     mixing
     Exchange-correlation= PBE
                           (   1   4   3   4   0   0   0)

     GPU acceleration is ACTIVE.
     GPU-aware MPI enabled

     Message from routine print_cuda_info:
     High GPU oversubscription detected. Are you sure this is what you want?

     celldm(1)=  20.299596  celldm(2)=   0.000000  celldm(3)=   0.000000
     celldm(4)=   0.000000  celldm(5)=   0.000000  celldm(6)=   0.000000

     crystal axes: (cart. coord. in units of alat)
               a(1) = (   1.000000   0.000000   0.000000 )  
               a(2) = (   0.000000   1.000000   0.000000 )  
               a(3) = (   0.000000   0.000000   1.000000 )  

     reciprocal axes: (cart. coord. in units 2 pi/alat)
               b(1) = (  1.000000  0.000000  0.000000 )  
               b(2) = (  0.000000  1.000000  0.000000 )  
               b(3) = (  0.000000  0.000000  1.000000 )  


     PseudoPot. # 1 for Si read from file:
     /home/ppiaggi/pseudos/Si_ONCV_PBE_sr.upf
     MD5 check sum: 8553c464762ac42b85b1eed164b4d029
     Pseudo is Norm-conserving, Zval =  4.0
     Generated using ONCVPSP code by D. R. Hamann
     Using radial grid of 1510 points,  4 beta functions with: 
                l(1) =   0
                l(2) =   0
                l(3) =   1
                l(4) =   1

     atomic species   valence    mass     pseudopotential
        Si             4.00    28.08500     Si( 1.00)

     No symmetry found



   Cartesian axes

     site n.     atom                  positions (alat units)
         1           Si  tau(   1) = (   0.2216530   0.5366940   0.3854030  )
         2           Si  tau(   2) = (   0.7138740   0.3907530   0.4245470  )
         3           Si  tau(   3) = (   0.2408780   0.2403520   0.3593950  )
         4           Si  tau(   4) = (   0.3020530   0.8974550   0.7359380  )
         5           Si  tau(   5) = (   0.6099580   0.4626080   0.6164610  )
         6           Si  tau(   6) = (   0.3570740   0.0188372   0.4026970  )
         7           Si  tau(   7) = (   0.0827057   0.9843720   0.4088730  )
         8           Si  tau(   8) = (   0.2591660   0.7563840   0.2804710  )
         9           Si  tau(   9) = (   0.7036030   0.6755760   0.9631790  )
        10           Si  tau(  10) = (   0.0395821   0.4073910   0.5289200  )
        11           Si  tau(  11) = (   0.6047270   0.1241310   0.3622630  )
        12           Si  tau(  12) = (   0.2416620   0.4337250   0.1929670  )
        13           Si  tau(  13) = (   0.4013790   0.1616080   0.1125430  )
        14           Si  tau(  14) = (   0.0730287   0.1296370   0.9292330  )
        15           Si  tau(  15) = (   0.5220280   0.2363850   0.7993980  )
        16           Si  tau(  16) = (   0.9847290   0.0219060   0.6846860  )
        17           Si  tau(  17) = (   0.8882220   0.8974580   0.3276860  )
        18           Si  tau(  18) = (   0.4864450   0.6411780   0.0312581  )
        19           Si  tau(  19) = (   0.9115030   0.7446150   0.1560860  )
        20           Si  tau(  20) = (   0.4017070   0.8360960   0.5403010  )
        21           Si  tau(  21) = (   0.5067520   0.9785950   0.2081890  )
        22           Si  tau(  22) = (   0.6134110   0.0900958   0.5938210  )
        23           Si  tau(  23) = (   0.4501490   0.6251540   0.7213170  )
        24           Si  tau(  24) = (   0.7257110   0.1886260   0.8565300  )
        25           Si  tau(  25) = (   0.9177780   0.6972390   0.4773660  )
        26           Si  tau(  26) = (   0.5308110   0.6433120   0.4229870  )
        27           Si  tau(  27) = (   0.9818540   0.1767440   0.2923690  )
        28           Si  tau(  28) = (   0.2146250   0.2741870   0.5945630  )
        29           Si  tau(  29) = (   0.3778540   0.0857041   0.9131420  )
        30           Si  tau(  30) = (   0.1810890   0.0572550   0.6450280  )
        31           Si  tau(  31) = (   0.2001660   0.9252380   0.9696820  )
        32           Si  tau(  32) = (   0.1332940   0.6801170   0.1151650  )
        33           Si  tau(  33) = (   0.7314830   0.5353010   0.8017010  )
        34           Si  tau(  34) = (   0.8369800   0.8971910   0.5795450  )
        35           Si  tau(  35) = (   0.6854430   0.3785580   0.9776460  )
        36           Si  tau(  36) = (   0.7581110   0.6055290   0.3549240  )
        37           Si  tau(  37) = (   0.8903860   0.2430580   0.4701380  )
        38           Si  tau(  38) = (   0.8327840   0.9039070   0.0239956  )
        39           Si  tau(  39) = (   0.7824470   0.0620211   0.2244940  )
        40           Si  tau(  40) = (   0.8800040   0.1530630   0.0293019  )
        41           Si  tau(  41) = (   0.5188030   0.8544660   0.8493810  )
        42           Si  tau(  42) = (   0.1924000   0.7134630   0.7348150  )
        43           Si  tau(  43) = (   0.1642380   0.7678410   0.4899430  )
        44           Si  tau(  44) = (   0.5846240   0.3283790   0.2351170  )
        45           Si  tau(  45) = (   0.1750840   0.3193100   0.8377790  )
        46           Si  tau(  46) = (   0.8314080   0.1696390   0.6648040  )
        47           Si  tau(  47) = (   0.4146590   0.3621930   0.5819550  )
        48           Si  tau(  48) = (   0.0049378   0.8662360   0.8570090  )
        49           Si  tau(  49) = (   0.0035920   0.5078050   0.3165090  )
        50           Si  tau(  50) = (   0.6094890   0.8756570   0.6598720  )
        51           Si  tau(  51) = (   0.9348080   0.3850430   0.1264420  )
        52           Si  tau(  52) = (   0.6221920   0.0082908   0.9701200  )
        53           Si  tau(  53) = (   0.9181050   0.3864780   0.8385490  )
        54           Si  tau(  54) = (   0.0141732   0.5345510   0.7122740  )
        55           Si  tau(  55) = (   0.1022080   0.4659430   0.0076511  )
        56           Si  tau(  56) = (   0.2146820   0.9793060   0.2052890  )
        57           Si  tau(  57) = (   0.3936010   0.4210220   0.8341750  )
        58           Si  tau(  58) = (   0.1677830   0.1892730   0.1310510  )
        59           Si  tau(  59) = (   0.2838400   0.6921860   0.9450680  )
        60           Si  tau(  60) = (   0.4449610   0.4675810   0.3640990  )
        61           Si  tau(  61) = (   0.7375940   0.5140090   0.1483770  )
        62           Si  tau(  62) = (   0.4514300   0.4236920   0.0549338  )
        63           Si  tau(  63) = (   0.4739830   0.7335060   0.2247310  )
        64           Si  tau(  64) = (   0.8965200   0.6949880   0.7137410  )

     number of k points=     1  Fermi-Dirac smearing, width (Ry)=  0.0100
                       cart. coord. in units 2pi/alat
        k(    1) = (   0.0000000   0.0000000   0.0000000), wk =   2.0000000

     Dense  grid:    92820 G-vectors     FFT dimensions: (  72,  72,  72)

     Estimated max dynamical RAM per process >     148.63 MB

     Estimated total dynamical RAM >     571.87 MB

     Initial potential from superposition of free atoms

     starting charge     255.9608, renormalised to     256.0000
     Starting wfcs are  256 randomized atomic wfcs

     total cpu time spent up to now is        5.0 secs

     Self-consistent Calculation

     iteration #  1     ecut=    30.00 Ry     beta= 0.50
     Davidson diagonalization with overlap
     ethr =  1.00E-02,  avg # of iterations =  3.0

     Threshold (ethr) on eigenvalues was too large:
     Diagonalizing with lowered threshold

     Davidson diagonalization with overlap
     ethr =  4.16E-04,  avg # of iterations =  4.0

     total cpu time spent up to now is        5.3 secs

     total energy              =    -501.24822740 Ry
     estimated scf accuracy    <       1.26062699 Ry

     iteration #  2     ecut=    30.00 Ry     beta= 0.50
     Davidson diagonalization with overlap
     ethr =  4.92E-04,  avg # of iterations =  3.0

     total cpu time spent up to now is        5.4 secs

     total energy              =    -500.93390209 Ry
     estimated scf accuracy    <       3.03845677 Ry

     iteration #  3     ecut=    30.00 Ry     beta= 0.50
     Davidson diagonalization with overlap
     ethr =  4.92E-04,  avg # of iterations =  3.0

     total cpu time spent up to now is        5.5 secs

     total energy              =    -501.17507601 Ry
     estimated scf accuracy    <       3.26516086 Ry

     iteration #  4     ecut=    30.00 Ry     beta= 0.50
     Davidson diagonalization with overlap
     ethr =  4.92E-04,  avg # of iterations =  2.0

     total cpu time spent up to now is        5.6 secs

     total energy              =    -501.37848214 Ry
     estimated scf accuracy    <       0.84042815 Ry

     iteration #  5     ecut=    30.00 Ry     beta= 0.50
     Davidson diagonalization with overlap
     ethr =  3.28E-04,  avg # of iterations =  2.0

     total cpu time spent up to now is        5.7 secs

     total energy              =    -501.42039461 Ry
     estimated scf accuracy    <       0.56346250 Ry

     iteration #  6     ecut=    30.00 Ry     beta= 0.50
     Davidson diagonalization with overlap
     ethr =  2.20E-04,  avg # of iterations =  2.0

     total cpu time spent up to now is        5.8 secs

     total energy              =    -501.47587768 Ry
     estimated scf accuracy    <       0.05504931 Ry

     iteration #  7     ecut=    30.00 Ry     beta= 0.50
     Davidson diagonalization with overlap
     ethr =  2.15E-05,  avg # of iterations =  2.0

     total cpu time spent up to now is        5.9 secs

     total energy              =    -501.48249064 Ry
     estimated scf accuracy    <       0.01562674 Ry

     iteration #  8     ecut=    30.00 Ry     beta= 0.50
     Davidson diagonalization with overlap
     ethr =  6.10E-06,  avg # of iterations = 16.0

     total cpu time spent up to now is        6.0 secs

     total energy              =    -501.48367866 Ry
     estimated scf accuracy    <       0.01986903 Ry

     iteration #  9     ecut=    30.00 Ry     beta= 0.50
     Davidson diagonalization with overlap
     ethr =  6.10E-06,  avg # of iterations =  2.0

     total cpu time spent up to now is        6.1 secs

     total energy              =    -501.48517030 Ry
     estimated scf accuracy    <       0.00279215 Ry

     iteration # 10     ecut=    30.00 Ry     beta= 0.50
     Davidson diagonalization with overlap
     ethr =  1.09E-06,  avg # of iterations =  3.0

     total cpu time spent up to now is        6.2 secs

     total energy              =    -501.48541236 Ry
     estimated scf accuracy    <       0.00224575 Ry

     iteration # 11     ecut=    30.00 Ry     beta= 0.50
     Davidson diagonalization with overlap
     ethr =  8.77E-07,  avg # of iterations =  2.0

     total cpu time spent up to now is        6.3 secs

     total energy              =    -501.48560875 Ry
     estimated scf accuracy    <       0.00033743 Ry

     iteration # 12     ecut=    30.00 Ry     beta= 0.50
     Davidson diagonalization with overlap
     ethr =  1.32E-07,  avg # of iterations =  4.0

     total cpu time spent up to now is        6.5 secs

     total energy              =    -501.48565336 Ry
     estimated scf accuracy    <       0.00012308 Ry

     iteration # 13     ecut=    30.00 Ry     beta= 0.50
     Davidson diagonalization with overlap
     ethr =  4.81E-08,  avg # of iterations =  3.0

     total cpu time spent up to now is        6.6 secs

     total energy              =    -501.48566116 Ry
     estimated scf accuracy    <       0.00014615 Ry

     iteration # 14     ecut=    30.00 Ry     beta= 0.50
     Davidson diagonalization with overlap
     ethr =  4.81E-08,  avg # of iterations =  2.0

     total cpu time spent up to now is        6.7 secs

     total energy              =    -501.48567112 Ry
     estimated scf accuracy    <       0.00001602 Ry

     iteration # 15     ecut=    30.00 Ry     beta= 0.50
     Davidson diagonalization with overlap
     ethr =  6.26E-09,  avg # of iterations =  4.0

     total cpu time spent up to now is        6.8 secs

     total energy              =    -501.48567207 Ry
     estimated scf accuracy    <       0.00004164 Ry

     iteration # 16     ecut=    30.00 Ry     beta= 0.50
     Davidson diagonalization with overlap
     ethr =  6.26E-09,  avg # of iterations =  3.0

     total cpu time spent up to now is        6.9 secs

     total energy              =    -501.48567493 Ry
     estimated scf accuracy    <       0.00000392 Ry

     iteration # 17     ecut=    30.00 Ry     beta= 0.50
     Davidson diagonalization with overlap
     ethr =  1.53E-09,  avg # of iterations =  3.0

     total cpu time spent up to now is        7.0 secs

     total energy              =    -501.48567513 Ry
     estimated scf accuracy    <       0.00000346 Ry

     iteration # 18     ecut=    30.00 Ry     beta= 0.50
     Davidson diagonalization with overlap
     ethr =  1.35E-09,  avg # of iterations =  2.0

     total cpu time spent up to now is        7.1 secs

     total energy              =    -501.48567536 Ry
     estimated scf accuracy    <       0.00000314 Ry

     iteration # 19     ecut=    30.00 Ry     beta= 0.50
     Davidson diagonalization with overlap
     ethr =  1.23E-09,  avg # of iterations =  1.0

     total cpu time spent up to now is        7.1 secs

     End of self-consistent calculation

          k = 0.0000 0.0000 0.0000 ( 11564 PWs)   bands (ev):

    -5.5748  -4.6998  -4.6403  -4.4869  -4.4456  -4.2369  -4.1332  -3.7071
    -3.6586  -3.5373  -3.4670  -3.4358  -3.3625  -3.2609  -3.1259  -3.0805
    -3.0192  -2.9244  -2.7727  -2.3083  -2.2909  -2.1861  -2.0451  -1.9541
    -1.8756  -1.6867  -1.5226  -1.3006  -1.1539  -1.1096  -0.8290  -0.7780
    -0.7389  -0.4900  -0.4103  -0.3811  -0.2765  -0.1972  -0.1435  -0.0040
     0.0865   0.1408   0.2356   0.3232   0.4224   0.4613   0.6318   0.6700
     0.7866   0.8192   0.9031   0.9545   1.0146   1.1598   1.3560   1.3796
     1.4448   1.5275   1.6137   1.7678   1.9447   1.9653   2.1738   2.2702
     2.3227   2.4112   2.4296   2.5257   2.5702   2.6481   2.6754   2.7727
     2.8568   2.9104   3.0177   3.0470   3.1528   3.2535   3.3445   3.4857
     3.5674   3.8658   3.9034   3.9521   4.0892   4.2242   4.2280   4.2635
     4.3300   4.4671   4.4939   4.5973   4.6771   4.7250   4.7583   4.8215
     4.9048   4.9558   5.0716   5.1301   5.2311   5.2579   5.3449   5.3937
     5.4221   5.4648   5.5416   5.5831   5.6070   5.6659   5.7177   5.7543
     5.8386   5.9344   6.0129   6.0690   6.1788   6.2135   6.2616   6.3065
     6.3760   6.3868   6.3957   6.4893   6.5630   6.6299   6.7164   6.7892
     6.8231   6.8775   6.9836   7.0230   7.0869   7.1129   7.1522   7.2208
     7.2389   7.3736   7.3965   7.4445   7.4802   7.6134   7.7280   7.8072
     7.8478   7.9331   7.9640   8.0191   8.0778   8.1452   8.1781   8.2678
     8.2893   8.3454

     the Fermi energy is     6.7955 ev

!    total energy              =    -501.48567531 Ry
     estimated scf accuracy    <       0.00000038 Ry
     smearing contrib. (-TS)   =      -0.14785269 Ry
     internal energy E=F+TS    =    -501.33782262 Ry

     The total energy is F=E-TS. E is the sum of the following terms:
     one-electron contribution =     171.59244119 Ry
     hartree contribution      =      29.44008836 Ry
     xc contribution           =    -150.74163294 Ry
     ewald contribution        =    -551.62871924 Ry

     convergence has been achieved in  19 iterations

     Forces acting on atoms (cartesian axes, Ry/au):

     atom    1 type  1   force =    -0.01106082    0.01303709    0.00827467
     atom    2 type  1   force =     0.01821659   -0.00786398    0.00429627
     atom    3 type  1   force =     0.01308166   -0.00688347   -0.00510073
     atom    4 type  1   force =     0.04983025    0.01890391    0.02020029
     atom    5 type  1   force =     0.00312346    0.02220936    0.00690698
     atom    6 type  1   force =     0.00774867    0.01937923   -0.02153687
     atom    7 type  1   force =     0.01550437   -0.00358710    0.00409955
     atom    8 type  1   force =     0.00559335    0.01573856   -0.00367178
     atom    9 type  1   force =    -0.02599543    0.01570691    0.02819129
     atom   10 type  1   force =     0.01091448   -0.00488702   -0.00457340
     atom   11 type  1   force =     0.00765313    0.02155545   -0.01625909
     atom   12 type  1   force =     0.01061064   -0.04160333   -0.00353117
     atom   13 type  1   force =    -0.01125411    0.00539746    0.02389914
     atom   14 type  1   force =     0.00776289    0.00595962    0.00576134
     atom   15 type  1   force =    -0.03898074   -0.00913405   -0.03668592
     atom   16 type  1   force =    -0.03764714   -0.02691734    0.05313966
     atom   17 type  1   force =     0.01839855   -0.01460275    0.04181159
     atom   18 type  1   force =     0.00447926   -0.00040737   -0.01989544
     atom   19 type  1   force =     0.01783955   -0.02711981    0.01962610
     atom   20 type  1   force =     0.02015267   -0.01261330   -0.00686251
     atom   21 type  1   force =    -0.02024528   -0.01356054   -0.00533150
     atom   22 type  1   force =     0.02016182    0.01083399    0.00044901
     atom   23 type  1   force =    -0.01278354   -0.02085472   -0.00163494
     atom   24 type  1   force =     0.01121997   -0.00898652    0.03581051
     atom   25 type  1   force =     0.03639422    0.00719419    0.01224975
     atom   26 type  1   force =     0.05112719    0.08488284    0.01731508
     atom   27 type  1   force =     0.03994110   -0.01473445   -0.04238608
     atom   28 type  1   force =    -0.01607823   -0.01020338    0.01571811
     atom   29 type  1   force =     0.00717483   -0.02189026   -0.03588315
     atom   30 type  1   force =     0.03947873    0.03487526   -0.06043566
     atom   31 type  1   force =     0.00156521    0.00232018   -0.00256688
     atom   32 type  1   force =    -0.04091567   -0.02027683   -0.01496593
     atom   33 type  1   force =     0.01983443   -0.01253334   -0.03003161
     atom   34 type  1   force =    -0.03542004   -0.03054883   -0.03392566
     atom   35 type  1   force =    -0.01632075   -0.00443951   -0.02504872
     atom   36 type  1   force =    -0.02074991   -0.01817304    0.00066252
     atom   37 type  1   force =    -0.03424800    0.07400530    0.02328152
     atom   38 type  1   force =    -0.00701271    0.01290112   -0.02871690
     atom   39 type  1   force =     0.00193803    0.01011154   -0.01112909
     atom   40 type  1   force =    -0.00478869    0.01864788    0.01336628
     atom   41 type  1   force =    -0.02742033   -0.01735360    0.02734774
     atom   42 type  1   force =    -0.00974606   -0.04552292   -0.00083061
     atom   43 type  1   force =    -0.01133258   -0.00362454   -0.02304811
     atom   44 type  1   force =    -0.00413140   -0.00617039    0.03456040
     atom   45 type  1   force =     0.00646885    0.01580623    0.00043489
     atom   46 type  1   force =    -0.02626313    0.01096776    0.00386324
     atom   47 type  1   force =    -0.00225169    0.01342164   -0.00205928
     atom   48 type  1   force =    -0.01364821    0.01092344   -0.00713472
     atom   49 type  1   force =     0.02282419    0.00919638   -0.00054060
     atom   50 type  1   force =     0.02202617    0.02150127   -0.05782049
     atom   51 type  1   force =    -0.01704196   -0.02271632    0.01641364
     atom   52 type  1   force =    -0.00208752   -0.01145436    0.02777627
     atom   53 type  1   force =    -0.02435765   -0.02278087    0.00206013
     atom   54 type  1   force =     0.08924403   -0.05852603   -0.03089629
     atom   55 type  1   force =     0.00763237    0.00759704    0.00445315
     atom   56 type  1   force =     0.02476396   -0.02863184    0.01611649
     atom   57 type  1   force =    -0.01562333   -0.00301430   -0.01621008
     atom   58 type  1   force =    -0.00669944    0.01222358    0.01193556
     atom   59 type  1   force =    -0.00067635    0.02384239   -0.00483994
     atom   60 type  1   force =    -0.05897511   -0.10015327    0.01163830
     atom   61 type  1   force =     0.03248122    0.01634166    0.01276679
     atom   62 type  1   force =    -0.00038761   -0.01828205    0.00608331
     atom   63 type  1   force =    -0.01742131    0.05470284    0.04349263
     atom   64 type  1   force =    -0.07362110    0.07986731   -0.00044904

     Total force =     0.364887     Total SCF correction =     0.001188


     Computing stress (Cartesian axis) and pressure

          total   stress  (Ry/bohr**3)                   (kbar)     P=      -29.04
  -0.00024356   0.00000116   0.00004042          -35.83        0.17        5.95
   0.00000116  -0.00016606   0.00001597            0.17      -24.43        2.35
   0.00004042   0.00001597  -0.00018253            5.95        2.35      -26.85

 
     init_run     :      1.06s CPU      4.93s WALL (       1 calls)
     electrons    :      1.98s CPU      2.14s WALL (       1 calls)
     forces       :      0.04s CPU      0.04s WALL (       1 calls)
     stress       :      0.15s CPU      0.16s WALL (       1 calls)

     Called by init_run:
     wfcinit      :      0.52s CPU      4.21s WALL (       1 calls)
                                        4.21s GPU  (       1 calls)
     potinit      :      0.06s CPU      0.15s WALL (       1 calls)
     hinit0       :      0.47s CPU      0.50s WALL (       1 calls)

     Called by electrons:
     c_bands      :      1.14s CPU      1.21s WALL (      20 calls)
     sum_band     :      0.41s CPU      0.46s WALL (      20 calls)
     v_of_rho     :      0.18s CPU      0.29s WALL (      20 calls)
     mix_rho      :      0.20s CPU      0.21s WALL (      20 calls)

     Called by c_bands:
     init_us_2    :      0.07s CPU      0.08s WALL (      41 calls)
     init_us_2:gp :      0.07s CPU      0.07s WALL (      41 calls)
     regterg      :      0.98s CPU      1.04s WALL (      20 calls)

     Called by *egterg:
     rdiaghg      :      0.39s CPU      1.15s WALL (      85 calls)
                                        1.14s GPU  (      85 calls)
     h_psi        :      0.92s CPU      3.90s WALL (      87 calls)
                                        3.89s GPU  (      87 calls)
     g_psi        :      0.00s CPU      0.00s WALL (      66 calls)
                                        0.00s GPU  (      66 calls)

     Called by h_psi:
     h_psi:calbec :      0.49s CPU      3.38s WALL (      87 calls)
                                        3.38s GPU  (      87 calls)
     vloc_psi     :      0.38s CPU      0.45s WALL (      87 calls)
                                        0.45s GPU  (      87 calls)
     add_vuspsi   :      0.04s CPU      0.05s WALL (      87 calls)
                                        0.05s GPU  (      87 calls)

     General routines
     calbec       :      0.50s CPU      3.38s WALL (      92 calls)
     fft          :      0.63s CPU      0.76s WALL (     167 calls)
                                        0.13s GPU  (     106 calls)
     ffts         :      0.05s CPU      0.05s WALL (      20 calls)
     fftw         :      0.47s CPU      0.62s WALL (    2096 calls)
                                        0.54s GPU  (    2096 calls)
 
     Parallel routines
 
     PWSCF        :      3.28s CPU      7.36s WALL

 
   This run was terminated on:  11: 7: 5  10May2023            

=------------------------------------------------------------------------------=
   JOB DONE.
=------------------------------------------------------------------------------=
