An instance of this daemon is already running

     Program PWSCF v.7.1 starts on 10May2023 at 11: 4:51 

     This program is part of the open-source Quantum ESPRESSO suite
     for quantum simulation of materials; please cite
         "P. Giannozzi et al., J. Phys.:Condens. Matter 21 395502 (2009);
         "P. Giannozzi et al., J. Phys.:Condens. Matter 29 465901 (2017);
         "P. Giannozzi et al., J. Chem. Phys. 152 154105 (2020);
          URL http://www.quantum-espresso.org", 
     in publications or presentations arising from this work. More details at
     http://www.quantum-espresso.org/quote

     Parallel version (MPI & OpenMP), running on       4 processor cores
     Number of MPI processes:                 4
     Threads/MPI process:                     1

     MPI processes distributed on     1 nodes
     753551 MiB available memory on the printing compute node when the environment starts
 
     Reading input from pw-si-67.in
Warning: card &CELL ignored
Warning: card / ignored

     Current dimensions of program PWSCF are:
     Max number of different atomic species (ntypx) = 10
     Max number of k-points (npk) =  40000
     Max angular momentum in pseudopotentials (lmaxx) =  4

     IMPORTANT: XC functional enforced from input :
     Exchange-correlation= PBE
                           (   1   4   3   4   0   0   0)
     Any further DFT definition will be discarded
     Please, verify this is what you really want


     gamma-point specific algorithms are used
 
     K-points division:     npool     =       2
     R & G space division:  proc/nbgrp/npool/nimage =       2
     Subspace diagonalization in iterative solution of the eigenvalue problem:
     a serial algorithm will be used

     Message from routine divide_et_impera:
     suboptimal parallelization: some nodes have no k-points
 
     Parallelization info
     --------------------
     sticks:   dense  smooth     PW     G-vecs:    dense   smooth      PW
     Min        1954    1954    520                92150    92150   12584
     Max        1955    1955    521                92157    92157   12589
     Sum        3909    3909   1041               184307   184307   25173
 
     Using Slab Decomposition
 


     bravais-lattice index     =            0
     lattice parameter (alat)  =      20.2470  a.u.
     unit-cell volume          =    8300.1176 (a.u.)^3
     number of atoms/cell      =           64
     number of atomic types    =            1
     number of electrons       =       256.00
     number of Kohn-Sham states=          154
     kinetic-energy cutoff     =      30.0000  Ry
     charge density cutoff     =     120.0000  Ry
     scf convergence threshold =      1.0E-06
     mixing beta               =       0.5000
     number of iterations used =            8  plain     mixing
     Exchange-correlation= PBE
                           (   1   4   3   4   0   0   0)

     GPU acceleration is ACTIVE.
     GPU-aware MPI enabled

     Message from routine print_cuda_info:
     High GPU oversubscription detected. Are you sure this is what you want?

     celldm(1)=  20.247034  celldm(2)=   0.000000  celldm(3)=   0.000000
     celldm(4)=   0.000000  celldm(5)=   0.000000  celldm(6)=   0.000000

     crystal axes: (cart. coord. in units of alat)
               a(1) = (   1.000000   0.000000   0.000000 )  
               a(2) = (   0.000000   1.000000   0.000000 )  
               a(3) = (   0.000000   0.000000   1.000000 )  

     reciprocal axes: (cart. coord. in units 2 pi/alat)
               b(1) = (  1.000000  0.000000  0.000000 )  
               b(2) = (  0.000000  1.000000  0.000000 )  
               b(3) = (  0.000000  0.000000  1.000000 )  


     PseudoPot. # 1 for Si read from file:
     /home/ppiaggi/pseudos/Si_ONCV_PBE_sr.upf
     MD5 check sum: 8553c464762ac42b85b1eed164b4d029
     Pseudo is Norm-conserving, Zval =  4.0
     Generated using ONCVPSP code by D. R. Hamann
     Using radial grid of 1510 points,  4 beta functions with: 
                l(1) =   0
                l(2) =   0
                l(3) =   1
                l(4) =   1

     atomic species   valence    mass     pseudopotential
        Si             4.00    28.08500     Si( 1.00)

     No symmetry found



   Cartesian axes

     site n.     atom                  positions (alat units)
         1           Si  tau(   1) = (   0.5427180   0.5479930   0.8617100  )
         2           Si  tau(   2) = (   0.8729050   0.2810930   0.0311000  )
         3           Si  tau(   3) = (   0.7461160   0.6252830   0.2371340  )
         4           Si  tau(   4) = (   0.3432610   0.1843850   0.5719250  )
         5           Si  tau(   5) = (   0.9802660   0.8727340   0.7925110  )
         6           Si  tau(   6) = (   0.9113440   0.0655708   0.7022910  )
         7           Si  tau(   7) = (   0.4551790   0.8310670   0.3625350  )
         8           Si  tau(   8) = (   0.7546980   0.9896160   0.2082240  )
         9           Si  tau(   9) = (   0.1505440   0.2157800   0.9107990  )
        10           Si  tau(  10) = (   0.8420290   0.7722550   0.9332000  )
        11           Si  tau(  11) = (   0.3356100   0.9953080   0.7007880  )
        12           Si  tau(  12) = (   0.6624230   0.8445750   0.6001150  )
        13           Si  tau(  13) = (   0.6242500   0.5179670   0.4423060  )
        14           Si  tau(  14) = (   0.2557570   0.0349844   0.3966000  )
        15           Si  tau(  15) = (   0.8910450   0.9248320   0.3935580  )
        16           Si  tau(  16) = (   0.6550700   0.0474396   0.7051130  )
        17           Si  tau(  17) = (   0.5270240   0.1601460   0.2310130  )
        18           Si  tau(  18) = (   0.9137710   0.6708370   0.4017320  )
        19           Si  tau(  19) = (   0.5382220   0.0620681   0.4383370  )
        20           Si  tau(  20) = (   0.1494380   0.7163210   0.8741580  )
        21           Si  tau(  21) = (   0.1203840   0.1777110   0.2611640  )
        22           Si  tau(  22) = (   0.1234180   0.3977690   0.6650360  )
        23           Si  tau(  23) = (   0.3082180   0.1875320   0.1093040  )
        24           Si  tau(  24) = (   0.8731480   0.7659410   0.6156430  )
        25           Si  tau(  25) = (   0.5153930   0.9693750   0.0628043  )
        26           Si  tau(  26) = (   0.0156624   0.9940370   0.1910210  )
        27           Si  tau(  27) = (   0.2668560   0.9726040   0.0421454  )
        28           Si  tau(  28) = (   0.9299680   0.6366800   0.0993914  )
        29           Si  tau(  29) = (   0.2811720   0.6155320   0.2919830  )
        30           Si  tau(  30) = (   0.9485850   0.2681650   0.8023520  )
        31           Si  tau(  31) = (   0.0958393   0.8253120   0.0807455  )
        32           Si  tau(  32) = (   0.0326442   0.4904300   0.4549520  )
        33           Si  tau(  33) = (   0.6106700   0.8070230   0.2189500  )
        34           Si  tau(  34) = (   0.6564390   0.4423610   0.1291050  )
        35           Si  tau(  35) = (   0.1150950   0.8777810   0.4576530  )
        36           Si  tau(  36) = (   0.3809020   0.7202380   0.1131220  )
        37           Si  tau(  37) = (   0.0770878   0.1864400   0.5468070  )
        38           Si  tau(  38) = (   0.0373618   0.5337080   0.7943090  )
        39           Si  tau(  39) = (   0.3144520   0.3069920   0.7590470  )
        40           Si  tau(  40) = (   0.4035540   0.4969870   0.0606520  )
        41           Si  tau(  41) = (   0.1045550   0.7297370   0.2856550  )
        42           Si  tau(  42) = (   0.1664730   0.0146178   0.8371470  )
        43           Si  tau(  43) = (   0.5940580   0.7721690   0.8258920  )
        44           Si  tau(  44) = (   0.7681730   0.0803851   0.4760030  )
        45           Si  tau(  45) = (   0.4694980   0.2761930   0.9559520  )
        46           Si  tau(  46) = (   0.2702120   0.5978130   0.5236930  )
        47           Si  tau(  47) = (   0.3752720   0.7876810   0.8870960  )
        48           Si  tau(  48) = (   0.2426430   0.3551260   0.4097750  )
        49           Si  tau(  49) = (   0.7444360   0.2521780   0.2334050  )
        50           Si  tau(  50) = (   0.9214650   0.0594034   0.0033261  )
        51           Si  tau(  51) = (   0.2289170   0.7885850   0.6354310  )
        52           Si  tau(  52) = (   0.4675850   0.3756090   0.2737280  )
        53           Si  tau(  53) = (   0.7369160   0.9708190   0.9422630  )
        54           Si  tau(  54) = (   0.8070710   0.5635170   0.7876030  )
        55           Si  tau(  55) = (   0.0263249   0.4511000   0.0139859  )
        56           Si  tau(  56) = (   0.4997910   0.6942150   0.5442770  )
        57           Si  tau(  57) = (   0.4786890   0.0631404   0.8641830  )
        58           Si  tau(  58) = (   0.8066410   0.4515460   0.5808250  )
        59           Si  tau(  59) = (   0.2176430   0.4137840   0.1443850  )
        60           Si  tau(  60) = (   0.6963550   0.2739650   0.6893130  )
        61           Si  tau(  61) = (   0.4233360   0.4823590   0.6794900  )
        62           Si  tau(  62) = (   0.9209140   0.2811490   0.4310810  )
        63           Si  tau(  63) = (   0.5246890   0.3322430   0.5466210  )
        64           Si  tau(  64) = (   0.6820530   0.3587120   0.8954280  )

     number of k points=     1  Fermi-Dirac smearing, width (Ry)=  0.0100
                       cart. coord. in units 2pi/alat
        k(    1) = (   0.0000000   0.0000000   0.0000000), wk =   2.0000000

     Dense  grid:    92154 G-vectors     FFT dimensions: (  72,  72,  72)

     Estimated max dynamical RAM per process >     147.64 MB

     Estimated total dynamical RAM >     568.04 MB

     Initial potential from superposition of free atoms

     starting charge     255.9608, renormalised to     256.0000
     Starting wfcs are  256 randomized atomic wfcs

     total cpu time spent up to now is        5.0 secs

     Self-consistent Calculation

     iteration #  1     ecut=    30.00 Ry     beta= 0.50
     Davidson diagonalization with overlap
     ethr =  1.00E-02,  avg # of iterations =  3.0

     Threshold (ethr) on eigenvalues was too large:
     Diagonalizing with lowered threshold

     Davidson diagonalization with overlap
     ethr =  4.03E-04,  avg # of iterations =  4.0

     total cpu time spent up to now is        5.3 secs

     total energy              =    -501.33534511 Ry
     estimated scf accuracy    <       1.23824340 Ry

     iteration #  2     ecut=    30.00 Ry     beta= 0.50
     Davidson diagonalization with overlap
     ethr =  4.84E-04,  avg # of iterations =  4.0

     total cpu time spent up to now is        5.4 secs

     total energy              =    -500.78783287 Ry
     estimated scf accuracy    <       6.62341861 Ry

     iteration #  3     ecut=    30.00 Ry     beta= 0.50
     Davidson diagonalization with overlap
     ethr =  4.84E-04,  avg # of iterations =  4.0

     total cpu time spent up to now is        5.5 secs

     total energy              =    -501.43825370 Ry
     estimated scf accuracy    <       1.55593437 Ry

     iteration #  4     ecut=    30.00 Ry     beta= 0.50
     Davidson diagonalization with overlap
     ethr =  4.84E-04,  avg # of iterations =  2.0

     total cpu time spent up to now is        5.6 secs

     total energy              =    -501.53117510 Ry
     estimated scf accuracy    <       0.53209366 Ry

     iteration #  5     ecut=    30.00 Ry     beta= 0.50
     Davidson diagonalization with overlap
     ethr =  2.08E-04,  avg # of iterations =  2.0

     total cpu time spent up to now is        5.7 secs

     total energy              =    -501.55161065 Ry
     estimated scf accuracy    <       0.50433456 Ry

     iteration #  6     ecut=    30.00 Ry     beta= 0.50
     Davidson diagonalization with overlap
     ethr =  1.97E-04,  avg # of iterations =  1.0

     total cpu time spent up to now is        5.8 secs

     total energy              =    -501.59591727 Ry
     estimated scf accuracy    <       0.07595571 Ry

     iteration #  7     ecut=    30.00 Ry     beta= 0.50
     Davidson diagonalization with overlap
     ethr =  2.97E-05,  avg # of iterations =  2.0

     total cpu time spent up to now is        5.9 secs

     total energy              =    -501.60283856 Ry
     estimated scf accuracy    <       0.02909260 Ry

     iteration #  8     ecut=    30.00 Ry     beta= 0.50
     Davidson diagonalization with overlap
     ethr =  1.14E-05,  avg # of iterations = 10.0

     total cpu time spent up to now is        6.0 secs

     total energy              =    -501.60575515 Ry
     estimated scf accuracy    <       0.01713640 Ry

     iteration #  9     ecut=    30.00 Ry     beta= 0.50
     Davidson diagonalization with overlap
     ethr =  6.69E-06,  avg # of iterations =  2.0

     total cpu time spent up to now is        6.1 secs

     total energy              =    -501.60713051 Ry
     estimated scf accuracy    <       0.00167342 Ry

     iteration # 10     ecut=    30.00 Ry     beta= 0.50
     Davidson diagonalization with overlap
     ethr =  6.54E-07,  avg # of iterations = 11.0

     total cpu time spent up to now is        6.3 secs

     total energy              =    -501.60724930 Ry
     estimated scf accuracy    <       0.00260588 Ry

     iteration # 11     ecut=    30.00 Ry     beta= 0.50
     Davidson diagonalization with overlap
     ethr =  6.54E-07,  avg # of iterations =  2.0

     total cpu time spent up to now is        6.4 secs

     total energy              =    -501.60744910 Ry
     estimated scf accuracy    <       0.00039320 Ry

     iteration # 12     ecut=    30.00 Ry     beta= 0.50
     Davidson diagonalization with overlap
     ethr =  1.54E-07,  avg # of iterations =  2.0

     total cpu time spent up to now is        6.5 secs

     total energy              =    -501.60749833 Ry
     estimated scf accuracy    <       0.00023581 Ry

     iteration # 13     ecut=    30.00 Ry     beta= 0.50
     Davidson diagonalization with overlap
     ethr =  9.21E-08,  avg # of iterations =  2.0

     total cpu time spent up to now is        6.6 secs

     total energy              =    -501.60751290 Ry
     estimated scf accuracy    <       0.00014211 Ry

     iteration # 14     ecut=    30.00 Ry     beta= 0.50
     Davidson diagonalization with overlap
     ethr =  5.55E-08,  avg # of iterations =  1.0

     total cpu time spent up to now is        6.7 secs

     total energy              =    -501.60752431 Ry
     estimated scf accuracy    <       0.00001365 Ry

     iteration # 15     ecut=    30.00 Ry     beta= 0.50
     Davidson diagonalization with overlap
     ethr =  5.33E-09,  avg # of iterations =  4.0

     total cpu time spent up to now is        6.8 secs

     total energy              =    -501.60752639 Ry
     estimated scf accuracy    <       0.00001679 Ry

     iteration # 16     ecut=    30.00 Ry     beta= 0.50
     Davidson diagonalization with overlap
     ethr =  5.33E-09,  avg # of iterations =  2.0

     total cpu time spent up to now is        6.9 secs

     total energy              =    -501.60752771 Ry
     estimated scf accuracy    <       0.00000445 Ry

     iteration # 17     ecut=    30.00 Ry     beta= 0.50
     Davidson diagonalization with overlap
     ethr =  1.74E-09,  avg # of iterations =  2.0

     total cpu time spent up to now is        6.9 secs

     End of self-consistent calculation

          k = 0.0000 0.0000 0.0000 ( 11492 PWs)   bands (ev):

    -5.4849  -4.5872  -4.4126  -4.3746  -4.2698  -4.1419  -4.0654  -3.4842
    -3.4675  -3.3862  -3.2709  -3.2223  -3.1317  -3.0318  -3.0059  -2.9423
    -2.8547  -2.7935  -2.6287  -2.3108  -2.2392  -2.0671  -1.9934  -1.8486
    -1.7165  -1.5962  -1.3422  -1.1061  -1.0006  -0.9461  -0.8688  -0.6779
    -0.4249  -0.3620  -0.3429  -0.2208  -0.1425  -0.1293  -0.0201   0.0497
     0.1960   0.2590   0.3460   0.4177   0.5301   0.5666   0.6349   0.6871
     0.8040   0.9264   1.0121   1.1601   1.1852   1.3481   1.3896   1.6034
     1.6289   1.6877   1.7414   1.8421   1.9652   2.0770   2.2247   2.3225
     2.3457   2.4121   2.5146   2.6014   2.6465   2.7860   2.8408   2.9139
     2.9259   3.1013   3.1585   3.1922   3.3254   3.4112   3.4427   3.5707
     3.5769   3.8714   4.0524   4.1049   4.1834   4.2360   4.3406   4.4639
     4.5060   4.5696   4.6142   4.6909   4.7667   4.8553   4.9351   5.0109
     5.0527   5.1202   5.1496   5.2063   5.2688   5.3190   5.3564   5.4419
     5.5144   5.5774   5.6084   5.7071   5.7157   5.7492   5.8000   5.8154
     5.8946   6.0259   6.1494   6.1704   6.2050   6.3417   6.3553   6.3824
     6.4722   6.5233   6.6137   6.6402   6.6726   6.7136   6.8049   6.8363
     6.9008   6.9496   7.0066   7.0717   7.0898   7.2467   7.2789   7.3444
     7.3770   7.5373   7.6206   7.6474   7.6877   7.7244   7.8281   7.8936
     7.9561   8.0107   8.1332   8.1522   8.1648   8.2394   8.2935   8.3641
     8.4228   8.4912

     the Fermi energy is     6.8787 ev

!    total energy              =    -501.60752747 Ry
     estimated scf accuracy    <       0.00000094 Ry
     smearing contrib. (-TS)   =      -0.15565240 Ry
     internal energy E=F+TS    =    -501.45187507 Ry

     The total energy is F=E-TS. E is the sum of the following terms:
     one-electron contribution =     178.93170307 Ry
     hartree contribution      =      26.74228254 Ry
     xc contribution           =    -150.59605436 Ry
     ewald contribution        =    -556.52980632 Ry

     convergence has been achieved in  17 iterations

     Forces acting on atoms (cartesian axes, Ry/au):

     atom    1 type  1   force =    -0.00023301    0.00601956    0.00090840
     atom    2 type  1   force =    -0.01925752    0.01717190   -0.01635450
     atom    3 type  1   force =     0.00936656   -0.01328006    0.02753252
     atom    4 type  1   force =     0.00858891   -0.02695057   -0.04319390
     atom    5 type  1   force =     0.03401026    0.00569313   -0.01361966
     atom    6 type  1   force =    -0.00544909    0.03801765   -0.01944184
     atom    7 type  1   force =    -0.02158505    0.02386139    0.02968801
     atom    8 type  1   force =     0.01551357    0.01137237    0.01401327
     atom    9 type  1   force =    -0.00035422    0.01969464    0.00897484
     atom   10 type  1   force =    -0.02252028   -0.01393236    0.00248289
     atom   11 type  1   force =    -0.00018302   -0.03251707    0.00720915
     atom   12 type  1   force =     0.00040934    0.00708325    0.02704432
     atom   13 type  1   force =     0.00840576    0.01041849   -0.00707798
     atom   14 type  1   force =     0.00273313    0.03384159    0.00336604
     atom   15 type  1   force =     0.02643470   -0.04322435   -0.02592665
     atom   16 type  1   force =     0.02254497    0.00157558    0.01262639
     atom   17 type  1   force =    -0.00214660   -0.01215210   -0.00703699
     atom   18 type  1   force =    -0.01321755    0.02702124   -0.02024053
     atom   19 type  1   force =    -0.00174629   -0.00220023   -0.00814302
     atom   20 type  1   force =     0.01494108    0.02046780   -0.02420108
     atom   21 type  1   force =     0.03188629    0.00125843    0.01922499
     atom   22 type  1   force =    -0.00509552   -0.05697476   -0.04992879
     atom   23 type  1   force =    -0.02093635    0.03092621   -0.00981469
     atom   24 type  1   force =    -0.00758577   -0.01381659   -0.00463793
     atom   25 type  1   force =     0.01769385   -0.00240383    0.02218978
     atom   26 type  1   force =    -0.02127524   -0.00380240    0.02354390
     atom   27 type  1   force =     0.00719878   -0.02471302   -0.04013935
     atom   28 type  1   force =     0.00539194    0.03050680    0.00455328
     atom   29 type  1   force =     0.02679066   -0.05834323    0.00053320
     atom   30 type  1   force =     0.00369108   -0.01842081   -0.01283243
     atom   31 type  1   force =     0.00792269   -0.03307676    0.00147088
     atom   32 type  1   force =     0.01552069   -0.04727429    0.02256454
     atom   33 type  1   force =    -0.00096622    0.01061385   -0.03458648
     atom   34 type  1   force =    -0.02050568    0.00238273   -0.00568198
     atom   35 type  1   force =    -0.01606439   -0.00389156    0.00317905
     atom   36 type  1   force =     0.02101058    0.00451253    0.00288126
     atom   37 type  1   force =     0.01918584   -0.01352858    0.03190252
     atom   38 type  1   force =    -0.03727137    0.02630094    0.09187401
     atom   39 type  1   force =    -0.01742245   -0.01399655    0.03873237
     atom   40 type  1   force =     0.04238630    0.01094856    0.00211309
     atom   41 type  1   force =    -0.05674999    0.02222075    0.00719011
     atom   42 type  1   force =    -0.01081425   -0.02391463    0.01668555
     atom   43 type  1   force =     0.00570816   -0.02294302   -0.01495001
     atom   44 type  1   force =    -0.01248979    0.02968231    0.01936430
     atom   45 type  1   force =    -0.01678336   -0.00993684   -0.01515841
     atom   46 type  1   force =     0.02321132   -0.02926873    0.00588323
     atom   47 type  1   force =    -0.02626930    0.02317187    0.01750134
     atom   48 type  1   force =     0.00206413    0.02129031   -0.02654143
     atom   49 type  1   force =     0.01466773   -0.00847277    0.00836475
     atom   50 type  1   force =     0.03326106    0.04197564   -0.00467848
     atom   51 type  1   force =     0.01168151    0.01427179    0.01135039
     atom   52 type  1   force =    -0.01805211    0.02035308    0.00961193
     atom   53 type  1   force =    -0.04418935   -0.03491196   -0.00555796
     atom   54 type  1   force =     0.01652855    0.01695755   -0.01392746
     atom   55 type  1   force =     0.00853453   -0.00403141   -0.00781757
     atom   56 type  1   force =     0.00137926   -0.01206404   -0.02163066
     atom   57 type  1   force =    -0.00060679    0.01175669   -0.02474424
     atom   58 type  1   force =    -0.00900599   -0.01834661   -0.00886973
     atom   59 type  1   force =    -0.00296228   -0.00090374    0.02810071
     atom   60 type  1   force =     0.00473674   -0.00705207   -0.01480851
     atom   61 type  1   force =    -0.00551005    0.02636462   -0.02580367
     atom   62 type  1   force =    -0.04056748    0.02584421   -0.03603715
     atom   63 type  1   force =     0.00845105   -0.01094980    0.01039166
     atom   64 type  1   force =     0.00596532    0.02371731    0.03033042

     Total force =     0.304906     Total SCF correction =     0.001903


     Computing stress (Cartesian axis) and pressure

          total   stress  (Ry/bohr**3)                   (kbar)     P=      -35.60
  -0.00025547  -0.00010449  -0.00004286          -37.58      -15.37       -6.30
  -0.00010449  -0.00016799  -0.00000355          -15.37      -24.71       -0.52
  -0.00004286  -0.00000355  -0.00030260           -6.30       -0.52      -44.51

 
     init_run     :      1.09s CPU      4.94s WALL (       1 calls)
     electrons    :      1.78s CPU      1.94s WALL (       1 calls)
     forces       :      0.04s CPU      0.04s WALL (       1 calls)
     stress       :      0.16s CPU      0.16s WALL (       1 calls)

     Called by init_run:
     wfcinit      :      0.55s CPU      4.22s WALL (       1 calls)
                                        4.22s GPU  (       1 calls)
     potinit      :      0.05s CPU      0.15s WALL (       1 calls)
     hinit0       :      0.47s CPU      0.50s WALL (       1 calls)

     Called by electrons:
     c_bands      :      1.04s CPU      1.12s WALL (      18 calls)
     sum_band     :      0.36s CPU      0.40s WALL (      18 calls)
     v_of_rho     :      0.18s CPU      0.28s WALL (      18 calls)
     mix_rho      :      0.17s CPU      0.18s WALL (      18 calls)

     Called by c_bands:
     init_us_2    :      0.07s CPU      0.07s WALL (      37 calls)
     init_us_2:gp :      0.07s CPU      0.07s WALL (      37 calls)
     regterg      :      0.90s CPU      0.96s WALL (      18 calls)

     Called by *egterg:
     rdiaghg      :      0.39s CPU      1.13s WALL (      77 calls)
                                        1.12s GPU  (      77 calls)
     h_psi        :      0.89s CPU      3.86s WALL (      79 calls)
                                        3.86s GPU  (      79 calls)
     g_psi        :      0.00s CPU      0.00s WALL (      60 calls)
                                        0.00s GPU  (      60 calls)

     Called by h_psi:
     h_psi:calbec :      0.50s CPU      3.38s WALL (      79 calls)
                                        3.38s GPU  (      79 calls)
     vloc_psi     :      0.35s CPU      0.42s WALL (      79 calls)
                                        0.42s GPU  (      79 calls)
     add_vuspsi   :      0.03s CPU      0.05s WALL (      79 calls)
                                        0.05s GPU  (      79 calls)

     General routines
     calbec       :      0.51s CPU      3.39s WALL (      84 calls)
     fft          :      0.61s CPU      0.75s WALL (     151 calls)
                                        0.13s GPU  (      96 calls)
     ffts         :      0.05s CPU      0.05s WALL (      18 calls)
     fftw         :      0.42s CPU      0.56s WALL (    1888 calls)
                                        0.49s GPU  (    1888 calls)
 
     Parallel routines
 
     PWSCF        :      3.11s CPU      7.16s WALL

 
   This run was terminated on:  11: 4:58  10May2023            

=------------------------------------------------------------------------------=
   JOB DONE.
=------------------------------------------------------------------------------=
