An instance of this daemon is already running

     Program PWSCF v.7.1 starts on 10May2023 at 11: 1:27 

     This program is part of the open-source Quantum ESPRESSO suite
     for quantum simulation of materials; please cite
         "P. Giannozzi et al., J. Phys.:Condens. Matter 21 395502 (2009);
         "P. Giannozzi et al., J. Phys.:Condens. Matter 29 465901 (2017);
         "P. Giannozzi et al., J. Chem. Phys. 152 154105 (2020);
          URL http://www.quantum-espresso.org", 
     in publications or presentations arising from this work. More details at
     http://www.quantum-espresso.org/quote

     Parallel version (MPI & OpenMP), running on       4 processor cores
     Number of MPI processes:                 4
     Threads/MPI process:                     1

     MPI processes distributed on     1 nodes
     753556 MiB available memory on the printing compute node when the environment starts
 
     Reading input from pw-si-46.in
Warning: card &CELL ignored
Warning: card / ignored

     Current dimensions of program PWSCF are:
     Max number of different atomic species (ntypx) = 10
     Max number of k-points (npk) =  40000
     Max angular momentum in pseudopotentials (lmaxx) =  4

     IMPORTANT: XC functional enforced from input :
     Exchange-correlation= PBE
                           (   1   4   3   4   0   0   0)
     Any further DFT definition will be discarded
     Please, verify this is what you really want


     gamma-point specific algorithms are used
 
     K-points division:     npool     =       2
     R & G space division:  proc/nbgrp/npool/nimage =       2
     Subspace diagonalization in iterative solution of the eigenvalue problem:
     a serial algorithm will be used

     Message from routine divide_et_impera:
     suboptimal parallelization: some nodes have no k-points
 
     Parallelization info
     --------------------
     sticks:   dense  smooth     PW     G-vecs:    dense   smooth      PW
     Min        1953    1953    520                91863    91863   12584
     Max        1956    1956    521                91868    91868   12589
     Sum        3909    3909   1041               183731   183731   25173
 
     Using Slab Decomposition
 


     bravais-lattice index     =            0
     lattice parameter (alat)  =      20.2381  a.u.
     unit-cell volume          =    8289.1115 (a.u.)^3
     number of atoms/cell      =           64
     number of atomic types    =            1
     number of electrons       =       256.00
     number of Kohn-Sham states=          154
     kinetic-energy cutoff     =      30.0000  Ry
     charge density cutoff     =     120.0000  Ry
     scf convergence threshold =      1.0E-06
     mixing beta               =       0.5000
     number of iterations used =            8  plain     mixing
     Exchange-correlation= PBE
                           (   1   4   3   4   0   0   0)

     GPU acceleration is ACTIVE.
     GPU-aware MPI enabled

     Message from routine print_cuda_info:
     High GPU oversubscription detected. Are you sure this is what you want?

     celldm(1)=  20.238081  celldm(2)=   0.000000  celldm(3)=   0.000000
     celldm(4)=   0.000000  celldm(5)=   0.000000  celldm(6)=   0.000000

     crystal axes: (cart. coord. in units of alat)
               a(1) = (   1.000000   0.000000   0.000000 )  
               a(2) = (   0.000000   1.000000   0.000000 )  
               a(3) = (   0.000000   0.000000   1.000000 )  

     reciprocal axes: (cart. coord. in units 2 pi/alat)
               b(1) = (  1.000000  0.000000  0.000000 )  
               b(2) = (  0.000000  1.000000  0.000000 )  
               b(3) = (  0.000000  0.000000  1.000000 )  


     PseudoPot. # 1 for Si read from file:
     /home/ppiaggi/pseudos/Si_ONCV_PBE_sr.upf
     MD5 check sum: 8553c464762ac42b85b1eed164b4d029
     Pseudo is Norm-conserving, Zval =  4.0
     Generated using ONCVPSP code by D. R. Hamann
     Using radial grid of 1510 points,  4 beta functions with: 
                l(1) =   0
                l(2) =   0
                l(3) =   1
                l(4) =   1

     atomic species   valence    mass     pseudopotential
        Si             4.00    28.08500     Si( 1.00)

     No symmetry found



   Cartesian axes

     site n.     atom                  positions (alat units)
         1           Si  tau(   1) = (   0.1860400   0.7219330   0.1707700  )
         2           Si  tau(   2) = (   0.8377120   0.2056470   0.3304210  )
         3           Si  tau(   3) = (   0.5327250   0.7174570   0.7883680  )
         4           Si  tau(   4) = (   0.6462230   0.6614180   0.5823570  )
         5           Si  tau(   5) = (   0.9198950   0.5310360   0.6461100  )
         6           Si  tau(   6) = (   0.4403630   0.8481770   0.4603680  )
         7           Si  tau(   7) = (   0.1250780   0.8187050   0.9843070  )
         8           Si  tau(   8) = (   0.1168570   0.2290630   0.4553080  )
         9           Si  tau(   9) = (   0.9087640   0.0299910   0.8240390  )
        10           Si  tau(  10) = (   0.4908530   0.9198880   0.6513370  )
        11           Si  tau(  11) = (   0.0161678   0.1124490   0.1494340  )
        12           Si  tau(  12) = (   0.3070840   0.3633930   0.9317450  )
        13           Si  tau(  13) = (   0.7940840   0.3020530   0.0772184  )
        14           Si  tau(  14) = (   0.6979280   0.2954770   0.6037710  )
        15           Si  tau(  15) = (   0.3848840   0.6473220   0.1461460  )
        16           Si  tau(  16) = (   0.8870930   0.8192770   0.2177670  )
        17           Si  tau(  17) = (   0.7392520   0.8522280   0.8198050  )
        18           Si  tau(  18) = (   0.7300660   0.0170695   0.4601810  )
        19           Si  tau(  19) = (   0.6994570   0.4769940   0.4637290  )
        20           Si  tau(  20) = (   0.5971390   0.2237230   0.2757950  )
        21           Si  tau(  21) = (   0.1613540   0.8489180   0.5422450  )
        22           Si  tau(  22) = (   0.0589085   0.6170710   0.8762680  )
        23           Si  tau(  23) = (   0.1367670   0.1400580   0.8986430  )
        24           Si  tau(  24) = (   0.9203430   0.5198370   0.0491466  )
        25           Si  tau(  25) = (   0.2861540   0.9833590   0.9594050  )
        26           Si  tau(  26) = (   0.7547690   0.1843520   0.8780440  )
        27           Si  tau(  27) = (   0.5228360   0.9964790   0.2994950  )
        28           Si  tau(  28) = (   0.9199940   0.2711940   0.6302440  )
        29           Si  tau(  29) = (   0.2550920   0.6834160   0.7788500  )
        30           Si  tau(  30) = (   0.6323320   0.3850320   0.8054470  )
        31           Si  tau(  31) = (   0.8367220   0.8540470   0.5778490  )
        32           Si  tau(  32) = (   0.0009923   0.6764720   0.4849320  )
        33           Si  tau(  33) = (   0.9779830   0.5978330   0.2419360  )
        34           Si  tau(  34) = (   0.2397660   0.8752600   0.3236860  )
        35           Si  tau(  35) = (   0.4659030   0.3875270   0.4061250  )
        36           Si  tau(  36) = (   0.4204780   0.1606520   0.5929720  )
        37           Si  tau(  37) = (   0.4534400   0.3991760   0.6624610  )
        38           Si  tau(  38) = (   0.1662300   0.3812360   0.7458940  )
        39           Si  tau(  39) = (   0.0215983   0.0300900   0.6267570  )
        40           Si  tau(  40) = (   0.6011060   0.5731070   0.2725350  )
        41           Si  tau(  41) = (   0.1125770   0.3392040   0.0857583  )
        42           Si  tau(  42) = (   0.6804230   0.7810240   0.3738390  )
        43           Si  tau(  43) = (   0.6989960   0.5764390   0.0294139  )
        44           Si  tau(  44) = (   0.6633610   0.0671568   0.6736350  )
        45           Si  tau(  45) = (   0.1461120   0.4455950   0.4131330  )
        46           Si  tau(  46) = (   0.9385100   0.9437590   0.0225611  )
        47           Si  tau(  47) = (   0.6189700   0.0760892   0.0531793  )
        48           Si  tau(  48) = (   0.3152290   0.3934200   0.2068310  )
        49           Si  tau(  49) = (   0.2849790   0.9179850   0.7267750  )
        50           Si  tau(  50) = (   0.7342970   0.7910490   0.0547238  )
        51           Si  tau(  51) = (   0.9032680   0.4159560   0.3858530  )
        52           Si  tau(  52) = (   0.9425280   0.3368920   0.8604230  )
        53           Si  tau(  53) = (   0.4260170   0.6304980   0.5329720  )
        54           Si  tau(  54) = (   0.2090510   0.0417019   0.1783370  )
        55           Si  tau(  55) = (   0.5150610   0.8220220   0.1492340  )
        56           Si  tau(  56) = (   0.4601620   0.1991500   0.8744120  )
        57           Si  tau(  57) = (   0.1976780   0.1676970   0.6666620  )
        58           Si  tau(  58) = (   0.7590260   0.5880880   0.8031400  )
        59           Si  tau(  59) = (   0.4812490   0.9142370   0.9389520  )
        60           Si  tau(  60) = (   0.4167900   0.5720030   0.9249990  )
        61           Si  tau(  61) = (   0.9662970   0.9811940   0.3631750  )
        62           Si  tau(  62) = (   0.1956810   0.5756440   0.5850070  )
        63           Si  tau(  63) = (   0.5545030   0.3499770   0.0815555  )
        64           Si  tau(  64) = (   0.3210310   0.1737200   0.3414090  )

     number of k points=     1  Fermi-Dirac smearing, width (Ry)=  0.0100
                       cart. coord. in units 2pi/alat
        k(    1) = (   0.0000000   0.0000000   0.0000000), wk =   2.0000000

     Dense  grid:    91866 G-vectors     FFT dimensions: (  72,  72,  72)

     Estimated max dynamical RAM per process >     147.42 MB

     Estimated total dynamical RAM >     567.24 MB

     Initial potential from superposition of free atoms

     starting charge     255.9608, renormalised to     256.0000
     Starting wfcs are  256 randomized atomic wfcs

     total cpu time spent up to now is        5.0 secs

     Self-consistent Calculation

     iteration #  1     ecut=    30.00 Ry     beta= 0.50
     Davidson diagonalization with overlap
     ethr =  1.00E-02,  avg # of iterations =  3.0

     Threshold (ethr) on eigenvalues was too large:
     Diagonalizing with lowered threshold

     Davidson diagonalization with overlap
     ethr =  4.08E-04,  avg # of iterations =  4.0

     total cpu time spent up to now is        5.3 secs

     total energy              =    -501.03990454 Ry
     estimated scf accuracy    <       1.27457293 Ry

     iteration #  2     ecut=    30.00 Ry     beta= 0.50
     Davidson diagonalization with overlap
     ethr =  4.98E-04,  avg # of iterations =  5.0

     total cpu time spent up to now is        5.4 secs

     total energy              =    -500.46049156 Ry
     estimated scf accuracy    <       7.88349671 Ry

     iteration #  3     ecut=    30.00 Ry     beta= 0.50
     Davidson diagonalization with overlap
     ethr =  4.98E-04,  avg # of iterations =  4.0

     total cpu time spent up to now is        5.6 secs

     total energy              =    -501.16206907 Ry
     estimated scf accuracy    <       1.98236633 Ry

     iteration #  4     ecut=    30.00 Ry     beta= 0.50
     Davidson diagonalization with overlap
     ethr =  4.98E-04,  avg # of iterations =  2.0

     total cpu time spent up to now is        5.7 secs

     total energy              =    -501.30681889 Ry
     estimated scf accuracy    <       0.53902542 Ry

     iteration #  5     ecut=    30.00 Ry     beta= 0.50
     Davidson diagonalization with overlap
     ethr =  2.11E-04,  avg # of iterations =  2.0

     total cpu time spent up to now is        5.8 secs

     total energy              =    -501.31768316 Ry
     estimated scf accuracy    <       0.58677429 Ry

     iteration #  6     ecut=    30.00 Ry     beta= 0.50
     Davidson diagonalization with overlap
     ethr =  2.11E-04,  avg # of iterations =  2.0

     total cpu time spent up to now is        5.8 secs

     total energy              =    -501.36882406 Ry
     estimated scf accuracy    <       0.10200861 Ry

     iteration #  7     ecut=    30.00 Ry     beta= 0.50
     Davidson diagonalization with overlap
     ethr =  3.98E-05,  avg # of iterations =  2.0

     total cpu time spent up to now is        5.9 secs

     total energy              =    -501.37954792 Ry
     estimated scf accuracy    <       0.01398127 Ry

     iteration #  8     ecut=    30.00 Ry     beta= 0.50
     Davidson diagonalization with overlap
     ethr =  5.46E-06,  avg # of iterations = 11.0

     total cpu time spent up to now is        6.1 secs

     total energy              =    -501.38034105 Ry
     estimated scf accuracy    <       0.02829593 Ry

     iteration #  9     ecut=    30.00 Ry     beta= 0.50
     Davidson diagonalization with overlap
     ethr =  5.46E-06,  avg # of iterations =  2.0

     total cpu time spent up to now is        6.2 secs

     total energy              =    -501.38260769 Ry
     estimated scf accuracy    <       0.00186173 Ry

     iteration # 10     ecut=    30.00 Ry     beta= 0.50
     Davidson diagonalization with overlap
     ethr =  7.27E-07,  avg # of iterations =  3.0

     total cpu time spent up to now is        6.3 secs

     total energy              =    -501.38284231 Ry
     estimated scf accuracy    <       0.00074397 Ry

     iteration # 11     ecut=    30.00 Ry     beta= 0.50
     Davidson diagonalization with overlap
     ethr =  2.91E-07,  avg # of iterations =  3.0

     total cpu time spent up to now is        6.4 secs

     total energy              =    -501.38287204 Ry
     estimated scf accuracy    <       0.00056042 Ry

     iteration # 12     ecut=    30.00 Ry     beta= 0.50
     Davidson diagonalization with overlap
     ethr =  2.19E-07,  avg # of iterations =  2.0

     total cpu time spent up to now is        6.5 secs

     total energy              =    -501.38291620 Ry
     estimated scf accuracy    <       0.00043759 Ry

     iteration # 13     ecut=    30.00 Ry     beta= 0.50
     Davidson diagonalization with overlap
     ethr =  1.71E-07,  avg # of iterations =  2.0

     total cpu time spent up to now is        6.6 secs

     total energy              =    -501.38294305 Ry
     estimated scf accuracy    <       0.00019309 Ry

     iteration # 14     ecut=    30.00 Ry     beta= 0.50
     Davidson diagonalization with overlap
     ethr =  7.54E-08,  avg # of iterations =  1.0

     total cpu time spent up to now is        6.7 secs

     total energy              =    -501.38295914 Ry
     estimated scf accuracy    <       0.00000930 Ry

     iteration # 15     ecut=    30.00 Ry     beta= 0.50
     Davidson diagonalization with overlap
     ethr =  3.63E-09,  avg # of iterations =  5.0

     total cpu time spent up to now is        6.8 secs

     total energy              =    -501.38296058 Ry
     estimated scf accuracy    <       0.00001826 Ry

     iteration # 16     ecut=    30.00 Ry     beta= 0.50
     Davidson diagonalization with overlap
     ethr =  3.63E-09,  avg # of iterations =  3.0

     total cpu time spent up to now is        6.9 secs

     total energy              =    -501.38296219 Ry
     estimated scf accuracy    <       0.00001102 Ry

     iteration # 17     ecut=    30.00 Ry     beta= 0.50
     Davidson diagonalization with overlap
     ethr =  3.63E-09,  avg # of iterations =  2.0

     total cpu time spent up to now is        7.0 secs

     total energy              =    -501.38296287 Ry
     estimated scf accuracy    <       0.00000155 Ry

     iteration # 18     ecut=    30.00 Ry     beta= 0.50
     Davidson diagonalization with overlap
     ethr =  6.07E-10,  avg # of iterations =  2.0

     total cpu time spent up to now is        7.1 secs

     total energy              =    -501.38296305 Ry
     estimated scf accuracy    <       0.00000126 Ry

     iteration # 19     ecut=    30.00 Ry     beta= 0.50
     Davidson diagonalization with overlap
     ethr =  4.93E-10,  avg # of iterations =  1.0

     total cpu time spent up to now is        7.2 secs

     End of self-consistent calculation

          k = 0.0000 0.0000 0.0000 ( 11492 PWs)   bands (ev):

    -5.3915  -4.4290  -4.4152  -4.2640  -4.1542  -4.0783  -3.8968  -3.4809
    -3.3490  -3.2489  -3.1429  -3.0967  -3.0476  -2.9862  -2.9077  -2.8464
    -2.7836  -2.6559  -2.5326  -2.1918  -2.1300  -1.8895  -1.8449  -1.7900
    -1.6147  -1.5443  -1.4010  -1.0865  -1.0248  -0.7230  -0.5985  -0.4873
    -0.3961  -0.1669  -0.0932  -0.0038   0.0025   0.0843   0.1451   0.1986
     0.2186   0.2877   0.4192   0.4595   0.5188   0.6500   0.7343   0.8021
     0.8631   0.9823   0.9862   1.1132   1.2040   1.3931   1.4322   1.5022
     1.6657   1.7170   1.7774   1.9502   2.0027   2.1624   2.2362   2.3908
     2.4071   2.5377   2.5681   2.6779   2.7065   2.7487   2.8146   2.8928
     2.9709   3.0048   3.0747   3.1748   3.3564   3.3637   3.5060   3.5540
     3.6940   3.9014   4.0126   4.0513   4.3027   4.3734   4.4516   4.5203
     4.6428   4.7058   4.7493   4.8116   4.8666   4.9567   5.0360   5.0805
     5.1175   5.2471   5.2922   5.3572   5.3623   5.4796   5.5264   5.5927
     5.6353   5.6734   5.7318   5.7979   5.8082   5.8381   5.8883   5.9820
     6.0514   6.0711   6.1147   6.2174   6.2778   6.3329   6.3487   6.4997
     6.5440   6.6160   6.6529   6.6871   6.7576   6.8197   6.8564   6.8703
     6.9810   7.0392   7.0433   7.1426   7.2246   7.2464   7.3600   7.3750
     7.4413   7.4529   7.5229   7.5847   7.6975   7.7214   7.7520   7.8748
     7.9643   8.0333   8.1146   8.1609   8.2048   8.2313   8.3226   8.3641
     8.4673   8.4811

     the Fermi energy is     6.9436 ev

!    total energy              =    -501.38296313 Ry
     estimated scf accuracy    <       0.00000005 Ry
     smearing contrib. (-TS)   =      -0.15867713 Ry
     internal energy E=F+TS    =    -501.22428601 Ry

     The total energy is F=E-TS. E is the sum of the following terms:
     one-electron contribution =     186.33771365 Ry
     hartree contribution      =      23.36531154 Ry
     xc contribution           =    -149.96576677 Ry
     ewald contribution        =    -560.96154442 Ry

     convergence has been achieved in  19 iterations

     Forces acting on atoms (cartesian axes, Ry/au):

     atom    1 type  1   force =    -0.04472897   -0.01495077    0.02754299
     atom    2 type  1   force =    -0.01262218   -0.01728709   -0.02340367
     atom    3 type  1   force =     0.01442958    0.04705417   -0.00854646
     atom    4 type  1   force =     0.00366836    0.01488637    0.00466968
     atom    5 type  1   force =     0.00371690   -0.03160666    0.01685382
     atom    6 type  1   force =    -0.01391580   -0.02859074   -0.06775604
     atom    7 type  1   force =    -0.00843779   -0.00044141   -0.00477132
     atom    8 type  1   force =    -0.00374789   -0.00720987    0.01588927
     atom    9 type  1   force =    -0.00985971    0.01349500   -0.00519437
     atom   10 type  1   force =     0.01673074    0.02044763    0.04685233
     atom   11 type  1   force =    -0.03939703    0.04278489    0.00042333
     atom   12 type  1   force =    -0.01126134    0.00165648   -0.00957956
     atom   13 type  1   force =    -0.00969722    0.01176622    0.00946318
     atom   14 type  1   force =    -0.00887034    0.01037486    0.00082657
     atom   15 type  1   force =     0.02135711   -0.06086892   -0.01907320
     atom   16 type  1   force =    -0.00915186   -0.03501132    0.00855763
     atom   17 type  1   force =    -0.01692120    0.00170185    0.00426154
     atom   18 type  1   force =     0.00457127   -0.00662143   -0.01830904
     atom   19 type  1   force =    -0.00105962   -0.01216597    0.00421132
     atom   20 type  1   force =     0.00860616   -0.00601874   -0.02625033
     atom   21 type  1   force =    -0.02807019    0.00250462   -0.03424296
     atom   22 type  1   force =    -0.00697576   -0.00422341    0.00642535
     atom   23 type  1   force =    -0.02620830    0.03511220    0.00146616
     atom   24 type  1   force =    -0.00157611   -0.04067757   -0.05225644
     atom   25 type  1   force =    -0.07190938    0.00587912    0.01149831
     atom   26 type  1   force =    -0.01427683    0.00099364    0.02078829
     atom   27 type  1   force =     0.01129519    0.00547366    0.01859702
     atom   28 type  1   force =     0.01977273    0.01516014   -0.00664490
     atom   29 type  1   force =     0.01705794    0.00936243    0.01492847
     atom   30 type  1   force =    -0.00831250   -0.00333293   -0.01282750
     atom   31 type  1   force =     0.00373663   -0.01634116   -0.01527615
     atom   32 type  1   force =     0.00400790    0.02681080    0.00826043
     atom   33 type  1   force =     0.03897328    0.04525120    0.04942624
     atom   34 type  1   force =    -0.00765581   -0.01431931    0.04285244
     atom   35 type  1   force =     0.00842649    0.00008951   -0.02046327
     atom   36 type  1   force =    -0.01961620    0.00114337   -0.00189787
     atom   37 type  1   force =     0.00783898   -0.01490371   -0.00198361
     atom   38 type  1   force =    -0.03247413    0.01434532    0.02461397
     atom   39 type  1   force =    -0.00729039   -0.00332054   -0.01443931
     atom   40 type  1   force =    -0.02876690    0.00368500   -0.00325565
     atom   41 type  1   force =     0.00554746   -0.03330056   -0.02201191
     atom   42 type  1   force =    -0.01198987    0.00307514    0.00665147
     atom   43 type  1   force =     0.00170053   -0.02896815    0.00260197
     atom   44 type  1   force =    -0.01789941   -0.01318864   -0.00985297
     atom   45 type  1   force =    -0.01251990   -0.00407482   -0.04124067
     atom   46 type  1   force =     0.02759046   -0.01156423    0.01390310
     atom   47 type  1   force =    -0.00813321    0.03173346   -0.03492963
     atom   48 type  1   force =     0.00129812    0.01610299    0.02964677
     atom   49 type  1   force =     0.00645152   -0.01279016    0.01713108
     atom   50 type  1   force =    -0.02309511    0.02260806   -0.00139297
     atom   51 type  1   force =     0.02590210    0.01220992    0.00984257
     atom   52 type  1   force =     0.04568907    0.00768987   -0.00662568
     atom   53 type  1   force =    -0.00685819   -0.01102594   -0.00324789
     atom   54 type  1   force =     0.06686151   -0.01019429    0.00734916
     atom   55 type  1   force =     0.03771547    0.03377499   -0.02856129
     atom   56 type  1   force =     0.01560989    0.00470549    0.01094717
     atom   57 type  1   force =     0.00774028   -0.00193047    0.00354194
     atom   58 type  1   force =    -0.01630368   -0.00878108   -0.01245385
     atom   59 type  1   force =     0.06616635   -0.01834221    0.00420209
     atom   60 type  1   force =    -0.00982286   -0.00281699    0.01268211
     atom   61 type  1   force =    -0.00383351    0.02242392    0.01350489
     atom   62 type  1   force =     0.01718292   -0.00859215    0.02940899
     atom   63 type  1   force =     0.02107751   -0.01209082    0.00028166
     atom   64 type  1   force =     0.02253672    0.01124977    0.00638524

     Total force =     0.300928     Total SCF correction =     0.000404


     Computing stress (Cartesian axis) and pressure

          total   stress  (Ry/bohr**3)                   (kbar)     P=      -47.18
  -0.00034696  -0.00004143   0.00004269          -51.04       -6.09        6.28
  -0.00004143  -0.00029564   0.00001072           -6.09      -43.49        1.58
   0.00004269   0.00001072  -0.00031958            6.28        1.58      -47.01

 
     init_run     :      1.10s CPU      4.96s WALL (       1 calls)
     electrons    :      1.99s CPU      2.16s WALL (       1 calls)
     forces       :      0.04s CPU      0.04s WALL (       1 calls)
     stress       :      0.15s CPU      0.16s WALL (       1 calls)

     Called by init_run:
     wfcinit      :      0.55s CPU      4.23s WALL (       1 calls)
                                        4.23s GPU  (       1 calls)
     potinit      :      0.06s CPU      0.16s WALL (       1 calls)
     hinit0       :      0.47s CPU      0.50s WALL (       1 calls)

     Called by electrons:
     c_bands      :      1.16s CPU      1.23s WALL (      20 calls)
     sum_band     :      0.40s CPU      0.45s WALL (      20 calls)
     v_of_rho     :      0.19s CPU      0.30s WALL (      20 calls)
     mix_rho      :      0.20s CPU      0.21s WALL (      20 calls)

     Called by c_bands:
     init_us_2    :      0.07s CPU      0.08s WALL (      41 calls)
     init_us_2:gp :      0.07s CPU      0.07s WALL (      41 calls)
     regterg      :      0.99s CPU      1.06s WALL (      20 calls)

     Called by *egterg:
     rdiaghg      :      0.39s CPU      1.16s WALL (      80 calls)
                                        1.14s GPU  (      80 calls)
     h_psi        :      0.97s CPU      3.94s WALL (      82 calls)
                                        3.93s GPU  (      82 calls)
     g_psi        :      0.00s CPU      0.00s WALL (      61 calls)
                                        0.00s GPU  (      61 calls)

     Called by h_psi:
     h_psi:calbec :      0.52s CPU      3.40s WALL (      82 calls)
                                        3.40s GPU  (      82 calls)
     vloc_psi     :      0.40s CPU      0.47s WALL (      82 calls)
                                        0.47s GPU  (      82 calls)
     add_vuspsi   :      0.03s CPU      0.05s WALL (      82 calls)
                                        0.05s GPU  (      82 calls)

     General routines
     calbec       :      0.53s CPU      3.41s WALL (      87 calls)
     fft          :      0.63s CPU      0.77s WALL (     167 calls)
                                        0.14s GPU  (     106 calls)
     ffts         :      0.05s CPU      0.05s WALL (      20 calls)
     fftw         :      0.49s CPU      0.64s WALL (    2090 calls)
                                        0.55s GPU  (    2090 calls)
 
     Parallel routines
 
     PWSCF        :      3.32s CPU      7.40s WALL

 
   This run was terminated on:  11: 1:34  10May2023            

=------------------------------------------------------------------------------=
   JOB DONE.
=------------------------------------------------------------------------------=
