An instance of this daemon is already running
An instance of this daemon is already running
An instance of this daemon is already running

     Program PWSCF v.7.1 starts on 10May2023 at 11: 0:19 

     This program is part of the open-source Quantum ESPRESSO suite
     for quantum simulation of materials; please cite
         "P. Giannozzi et al., J. Phys.:Condens. Matter 21 395502 (2009);
         "P. Giannozzi et al., J. Phys.:Condens. Matter 29 465901 (2017);
         "P. Giannozzi et al., J. Chem. Phys. 152 154105 (2020);
          URL http://www.quantum-espresso.org", 
     in publications or presentations arising from this work. More details at
     http://www.quantum-espresso.org/quote

     Parallel version (MPI & OpenMP), running on       4 processor cores
     Number of MPI processes:                 4
     Threads/MPI process:                     1

     MPI processes distributed on     1 nodes
     753558 MiB available memory on the printing compute node when the environment starts
 
     Reading input from pw-si-39.in
Warning: card &CELL ignored
Warning: card / ignored

     Current dimensions of program PWSCF are:
     Max number of different atomic species (ntypx) = 10
     Max number of k-points (npk) =  40000
     Max angular momentum in pseudopotentials (lmaxx) =  4

     IMPORTANT: XC functional enforced from input :
     Exchange-correlation= PBE
                           (   1   4   3   4   0   0   0)
     Any further DFT definition will be discarded
     Please, verify this is what you really want


     gamma-point specific algorithms are used
 
     K-points division:     npool     =       2
     R & G space division:  proc/nbgrp/npool/nimage =       2
     Subspace diagonalization in iterative solution of the eigenvalue problem:
     a serial algorithm will be used

     Message from routine divide_et_impera:
     suboptimal parallelization: some nodes have no k-points
 
     Parallelization info
     --------------------
     sticks:   dense  smooth     PW     G-vecs:    dense   smooth      PW
     Min        1992    1992    524                94592    94592   12836
     Max        1993    1993    525                94599    94599   12841
     Sum        3985    3985   1049               189191   189191   25677
 
     Using Slab Decomposition
 


     bravais-lattice index     =            0
     lattice parameter (alat)  =      20.4198  a.u.
     unit-cell volume          =    8514.3553 (a.u.)^3
     number of atoms/cell      =           64
     number of atomic types    =            1
     number of electrons       =       256.00
     number of Kohn-Sham states=          154
     kinetic-energy cutoff     =      30.0000  Ry
     charge density cutoff     =     120.0000  Ry
     scf convergence threshold =      1.0E-06
     mixing beta               =       0.5000
     number of iterations used =            8  plain     mixing
     Exchange-correlation= PBE
                           (   1   4   3   4   0   0   0)

     GPU acceleration is ACTIVE.
     GPU-aware MPI enabled

     Message from routine print_cuda_info:
     High GPU oversubscription detected. Are you sure this is what you want?

     celldm(1)=  20.419758  celldm(2)=   0.000000  celldm(3)=   0.000000
     celldm(4)=   0.000000  celldm(5)=   0.000000  celldm(6)=   0.000000

     crystal axes: (cart. coord. in units of alat)
               a(1) = (   1.000000   0.000000   0.000000 )  
               a(2) = (   0.000000   1.000000   0.000000 )  
               a(3) = (   0.000000   0.000000   1.000000 )  

     reciprocal axes: (cart. coord. in units 2 pi/alat)
               b(1) = (  1.000000  0.000000  0.000000 )  
               b(2) = (  0.000000  1.000000  0.000000 )  
               b(3) = (  0.000000  0.000000  1.000000 )  


     PseudoPot. # 1 for Si read from file:
     /home/ppiaggi/pseudos/Si_ONCV_PBE_sr.upf
     MD5 check sum: 8553c464762ac42b85b1eed164b4d029
     Pseudo is Norm-conserving, Zval =  4.0
     Generated using ONCVPSP code by D. R. Hamann
     Using radial grid of 1510 points,  4 beta functions with: 
                l(1) =   0
                l(2) =   0
                l(3) =   1
                l(4) =   1

     atomic species   valence    mass     pseudopotential
        Si             4.00    28.08500     Si( 1.00)

     No symmetry found



   Cartesian axes

     site n.     atom                  positions (alat units)
         1           Si  tau(   1) = (   0.3155360   0.1145570   0.3947180  )
         2           Si  tau(   2) = (   0.7114970   0.9672400   0.9984940  )
         3           Si  tau(   3) = (   0.7397880   0.3171950   0.8016730  )
         4           Si  tau(   4) = (   0.6205250   0.9168120   0.7913170  )
         5           Si  tau(   5) = (   0.2085640   0.0854959   0.6406770  )
         6           Si  tau(   6) = (   0.5424070   0.9264620   0.2249520  )
         7           Si  tau(   7) = (   0.4266380   0.9676770   0.7159610  )
         8           Si  tau(   8) = (   0.8787250   0.1836390   0.6894340  )
         9           Si  tau(   9) = (   0.8907440   0.9843020   0.7917990  )
        10           Si  tau(  10) = (   0.9313600   0.4740970   0.7818700  )
        11           Si  tau(  11) = (   0.3144530   0.0622727   0.9289700  )
        12           Si  tau(  12) = (   0.2583130   0.7420930   0.5149900  )
        13           Si  tau(  13) = (   0.2786380   0.5121180   0.1883660  )
        14           Si  tau(  14) = (   0.3730250   0.0999734   0.1895230  )
        15           Si  tau(  15) = (   0.4866140   0.3924310   0.3185840  )
        16           Si  tau(  16) = (   0.4254430   0.5165780   0.0096735  )
        17           Si  tau(  17) = (   0.1491590   0.8607930   0.6680000  )
        18           Si  tau(  18) = (   0.0818544   0.2889060   0.7856500  )
        19           Si  tau(  19) = (   0.2311600   0.3676510   0.6650860  )
        20           Si  tau(  20) = (   0.7481070   0.7006540   0.0010451  )
        21           Si  tau(  21) = (   0.0397325   0.9816020   0.3686970  )
        22           Si  tau(  22) = (   0.1844270   0.5095430   0.4834850  )
        23           Si  tau(  23) = (   0.9994900   0.5152250   0.1266000  )
        24           Si  tau(  24) = (   0.4703330   0.7712480   0.3875240  )
        25           Si  tau(  25) = (   0.5369720   0.7319570   0.9120750  )
        26           Si  tau(  26) = (   0.2568720   0.7786480   0.8598440  )
        27           Si  tau(  27) = (   0.2613100   0.7403520   0.1652060  )
        28           Si  tau(  28) = (   0.0849582   0.7934580   0.0247384  )
        29           Si  tau(  29) = (   0.4668170   0.7169550   0.6566270  )
        30           Si  tau(  30) = (   0.5474890   0.4236390   0.7655180  )
        31           Si  tau(  31) = (   0.4193500   0.2834160   0.9663850  )
        32           Si  tau(  32) = (   0.1133080   0.0402278   0.8470680  )
        33           Si  tau(  33) = (   0.4869720   0.0930008   0.5329110  )
        34           Si  tau(  34) = (   0.6151150   0.5524700   0.5645020  )
        35           Si  tau(  35) = (   0.2564650   0.8951170   0.3348440  )
        36           Si  tau(  36) = (   0.1255560   0.5172950   0.9389520  )
        37           Si  tau(  37) = (   0.9787620   0.5048570   0.5582860  )
        38           Si  tau(  38) = (   0.9224240   0.7983160   0.7083570  )
        39           Si  tau(  39) = (   0.9053700   0.2781830   0.2364630  )
        40           Si  tau(  40) = (   0.0642294   0.1795390   0.4788220  )
        41           Si  tau(  41) = (   0.7535650   0.7957800   0.2146160  )
        42           Si  tau(  42) = (   0.1838870   0.3160960   0.9759480  )
        43           Si  tau(  43) = (   0.8391850   0.0235982   0.2739650  )
        44           Si  tau(  44) = (   0.6173420   0.6121220   0.3104770  )
        45           Si  tau(  45) = (   0.4303820   0.8729290   0.0300601  )
        46           Si  tau(  46) = (   0.9366970   0.9639830   0.0736343  )
        47           Si  tau(  47) = (   0.6525690   0.5190010   0.1006480  )
        48           Si  tau(  48) = (   0.8663860   0.3778620   0.4162480  )
        49           Si  tau(  49) = (   0.1525970   0.0698584   0.1342350  )
        50           Si  tau(  50) = (   0.4218590   0.2507450   0.7234550  )
        51           Si  tau(  51) = (   0.1378170   0.2741430   0.2166400  )
        52           Si  tau(  52) = (   0.6739920   0.9885940   0.4420870  )
        53           Si  tau(  53) = (   0.7880670   0.6034040   0.4205440  )
        54           Si  tau(  54) = (   0.7130090   0.8141350   0.5912880  )
        55           Si  tau(  55) = (   0.9304470   0.6895620   0.8863190  )
        56           Si  tau(  56) = (   0.3324870   0.5756930   0.8039080  )
        57           Si  tau(  57) = (   0.7638560   0.1870520   0.5040910  )
        58           Si  tau(  58) = (   0.5897330   0.3012240   0.5130100  )
        59           Si  tau(  59) = (   0.2960300   0.3270730   0.3947550  )
        60           Si  tau(  60) = (   0.9800570   0.7070130   0.2361920  )
        61           Si  tau(  61) = (   0.7932990   0.3728120   0.0024770  )
        62           Si  tau(  62) = (   0.7356310   0.1658180   0.1092670  )
        63           Si  tau(  63) = (   0.5454580   0.2849310   0.1436970  )
        64           Si  tau(  64) = (   0.9493740   0.7794940   0.4826460  )

     number of k points=     1  Fermi-Dirac smearing, width (Ry)=  0.0100
                       cart. coord. in units 2pi/alat
        k(    1) = (   0.0000000   0.0000000   0.0000000), wk =   2.0000000

     Dense  grid:    94596 G-vectors     FFT dimensions: (  72,  72,  72)

     Estimated max dynamical RAM per process >     151.04 MB

     Estimated total dynamical RAM >     581.06 MB

     Initial potential from superposition of free atoms

     starting charge     255.9608, renormalised to     256.0000
     Starting wfcs are  256 randomized atomic wfcs

     total cpu time spent up to now is        5.0 secs

     Self-consistent Calculation

     iteration #  1     ecut=    30.00 Ry     beta= 0.50
     Davidson diagonalization with overlap
     ethr =  1.00E-02,  avg # of iterations =  3.0

     Threshold (ethr) on eigenvalues was too large:
     Diagonalizing with lowered threshold

     Davidson diagonalization with overlap
     ethr =  4.23E-04,  avg # of iterations =  4.0

     total cpu time spent up to now is        5.3 secs

     total energy              =    -501.28140370 Ry
     estimated scf accuracy    <       1.27987598 Ry

     iteration #  2     ecut=    30.00 Ry     beta= 0.50
     Davidson diagonalization with overlap
     ethr =  5.00E-04,  avg # of iterations =  4.0

     total cpu time spent up to now is        5.4 secs

     total energy              =    -500.93572330 Ry
     estimated scf accuracy    <       3.55475308 Ry

     iteration #  3     ecut=    30.00 Ry     beta= 0.50
     Davidson diagonalization with overlap
     ethr =  5.00E-04,  avg # of iterations =  3.0

     total cpu time spent up to now is        5.5 secs

     total energy              =    -501.25471244 Ry
     estimated scf accuracy    <       2.84592772 Ry

     iteration #  4     ecut=    30.00 Ry     beta= 0.50
     Davidson diagonalization with overlap
     ethr =  5.00E-04,  avg # of iterations =  2.0

     total cpu time spent up to now is        5.6 secs

     total energy              =    -501.45917079 Ry
     estimated scf accuracy    <       0.51891256 Ry

     iteration #  5     ecut=    30.00 Ry     beta= 0.50
     Davidson diagonalization with overlap
     ethr =  2.03E-04,  avg # of iterations =  2.0

     total cpu time spent up to now is        5.7 secs

     total energy              =    -501.47703553 Ry
     estimated scf accuracy    <       0.47479783 Ry

     iteration #  6     ecut=    30.00 Ry     beta= 0.50
     Davidson diagonalization with overlap
     ethr =  1.85E-04,  avg # of iterations =  2.0

     total cpu time spent up to now is        5.8 secs

     total energy              =    -501.52152066 Ry
     estimated scf accuracy    <       0.08120560 Ry

     iteration #  7     ecut=    30.00 Ry     beta= 0.50
     Davidson diagonalization with overlap
     ethr =  3.17E-05,  avg # of iterations =  2.0

     total cpu time spent up to now is        5.9 secs

     total energy              =    -501.52966060 Ry
     estimated scf accuracy    <       0.01717213 Ry

     iteration #  8     ecut=    30.00 Ry     beta= 0.50
     Davidson diagonalization with overlap
     ethr =  6.71E-06,  avg # of iterations = 13.0

     total cpu time spent up to now is        6.0 secs

     total energy              =    -501.53134227 Ry
     estimated scf accuracy    <       0.01954681 Ry

     iteration #  9     ecut=    30.00 Ry     beta= 0.50
     Davidson diagonalization with overlap
     ethr =  6.71E-06,  avg # of iterations =  2.0

     total cpu time spent up to now is        6.1 secs

     total energy              =    -501.53286711 Ry
     estimated scf accuracy    <       0.00169292 Ry

     iteration # 10     ecut=    30.00 Ry     beta= 0.50
     Davidson diagonalization with overlap
     ethr =  6.61E-07,  avg # of iterations =  5.0

     total cpu time spent up to now is        6.3 secs

     total energy              =    -501.53308817 Ry
     estimated scf accuracy    <       0.00109827 Ry

     iteration # 11     ecut=    30.00 Ry     beta= 0.50
     Davidson diagonalization with overlap
     ethr =  4.29E-07,  avg # of iterations =  3.0

     total cpu time spent up to now is        6.4 secs

     total energy              =    -501.53318882 Ry
     estimated scf accuracy    <       0.00056251 Ry

     iteration # 12     ecut=    30.00 Ry     beta= 0.50
     Davidson diagonalization with overlap
     ethr =  2.20E-07,  avg # of iterations =  2.0

     total cpu time spent up to now is        6.5 secs

     total energy              =    -501.53323554 Ry
     estimated scf accuracy    <       0.00012985 Ry

     iteration # 13     ecut=    30.00 Ry     beta= 0.50
     Davidson diagonalization with overlap
     ethr =  5.07E-08,  avg # of iterations =  3.0

     total cpu time spent up to now is        6.6 secs

     total energy              =    -501.53324183 Ry
     estimated scf accuracy    <       0.00025344 Ry

     iteration # 14     ecut=    30.00 Ry     beta= 0.50
     Davidson diagonalization with overlap
     ethr =  5.07E-08,  avg # of iterations =  2.0

     total cpu time spent up to now is        6.7 secs

     total energy              =    -501.53325888 Ry
     estimated scf accuracy    <       0.00000653 Ry

     iteration # 15     ecut=    30.00 Ry     beta= 0.50
     Davidson diagonalization with overlap
     ethr =  2.55E-09,  avg # of iterations =  4.0

     total cpu time spent up to now is        6.8 secs

     total energy              =    -501.53326019 Ry
     estimated scf accuracy    <       0.00001403 Ry

     iteration # 16     ecut=    30.00 Ry     beta= 0.50
     Davidson diagonalization with overlap
     ethr =  2.55E-09,  avg # of iterations =  3.0

     total cpu time spent up to now is        6.9 secs

     total energy              =    -501.53326128 Ry
     estimated scf accuracy    <       0.00001116 Ry

     iteration # 17     ecut=    30.00 Ry     beta= 0.50
     Davidson diagonalization with overlap
     ethr =  2.55E-09,  avg # of iterations =  2.0

     total cpu time spent up to now is        7.0 secs

     total energy              =    -501.53326198 Ry
     estimated scf accuracy    <       0.00000111 Ry

     iteration # 18     ecut=    30.00 Ry     beta= 0.50
     Davidson diagonalization with overlap
     ethr =  4.35E-10,  avg # of iterations =  2.0

     total cpu time spent up to now is        7.1 secs

     End of self-consistent calculation

          k = 0.0000 0.0000 0.0000 ( 11792 PWs)   bands (ev):

    -5.6305  -4.7816  -4.6845  -4.5477  -4.4983  -4.3911  -4.1911  -3.8549
    -3.7437  -3.5838  -3.5574  -3.4585  -3.4489  -3.3788  -3.1963  -3.1422
    -2.9939  -2.9334  -2.7081  -2.5530  -2.4187  -2.3834  -2.2420  -2.1328
    -1.9893  -1.9444  -1.5900  -1.4265  -1.2815  -1.2181  -1.1121  -0.9941
    -0.7709  -0.7321  -0.5934  -0.5148  -0.4090  -0.3135  -0.2109  -0.1570
    -0.0307   0.0295   0.1025   0.1920   0.2835   0.3542   0.4822   0.5008
     0.5928   0.7075   0.8431   0.8623   0.9708   1.0723   1.1402   1.2131
     1.2919   1.3838   1.4671   1.6680   1.7041   1.8655   1.9842   2.0199
     2.1674   2.2320   2.2619   2.3378   2.4634   2.4988   2.6019   2.6712
     2.7119   2.7316   2.8285   2.9682   3.0677   3.1990   3.2755   3.3304
     3.4933   3.5498   3.6538   3.8317   3.8803   4.0066   4.1684   4.2237
     4.2832   4.3494   4.4346   4.4850   4.5200   4.5523   4.6358   4.7073
     4.7483   4.8133   4.8542   4.9227   4.9835   5.0839   5.1403   5.1698
     5.2288   5.2794   5.2975   5.4259   5.4673   5.4734   5.5723   5.6089
     5.6730   5.7520   5.7940   5.8373   5.8861   5.9363   5.9574   6.0267
     6.1183   6.2228   6.3463   6.3619   6.4516   6.4866   6.5503   6.5524
     6.6667   6.7338   6.7770   6.8073   6.9295   6.9440   7.0066   7.1605
     7.1994   7.2123   7.3526   7.3990   7.4665   7.5494   7.5942   7.6371
     7.6705   7.7999   7.8358   7.9288   7.9611   8.0254   8.1047   8.1143
     8.1600   8.1877

     the Fermi energy is     6.6301 ev

!    total energy              =    -501.53326144 Ry
     estimated scf accuracy    <       0.00000084 Ry
     smearing contrib. (-TS)   =      -0.14497443 Ry
     internal energy E=F+TS    =    -501.38828701 Ry

     The total energy is F=E-TS. E is the sum of the following terms:
     one-electron contribution =     167.06130349 Ry
     hartree contribution      =      30.02486655 Ry
     xc contribution           =    -150.23333378 Ry
     ewald contribution        =    -548.24112327 Ry

     convergence has been achieved in  18 iterations

     Forces acting on atoms (cartesian axes, Ry/au):

     atom    1 type  1   force =    -0.00406431   -0.03733544    0.03717695
     atom    2 type  1   force =     0.02570761   -0.01093140   -0.01158186
     atom    3 type  1   force =     0.01699336    0.03423038   -0.00973355
     atom    4 type  1   force =     0.01770064   -0.02828216    0.00885659
     atom    5 type  1   force =    -0.01183189   -0.01220733    0.00753856
     atom    6 type  1   force =    -0.01163792    0.00219766    0.00988095
     atom    7 type  1   force =    -0.03435759    0.02235049   -0.01516031
     atom    8 type  1   force =     0.02232676   -0.00879002    0.01067661
     atom    9 type  1   force =    -0.00899309    0.06618019    0.05073911
     atom   10 type  1   force =     0.00260822    0.00026633    0.01670366
     atom   11 type  1   force =     0.04433292   -0.02262567    0.02698555
     atom   12 type  1   force =     0.04375155   -0.02498265   -0.02040849
     atom   13 type  1   force =     0.00036393    0.02685484   -0.01237845
     atom   14 type  1   force =     0.02489757   -0.00345214   -0.01966229
     atom   15 type  1   force =     0.02613217    0.04036164    0.02634402
     atom   16 type  1   force =     0.01656137   -0.00903591   -0.01450077
     atom   17 type  1   force =    -0.02530254    0.01470169    0.02998766
     atom   18 type  1   force =    -0.06138377   -0.04602610    0.00147414
     atom   19 type  1   force =     0.06113932    0.03691358   -0.02842585
     atom   20 type  1   force =    -0.04446396   -0.00086662    0.02683327
     atom   21 type  1   force =     0.01033913   -0.00443152    0.00978818
     atom   22 type  1   force =     0.02292547    0.00952617    0.02959472
     atom   23 type  1   force =     0.00999904   -0.02279017   -0.00028408
     atom   24 type  1   force =     0.00018493   -0.00411168   -0.00820966
     atom   25 type  1   force =     0.03442375   -0.00871287   -0.04503647
     atom   26 type  1   force =    -0.00789005    0.02461260    0.00086573
     atom   27 type  1   force =     0.01100408    0.01587993   -0.00473062
     atom   28 type  1   force =    -0.01941214   -0.01173474   -0.00660544
     atom   29 type  1   force =    -0.00601128   -0.00023177   -0.00758912
     atom   30 type  1   force =     0.02412444    0.01826472   -0.01433682
     atom   31 type  1   force =    -0.04664911   -0.00580211   -0.03407346
     atom   32 type  1   force =    -0.02524847    0.00343729   -0.02091307
     atom   33 type  1   force =    -0.00404093    0.00027255    0.01457215
     atom   34 type  1   force =    -0.00951514    0.00032455    0.01132327
     atom   35 type  1   force =    -0.01510815   -0.01453414   -0.00613279
     atom   36 type  1   force =    -0.01477358    0.03266471   -0.01687584
     atom   37 type  1   force =    -0.00116940    0.01261843   -0.00038086
     atom   38 type  1   force =     0.02283902   -0.00084323   -0.06546556
     atom   39 type  1   force =     0.03595139    0.00205302   -0.03284761
     atom   40 type  1   force =     0.01858528   -0.01435552   -0.00398380
     atom   41 type  1   force =     0.01747234    0.00671399   -0.01802169
     atom   42 type  1   force =     0.03686787   -0.03610140    0.04805398
     atom   43 type  1   force =    -0.01736161   -0.01384808   -0.00553480
     atom   44 type  1   force =    -0.08201218   -0.01464187   -0.03736919
     atom   45 type  1   force =    -0.05267572    0.01373363    0.02336958
     atom   46 type  1   force =     0.01652384   -0.01171693   -0.01926917
     atom   47 type  1   force =    -0.02570345    0.01436297   -0.00700708
     atom   48 type  1   force =    -0.02021657    0.00803653    0.03456240
     atom   49 type  1   force =    -0.00273912    0.00875946    0.00381783
     atom   50 type  1   force =    -0.02241204   -0.00708532   -0.02301807
     atom   51 type  1   force =    -0.01607452   -0.00132548   -0.00992362
     atom   52 type  1   force =    -0.00934118   -0.01146749   -0.02171382
     atom   53 type  1   force =     0.06086880   -0.00859047    0.05682452
     atom   54 type  1   force =     0.01060248    0.00582756    0.00712088
     atom   55 type  1   force =     0.01670782   -0.06128131    0.02642770
     atom   56 type  1   force =    -0.00619810   -0.00400628    0.01151562
     atom   57 type  1   force =     0.05175773    0.02198990   -0.00127177
     atom   58 type  1   force =    -0.05337288    0.03697933    0.01230622
     atom   59 type  1   force =    -0.06129550    0.01955677   -0.02474057
     atom   60 type  1   force =    -0.00976557    0.01439521    0.00236186
     atom   61 type  1   force =     0.01024825   -0.01055592    0.03144743
     atom   62 type  1   force =     0.00354833    0.02471869    0.03111357
     atom   63 type  1   force =     0.01400962   -0.04433906   -0.00722743
     atom   64 type  1   force =    -0.00047726   -0.02174200   -0.03384871

     Total force =     0.351002     Total SCF correction =     0.001822


     Computing stress (Cartesian axis) and pressure

          total   stress  (Ry/bohr**3)                   (kbar)     P=      -39.53
  -0.00031874  -0.00007766  -0.00001760          -46.89      -11.42       -2.59
  -0.00007766  -0.00028752   0.00001559          -11.42      -42.30        2.29
  -0.00001760   0.00001559  -0.00020000           -2.59        2.29      -29.42

 
     init_run     :      1.08s CPU      4.93s WALL (       1 calls)
     electrons    :      1.89s CPU      2.06s WALL (       1 calls)
     forces       :      0.04s CPU      0.04s WALL (       1 calls)
     stress       :      0.16s CPU      0.16s WALL (       1 calls)

     Called by init_run:
     wfcinit      :      0.53s CPU      4.21s WALL (       1 calls)
                                        4.21s GPU  (       1 calls)
     potinit      :      0.05s CPU      0.14s WALL (       1 calls)
     hinit0       :      0.47s CPU      0.50s WALL (       1 calls)

     Called by electrons:
     c_bands      :      1.11s CPU      1.19s WALL (      19 calls)
     sum_band     :      0.38s CPU      0.42s WALL (      19 calls)
     v_of_rho     :      0.18s CPU      0.29s WALL (      19 calls)
     mix_rho      :      0.18s CPU      0.20s WALL (      19 calls)

     Called by c_bands:
     init_us_2    :      0.07s CPU      0.07s WALL (      39 calls)
     init_us_2:gp :      0.07s CPU      0.07s WALL (      39 calls)
     regterg      :      0.95s CPU      1.02s WALL (      19 calls)

     Called by *egterg:
     rdiaghg      :      0.38s CPU      1.13s WALL (      81 calls)
                                        1.12s GPU  (      81 calls)
     h_psi        :      0.91s CPU      3.89s WALL (      83 calls)
                                        3.88s GPU  (      83 calls)
     g_psi        :      0.00s CPU      0.00s WALL (      63 calls)
                                        0.00s GPU  (      63 calls)

     Called by h_psi:
     h_psi:calbec :      0.49s CPU      3.38s WALL (      83 calls)
                                        3.38s GPU  (      83 calls)
     vloc_psi     :      0.37s CPU      0.45s WALL (      83 calls)
                                        0.45s GPU  (      83 calls)
     add_vuspsi   :      0.03s CPU      0.05s WALL (      83 calls)
                                        0.05s GPU  (      83 calls)

     General routines
     calbec       :      0.49s CPU      3.38s WALL (      88 calls)
     fft          :      0.62s CPU      0.76s WALL (     159 calls)
                                        0.13s GPU  (     101 calls)
     ffts         :      0.05s CPU      0.05s WALL (      19 calls)
     fftw         :      0.46s CPU      0.61s WALL (    1997 calls)
                                        0.53s GPU  (    1997 calls)
 
     Parallel routines
 
     PWSCF        :      3.21s CPU      7.28s WALL

 
   This run was terminated on:  11: 0:26  10May2023            

=------------------------------------------------------------------------------=
   JOB DONE.
=------------------------------------------------------------------------------=
