An instance of this daemon is already running
An instance of this daemon is already running

     Program PWSCF v.7.1 starts on 10May2023 at 11: 0:48 

     This program is part of the open-source Quantum ESPRESSO suite
     for quantum simulation of materials; please cite
         "P. Giannozzi et al., J. Phys.:Condens. Matter 21 395502 (2009);
         "P. Giannozzi et al., J. Phys.:Condens. Matter 29 465901 (2017);
         "P. Giannozzi et al., J. Chem. Phys. 152 154105 (2020);
          URL http://www.quantum-espresso.org", 
     in publications or presentations arising from this work. More details at
     http://www.quantum-espresso.org/quote

     Parallel version (MPI & OpenMP), running on       4 processor cores
     Number of MPI processes:                 4
     Threads/MPI process:                     1

     MPI processes distributed on     1 nodes
     753556 MiB available memory on the printing compute node when the environment starts
 
     Reading input from pw-si-42.in
Warning: card &CELL ignored
Warning: card / ignored

     Current dimensions of program PWSCF are:
     Max number of different atomic species (ntypx) = 10
     Max number of k-points (npk) =  40000
     Max angular momentum in pseudopotentials (lmaxx) =  4

     IMPORTANT: XC functional enforced from input :
     Exchange-correlation= PBE
                           (   1   4   3   4   0   0   0)
     Any further DFT definition will be discarded
     Please, verify this is what you really want


     gamma-point specific algorithms are used
 
     K-points division:     npool     =       2
     R & G space division:  proc/nbgrp/npool/nimage =       2
     Subspace diagonalization in iterative solution of the eigenvalue problem:
     a serial algorithm will be used

     Message from routine divide_et_impera:
     suboptimal parallelization: some nodes have no k-points
 
     Parallelization info
     --------------------
     sticks:   dense  smooth     PW     G-vecs:    dense   smooth      PW
     Min        1945    1945    516                91431    91431   12416
     Max        1948    1948    517                91436    91436   12421
     Sum        3893    3893   1033               182867   182867   24837
 
     Using Slab Decomposition
 


     bravais-lattice index     =            0
     lattice parameter (alat)  =      20.1978  a.u.
     unit-cell volume          =    8239.7511 (a.u.)^3
     number of atoms/cell      =           64
     number of atomic types    =            1
     number of electrons       =       256.00
     number of Kohn-Sham states=          154
     kinetic-energy cutoff     =      30.0000  Ry
     charge density cutoff     =     120.0000  Ry
     scf convergence threshold =      1.0E-06
     mixing beta               =       0.5000
     number of iterations used =            8  plain     mixing
     Exchange-correlation= PBE
                           (   1   4   3   4   0   0   0)

     GPU acceleration is ACTIVE.
     GPU-aware MPI enabled

     Message from routine print_cuda_info:
     High GPU oversubscription detected. Are you sure this is what you want?

     celldm(1)=  20.197829  celldm(2)=   0.000000  celldm(3)=   0.000000
     celldm(4)=   0.000000  celldm(5)=   0.000000  celldm(6)=   0.000000

     crystal axes: (cart. coord. in units of alat)
               a(1) = (   1.000000   0.000000   0.000000 )  
               a(2) = (   0.000000   1.000000   0.000000 )  
               a(3) = (   0.000000   0.000000   1.000000 )  

     reciprocal axes: (cart. coord. in units 2 pi/alat)
               b(1) = (  1.000000  0.000000  0.000000 )  
               b(2) = (  0.000000  1.000000  0.000000 )  
               b(3) = (  0.000000  0.000000  1.000000 )  


     PseudoPot. # 1 for Si read from file:
     /home/ppiaggi/pseudos/Si_ONCV_PBE_sr.upf
     MD5 check sum: 8553c464762ac42b85b1eed164b4d029
     Pseudo is Norm-conserving, Zval =  4.0
     Generated using ONCVPSP code by D. R. Hamann
     Using radial grid of 1510 points,  4 beta functions with: 
                l(1) =   0
                l(2) =   0
                l(3) =   1
                l(4) =   1

     atomic species   valence    mass     pseudopotential
        Si             4.00    28.08500     Si( 1.00)

     No symmetry found



   Cartesian axes

     site n.     atom                  positions (alat units)
         1           Si  tau(   1) = (   0.0581866   0.1602200   0.5276410  )
         2           Si  tau(   2) = (   0.3171060   0.2295480   0.4859390  )
         3           Si  tau(   3) = (   0.6446370   0.8414070   0.0418050  )
         4           Si  tau(   4) = (   0.8643980   0.3232500   0.6798320  )
         5           Si  tau(   5) = (   0.0977554   0.8470400   0.2573950  )
         6           Si  tau(   6) = (   0.1914300   0.5960350   0.1969330  )
         7           Si  tau(   7) = (   0.9936480   0.7703730   0.6246190  )
         8           Si  tau(   8) = (   0.6052160   0.1266220   0.7890610  )
         9           Si  tau(   9) = (   0.8097740   0.5149450   0.8008140  )
        10           Si  tau(  10) = (   0.9041680   0.8249720   0.3910380  )
        11           Si  tau(  11) = (   0.8931020   0.2922470   0.9320810  )
        12           Si  tau(  12) = (   0.0802999   0.9615190   0.7058890  )
        13           Si  tau(  13) = (   0.1266250   0.2704330   0.1805190  )
        14           Si  tau(  14) = (   0.8742340   0.2797580   0.2734570  )
        15           Si  tau(  15) = (   0.0579334   0.1587020   0.8012480  )
        16           Si  tau(  16) = (   0.6751980   0.3247440   0.5737910  )
        17           Si  tau(  17) = (   0.4631260   0.2374890   0.2760850  )
        18           Si  tau(  18) = (   0.6485890   0.4683400   0.3874890  )
        19           Si  tau(  19) = (   0.1905930   0.4020480   0.3745040  )
        20           Si  tau(  20) = (   0.4286940   0.9939470   0.6571900  )
        21           Si  tau(  21) = (   0.9550240   0.9764240   0.1022030  )
        22           Si  tau(  22) = (   0.9160990   0.7002280   0.1382930  )
        23           Si  tau(  23) = (   0.2891480   0.9200520   0.8162360  )
        24           Si  tau(  24) = (   0.0557031   0.5006990   0.8580660  )
        25           Si  tau(  25) = (   0.8438460   0.5734080   0.3406910  )
        26           Si  tau(  26) = (   0.6534770   0.8406610   0.3485720  )
        27           Si  tau(  27) = (   0.6225040   0.1726690   0.0993097  )
        28           Si  tau(  28) = (   0.4888990   0.7668830   0.6659120  )
        29           Si  tau(  29) = (   0.7310580   0.6165490   0.9999040  )
        30           Si  tau(  30) = (   0.9754150   0.3997240   0.4425800  )
        31           Si  tau(  31) = (   0.1436960   0.1295420   0.0103700  )
        32           Si  tau(  32) = (   0.5014390   0.5761300   0.1182250  )
        33           Si  tau(  33) = (   0.3049150   0.6948010   0.8194940  )
        34           Si  tau(  34) = (   0.5599120   0.6542830   0.4478000  )
        35           Si  tau(  35) = (   0.8849230   0.0264129   0.3839610  )
        36           Si  tau(  36) = (   0.7265000   0.0043413   0.1819120  )
        37           Si  tau(  37) = (   0.6976400   0.4160930   0.1666080  )
        38           Si  tau(  38) = (   0.9969110   0.5402390   0.6131990  )
        39           Si  tau(  39) = (   0.3635420   0.3411130   0.8324500  )
        40           Si  tau(  40) = (   0.4491850   0.5300450   0.8934820  )
        41           Si  tau(  41) = (   0.4479870   0.8274190   0.2021690  )
        42           Si  tau(  42) = (   0.1771380   0.3391800   0.7431150  )
        43           Si  tau(  43) = (   0.6472310   0.1968530   0.3981100  )
        44           Si  tau(  44) = (   0.3532740   0.4790670   0.5389990  )
        45           Si  tau(  45) = (   0.2312690   0.9776850   0.5222270  )
        46           Si  tau(  46) = (   0.2706540   0.9477060   0.0692456  )
        47           Si  tau(  47) = (   0.9745000   0.4525420   0.1125250  )
        48           Si  tau(  48) = (   0.1132200   0.0827389   0.3164160  )
        49           Si  tau(  49) = (   0.5734760   0.5380460   0.7094320  )
        50           Si  tau(  50) = (   0.9835400   0.8386800   0.9254500  )
        51           Si  tau(  51) = (   0.6292750   0.9928060   0.5402980  )
        52           Si  tau(  52) = (   0.3586890   0.6623950   0.3516100  )
        53           Si  tau(  53) = (   0.8332810   0.0614768   0.6402740  )
        54           Si  tau(  54) = (   0.8320030   0.7646670   0.7750300  )
        55           Si  tau(  55) = (   0.6484690   0.3411840   0.9026110  )
        56           Si  tau(  56) = (   0.1526920   0.6584190   0.9832330  )
        57           Si  tau(  57) = (   0.3907350   0.4318930   0.2174950  )
        58           Si  tau(  58) = (   0.1916280   0.7787810   0.4569410  )
        59           Si  tau(  59) = (   0.4779870   0.2736380   0.6578540  )
        60           Si  tau(  60) = (   0.2137030   0.5842000   0.6646920  )
        61           Si  tau(  61) = (   0.3787990   0.2559240   0.0144334  )
        62           Si  tau(  62) = (   0.4498880   0.0519270   0.9646840  )
        63           Si  tau(  63) = (   0.6691290   0.8949670   0.7899690  )
        64           Si  tau(  64) = (   0.3491150   0.0227865   0.2844860  )

     number of k points=     1  Fermi-Dirac smearing, width (Ry)=  0.0100
                       cart. coord. in units 2pi/alat
        k(    1) = (   0.0000000   0.0000000   0.0000000), wk =   2.0000000

     Dense  grid:    91434 G-vectors     FFT dimensions: (  72,  72,  72)

     Estimated max dynamical RAM per process >     146.66 MB

     Estimated total dynamical RAM >     564.33 MB

     Initial potential from superposition of free atoms

     starting charge     255.9608, renormalised to     256.0000
     Starting wfcs are  256 randomized atomic wfcs

     total cpu time spent up to now is        5.0 secs

     Self-consistent Calculation

     iteration #  1     ecut=    30.00 Ry     beta= 0.50
     Davidson diagonalization with overlap
     ethr =  1.00E-02,  avg # of iterations =  3.0

     Threshold (ethr) on eigenvalues was too large:
     Diagonalizing with lowered threshold

     Davidson diagonalization with overlap
     ethr =  4.29E-04,  avg # of iterations =  4.0

     total cpu time spent up to now is        5.3 secs

     total energy              =    -501.05812376 Ry
     estimated scf accuracy    <       1.34186602 Ry

     iteration #  2     ecut=    30.00 Ry     beta= 0.50
     Davidson diagonalization with overlap
     ethr =  5.24E-04,  avg # of iterations =  4.0

     total cpu time spent up to now is        5.4 secs

     total energy              =    -500.44797056 Ry
     estimated scf accuracy    <       8.03107756 Ry

     iteration #  3     ecut=    30.00 Ry     beta= 0.50
     Davidson diagonalization with overlap
     ethr =  5.24E-04,  avg # of iterations =  4.0

     total cpu time spent up to now is        5.5 secs

     total energy              =    -501.17697415 Ry
     estimated scf accuracy    <       2.05257153 Ry

     iteration #  4     ecut=    30.00 Ry     beta= 0.50
     Davidson diagonalization with overlap
     ethr =  5.24E-04,  avg # of iterations =  2.0

     total cpu time spent up to now is        5.6 secs

     total energy              =    -501.31228629 Ry
     estimated scf accuracy    <       0.61882425 Ry

     iteration #  5     ecut=    30.00 Ry     beta= 0.50
     Davidson diagonalization with overlap
     ethr =  2.42E-04,  avg # of iterations =  2.0

     total cpu time spent up to now is        5.7 secs

     total energy              =    -501.33419873 Ry
     estimated scf accuracy    <       0.58340801 Ry

     iteration #  6     ecut=    30.00 Ry     beta= 0.50
     Davidson diagonalization with overlap
     ethr =  2.28E-04,  avg # of iterations =  2.0

     total cpu time spent up to now is        5.8 secs

     total energy              =    -501.38411743 Ry
     estimated scf accuracy    <       0.11382114 Ry

     iteration #  7     ecut=    30.00 Ry     beta= 0.50
     Davidson diagonalization with overlap
     ethr =  4.45E-05,  avg # of iterations =  2.0

     total cpu time spent up to now is        5.9 secs

     total energy              =    -501.39676382 Ry
     estimated scf accuracy    <       0.01596854 Ry

     iteration #  8     ecut=    30.00 Ry     beta= 0.50
     Davidson diagonalization with overlap
     ethr =  6.24E-06,  avg # of iterations = 18.0

     total cpu time spent up to now is        6.1 secs

     total energy              =    -501.39780280 Ry
     estimated scf accuracy    <       0.02912820 Ry

     iteration #  9     ecut=    30.00 Ry     beta= 0.50
     Davidson diagonalization with overlap
     ethr =  6.24E-06,  avg # of iterations =  2.0

     total cpu time spent up to now is        6.2 secs

     total energy              =    -501.40007219 Ry
     estimated scf accuracy    <       0.00261135 Ry

     iteration # 10     ecut=    30.00 Ry     beta= 0.50
     Davidson diagonalization with overlap
     ethr =  1.02E-06,  avg # of iterations =  3.0

     total cpu time spent up to now is        6.3 secs

     total energy              =    -501.40030378 Ry
     estimated scf accuracy    <       0.00221301 Ry

     iteration # 11     ecut=    30.00 Ry     beta= 0.50
     Davidson diagonalization with overlap
     ethr =  8.64E-07,  avg # of iterations =  2.0

     total cpu time spent up to now is        6.4 secs

     total energy              =    -501.40046244 Ry
     estimated scf accuracy    <       0.00068658 Ry

     iteration # 12     ecut=    30.00 Ry     beta= 0.50
     Davidson diagonalization with overlap
     ethr =  2.68E-07,  avg # of iterations =  2.0

     total cpu time spent up to now is        6.5 secs

     total energy              =    -501.40052784 Ry
     estimated scf accuracy    <       0.00027959 Ry

     iteration # 13     ecut=    30.00 Ry     beta= 0.50
     Davidson diagonalization with overlap
     ethr =  1.09E-07,  avg # of iterations =  3.0

     total cpu time spent up to now is        6.6 secs

     total energy              =    -501.40054828 Ry
     estimated scf accuracy    <       0.00027986 Ry

     iteration # 14     ecut=    30.00 Ry     beta= 0.50
     Davidson diagonalization with overlap
     ethr =  1.09E-07,  avg # of iterations =  1.0

     total cpu time spent up to now is        6.7 secs

     total energy              =    -501.40056649 Ry
     estimated scf accuracy    <       0.00002726 Ry

     iteration # 15     ecut=    30.00 Ry     beta= 0.50
     Davidson diagonalization with overlap
     ethr =  1.06E-08,  avg # of iterations =  4.0

     total cpu time spent up to now is        6.8 secs

     total energy              =    -501.40056925 Ry
     estimated scf accuracy    <       0.00003852 Ry

     iteration # 16     ecut=    30.00 Ry     beta= 0.50
     Davidson diagonalization with overlap
     ethr =  1.06E-08,  avg # of iterations =  2.0

     total cpu time spent up to now is        6.9 secs

     total energy              =    -501.40057209 Ry
     estimated scf accuracy    <       0.00001525 Ry

     iteration # 17     ecut=    30.00 Ry     beta= 0.50
     Davidson diagonalization with overlap
     ethr =  5.96E-09,  avg # of iterations =  2.0

     total cpu time spent up to now is        7.0 secs

     total energy              =    -501.40057304 Ry
     estimated scf accuracy    <       0.00000522 Ry

     iteration # 18     ecut=    30.00 Ry     beta= 0.50
     Davidson diagonalization with overlap
     ethr =  2.04E-09,  avg # of iterations =  2.0

     total cpu time spent up to now is        7.1 secs

     total energy              =    -501.40057353 Ry
     estimated scf accuracy    <       0.00000382 Ry

     iteration # 19     ecut=    30.00 Ry     beta= 0.50
     Davidson diagonalization with overlap
     ethr =  1.49E-09,  avg # of iterations =  1.0

     total cpu time spent up to now is        7.2 secs

     End of self-consistent calculation

          k = 0.0000 0.0000 0.0000 ( 11492 PWs)   bands (ev):

    -5.4722  -4.6455  -4.4748  -4.3418  -4.2055  -4.0666  -4.0209  -3.6678
    -3.4317  -3.3610  -3.3007  -3.2603  -3.1160  -3.0757  -2.9982  -2.9223
    -2.7519  -2.5360  -2.4901  -2.3325  -2.1283  -2.0282  -1.9419  -1.8731
    -1.5881  -1.5180  -1.3607  -1.1033  -0.9646  -0.8115  -0.6068  -0.5420
    -0.4865  -0.3396  -0.2242  -0.0879  -0.0410   0.0102   0.0686   0.1149
     0.2567   0.2908   0.3801   0.4424   0.5925   0.6646   0.7596   0.8249
     0.8809   0.9746   1.1015   1.1522   1.2329   1.2752   1.3344   1.4509
     1.5848   1.7668   1.9080   1.9869   2.0395   2.1742   2.2578   2.3188
     2.4685   2.5134   2.6151   2.6621   2.7187   2.7779   2.7890   2.9149
     3.0281   3.0705   3.0912   3.2604   3.3113   3.4961   3.5320   3.5615
     3.7064   3.8848   4.0647   4.1282   4.3593   4.4056   4.4309   4.5644
     4.5873   4.6575   4.7537   4.8151   4.8670   4.9977   5.0618   5.0971
     5.1698   5.2571   5.3013   5.3491   5.4388   5.4906   5.5667   5.6236
     5.6385   5.6629   5.7191   5.7902   5.8248   5.8984   5.9475   6.0178
     6.0462   6.0794   6.1910   6.1947   6.2775   6.3449   6.3888   6.4400
     6.4506   6.5340   6.6669   6.6955   6.7523   6.8194   6.8602   6.8759
     6.9968   7.0500   7.0900   7.1261   7.2322   7.2864   7.3546   7.4241
     7.4879   7.5358   7.5572   7.6547   7.7588   7.7835   7.8782   7.9630
     7.9910   8.1481   8.1922   8.1936   8.2462   8.3070   8.3128   8.4523
     8.4989   8.5722

     the Fermi energy is     6.9510 ev

!    total energy              =    -501.40057347 Ry
     estimated scf accuracy    <       0.00000048 Ry
     smearing contrib. (-TS)   =      -0.14970014 Ry
     internal energy E=F+TS    =    -501.25087334 Ry

     The total energy is F=E-TS. E is the sum of the following terms:
     one-electron contribution =     180.17787400 Ry
     hartree contribution      =      26.80549493 Ry
     xc contribution           =    -150.69539646 Ry
     ewald contribution        =    -557.53884580 Ry

     convergence has been achieved in  19 iterations

     Forces acting on atoms (cartesian axes, Ry/au):

     atom    1 type  1   force =     0.00109593   -0.00595414   -0.00742762
     atom    2 type  1   force =     0.00590724    0.00171812    0.01577867
     atom    3 type  1   force =    -0.00956257   -0.00198398   -0.02266662
     atom    4 type  1   force =     0.01581268   -0.02620847   -0.00580433
     atom    5 type  1   force =    -0.03022882    0.00329302   -0.01119894
     atom    6 type  1   force =     0.00189556   -0.01457069    0.02181146
     atom    7 type  1   force =    -0.01085284   -0.01572317   -0.08064737
     atom    8 type  1   force =    -0.01341824   -0.02199938    0.02021434
     atom    9 type  1   force =     0.01006779    0.02154353    0.01566854
     atom   10 type  1   force =     0.00160573   -0.10817205    0.03074492
     atom   11 type  1   force =    -0.00050240    0.03778152   -0.02262435
     atom   12 type  1   force =     0.02207045   -0.00031768    0.02402237
     atom   13 type  1   force =    -0.01971276    0.02067839    0.02512225
     atom   14 type  1   force =    -0.01550176   -0.01489336   -0.00733268
     atom   15 type  1   force =    -0.02033152    0.02987421    0.03864468
     atom   16 type  1   force =    -0.00311665    0.04464693   -0.01027439
     atom   17 type  1   force =     0.01965802   -0.06370332    0.01773529
     atom   18 type  1   force =     0.02528768   -0.02314565   -0.00004916
     atom   19 type  1   force =     0.01552271    0.00618496   -0.02280505
     atom   20 type  1   force =     0.01986601    0.00037304   -0.02542699
     atom   21 type  1   force =     0.01294023    0.00213708    0.00320264
     atom   22 type  1   force =    -0.01267094   -0.03666767   -0.00534213
     atom   23 type  1   force =    -0.01618443   -0.00006210    0.02578039
     atom   24 type  1   force =    -0.03832050   -0.03423887   -0.01308782
     atom   25 type  1   force =     0.01660241    0.00969736   -0.01746190
     atom   26 type  1   force =     0.01132650    0.02050661    0.01429488
     atom   27 type  1   force =    -0.04433605    0.05158831   -0.01102741
     atom   28 type  1   force =     0.01155838   -0.00540434    0.00028330
     atom   29 type  1   force =     0.02121830    0.00151494    0.02563427
     atom   30 type  1   force =     0.01334467   -0.00864415    0.00620619
     atom   31 type  1   force =     0.00082904   -0.02112602   -0.00614663
     atom   32 type  1   force =     0.04757354    0.03246579   -0.05482960
     atom   33 type  1   force =     0.02488996    0.02586818    0.02439786
     atom   34 type  1   force =    -0.03619577    0.04163718    0.02398509
     atom   35 type  1   force =    -0.01439230    0.11271749    0.01287826
     atom   36 type  1   force =     0.06275738   -0.03790901    0.03060346
     atom   37 type  1   force =     0.01298347    0.00911043    0.00402140
     atom   38 type  1   force =     0.00171960    0.01591819    0.03235920
     atom   39 type  1   force =     0.02395559    0.03097292   -0.05108599
     atom   40 type  1   force =     0.01400261    0.02203478    0.02107567
     atom   41 type  1   force =     0.02537936   -0.01002999   -0.00459150
     atom   42 type  1   force =    -0.04137106    0.01983839   -0.01418055
     atom   43 type  1   force =     0.01837159   -0.05126514   -0.00359348
     atom   44 type  1   force =     0.01340118   -0.01464653   -0.02479128
     atom   45 type  1   force =     0.00684592    0.06309665    0.00182935
     atom   46 type  1   force =    -0.00278623   -0.01045645    0.00200893
     atom   47 type  1   force =    -0.00953401   -0.00348769   -0.01034406
     atom   48 type  1   force =    -0.00898293   -0.02241724    0.01112445
     atom   49 type  1   force =     0.02554482   -0.00915338   -0.01063816
     atom   50 type  1   force =     0.01669725   -0.02463202    0.00399463
     atom   51 type  1   force =     0.02699947    0.00477519   -0.03881747
     atom   52 type  1   force =    -0.01336402   -0.00003729   -0.00231196
     atom   53 type  1   force =    -0.01974271    0.01716626   -0.02287218
     atom   54 type  1   force =     0.03861775   -0.05404451    0.02511053
     atom   55 type  1   force =     0.02163787   -0.01240570    0.01845968
     atom   56 type  1   force =    -0.02793072    0.03617449   -0.01051978
     atom   57 type  1   force =    -0.06987171   -0.02289389   -0.00414404
     atom   58 type  1   force =    -0.01275551   -0.02629321    0.00605599
     atom   59 type  1   force =    -0.03057205   -0.00021444   -0.02697444
     atom   60 type  1   force =    -0.04041875   -0.01429908   -0.04313424
     atom   61 type  1   force =    -0.01314177   -0.02812185    0.09579138
     atom   62 type  1   force =     0.03902009    0.00690688   -0.01745859
     atom   63 type  1   force =    -0.06361416    0.02291066    0.01364748
     atom   64 type  1   force =    -0.00759358    0.03199096   -0.00287682

     Total force =     0.386988     Total SCF correction =     0.001272


     Computing stress (Cartesian axis) and pressure

          total   stress  (Ry/bohr**3)                   (kbar)     P=      -29.21
  -0.00020886  -0.00000878   0.00002175          -30.72       -1.29        3.20
  -0.00000878  -0.00021033   0.00001955           -1.29      -30.94        2.88
   0.00002175   0.00001955  -0.00017658            3.20        2.88      -25.98

 
     init_run     :      1.08s CPU      4.93s WALL (       1 calls)
     electrons    :      1.99s CPU      2.16s WALL (       1 calls)
     forces       :      0.04s CPU      0.04s WALL (       1 calls)
     stress       :      0.16s CPU      0.16s WALL (       1 calls)

     Called by init_run:
     wfcinit      :      0.53s CPU      4.21s WALL (       1 calls)
                                        4.21s GPU  (       1 calls)
     potinit      :      0.05s CPU      0.15s WALL (       1 calls)
     hinit0       :      0.47s CPU      0.50s WALL (       1 calls)

     Called by electrons:
     c_bands      :      1.17s CPU      1.26s WALL (      20 calls)
     sum_band     :      0.40s CPU      0.44s WALL (      20 calls)
     v_of_rho     :      0.19s CPU      0.29s WALL (      20 calls)
     mix_rho      :      0.19s CPU      0.21s WALL (      20 calls)

     Called by c_bands:
     init_us_2    :      0.07s CPU      0.08s WALL (      41 calls)
     init_us_2:gp :      0.07s CPU      0.08s WALL (      41 calls)
     regterg      :      1.00s CPU      1.08s WALL (      20 calls)

     Called by *egterg:
     rdiaghg      :      0.40s CPU      1.16s WALL (      84 calls)
                                        1.15s GPU  (      84 calls)
     h_psi        :      0.94s CPU      3.91s WALL (      86 calls)
                                        3.91s GPU  (      86 calls)
     g_psi        :      0.00s CPU      0.00s WALL (      65 calls)
                                        0.00s GPU  (      65 calls)

     Called by h_psi:
     h_psi:calbec :      0.50s CPU      3.38s WALL (      86 calls)
                                        3.38s GPU  (      86 calls)
     vloc_psi     :      0.39s CPU      0.47s WALL (      86 calls)
                                        0.47s GPU  (      86 calls)
     add_vuspsi   :      0.03s CPU      0.05s WALL (      86 calls)
                                        0.05s GPU  (      86 calls)

     General routines
     calbec       :      0.50s CPU      3.38s WALL (      91 calls)
     fft          :      0.64s CPU      0.77s WALL (     167 calls)
                                        0.14s GPU  (     106 calls)
     ffts         :      0.05s CPU      0.06s WALL (      20 calls)
     fftw         :      0.47s CPU      0.63s WALL (    2098 calls)
                                        0.55s GPU  (    2098 calls)
 
     Parallel routines
 
     PWSCF        :      3.30s CPU      7.38s WALL

 
   This run was terminated on:  11: 0:55  10May2023            

=------------------------------------------------------------------------------=
   JOB DONE.
=------------------------------------------------------------------------------=
