ITEM: TIMESTEP
0
ITEM: NUMBER OF ATOMS
64
ITEM: BOX BOUNDS pp pp pp
4.2021778216214223e-02 1.0819378221783348e+01
4.2021778216214223e-02 1.0819378221783348e+01
4.2021778216214223e-02 1.0819378221783348e+01
ITEM: ATOMS id type xs ys zs
5 1 0.0606674 0.325172 0.20445
6 1 0.23009 0.103634 0.279362
44 1 0.0563018 0.0856634 0.0313958
56 1 0.367657 0.243852 0.167173
45 1 0.525306 0.114865 0.0628903
38 1 0.714752 0.1199 0.153225
59 1 0.844038 0.299706 0.137933
11 1 0.209965 0.384631 0.0738154
31 1 0.249223 0.539429 0.300756
14 1 0.459159 0.424721 0.256875
9 1 0.614096 0.461969 0.0932902
10 1 0.462134 0.665532 0.104105
63 1 0.927969 0.606669 0.0178549
29 1 0.771713 0.498748 0.243256
35 1 0.300267 0.832538 0.144951
7 1 0.0964189 0.679719 0.147991
21 1 0.0764998 0.932428 0.213512
18 1 0.469103 0.990011 0.251121
36 1 0.644548 0.790465 0.248951
48 1 0.836964 0.935404 0.120722
54 1 0.897956 0.688397 0.286848
23 1 0.725359 0.711914 0.0451145
22 1 0.103593 0.206474 0.405019
28 1 0.177244 0.33307 0.576521
55 1 0.279334 0.000705645 0.492272
19 1 0.468634 0.136265 0.458081
33 1 0.671785 0.0972859 0.386314
64 1 0.896832 0.132688 0.440119
25 1 0.935488 0.0674082 0.638914
42 1 0.0221192 0.498946 0.359289
37 1 0.310613 0.477158 0.526592
51 1 0.475864 0.348415 0.454421
52 1 0.582055 0.6106 0.387262
34 1 0.654386 0.353334 0.563389
57 1 0.45444 0.622913 0.662947
24 1 0.667471 0.582147 0.596959
20 1 0.824952 0.343646 0.413369
49 1 0.907151 0.646349 0.594957
30 1 0.972663 0.414051 0.598253
60 1 0.00829084 0.834124 0.55185
58 1 0.244098 0.72269 0.604859
12 1 0.447745 0.847098 0.548898
32 1 0.352345 0.712117 0.349158
15 1 0.658818 0.890435 0.479752
43 1 0.892114 0.902666 0.374968
26 1 0.168938 0.239605 0.922505
2 1 0.272892 0.197716 0.727683
16 1 0.637261 0.301705 0.935649
27 1 0.443818 0.0253222 0.703471
17 1 0.429477 0.326976 0.881477
39 1 0.652299 0.196019 0.739836
3 1 0.841055 0.110147 0.906256
47 1 0.989999 0.272237 0.776502
4 1 0.237714 0.616813 0.96077
61 1 0.447257 0.534243 0.867002
50 1 0.877377 0.394938 0.94417
1 1 0.155622 0.993499 0.685128
62 1 0.135914 0.770381 0.806507
40 1 0.201405 0.937997 0.940443
46 1 0.562168 0.757083 0.88648
8 1 0.42553 0.949045 0.91214
53 1 0.91263 0.731322 0.815423
41 1 0.770017 0.898634 0.877102
13 1 0.722635 0.989282 0.679595
ITEM: TIMESTEP
5000
ITEM: NUMBER OF ATOMS
64
ITEM: BOX BOUNDS pp pp pp
4.7785795011632715e-02 1.0813614204987994e+01
4.7785795011632715e-02 1.0813614204987994e+01
4.7785795011632715e-02 1.0813614204987994e+01
ITEM: ATOMS id type xs ys zs
13 1 0.328253 0.214004 0.111256
45 1 0.211263 0.0472617 0.0583416
64 1 0.00699466 0.145898 0.00257576
26 1 0.0450337 0.330458 0.137859
22 1 0.336731 0.0931147 0.322151
18 1 0.572997 0.078926 0.191219
9 1 0.722864 0.324179 0.243474
56 1 0.821642 0.119643 0.229232
2 1 0.212273 0.563294 0.322204
58 1 0.0113318 0.53726 0.246585
32 1 0.236113 0.443516 0.0699487
48 1 0.186989 0.661361 0.0259117
14 1 0.517815 0.437823 0.151163
12 1 0.666584 0.595579 0.0518869
42 1 0.363381 0.410524 0.321567
63 1 0.864193 0.38975 0.0792582
8 1 0.17212 0.955396 0.259016
40 1 0.305403 0.757025 0.21258
52 1 0.516164 0.777166 0.0445014
36 1 0.645173 0.941381 0.0309848
24 1 0.53963 0.699007 0.305871
10 1 0.977329 0.755906 0.144278
4 1 0.869622 0.951245 0.0703781
44 1 0.75385 0.730329 0.25059
37 1 0.240605 0.26501 0.448707
16 1 0.0319474 0.0662954 0.422859
59 1 0.630884 0.30066 0.464176
15 1 0.548105 0.0685204 0.424335
28 1 0.418063 0.272455 0.60509
20 1 0.989739 0.265316 0.369133
35 1 0.141314 0.464025 0.59459
60 1 0.391549 0.533713 0.596457
39 1 0.531999 0.490922 0.413191
5 1 0.788648 0.516849 0.350932
29 1 0.916355 0.456075 0.520544
54 1 0.733973 0.373667 0.662764
51 1 0.0934869 0.695053 0.56801
1 1 0.287832 0.960768 0.530058
25 1 0.30302 0.718702 0.487463
34 1 0.0129808 0.807543 0.354642
31 1 0.498641 0.858119 0.446734
21 1 0.595131 0.774564 0.633396
19 1 0.886982 0.951654 0.574113
43 1 0.767758 0.944942 0.375914
41 1 0.839092 0.709847 0.532307
47 1 0.0674102 0.193921 0.80289
55 1 0.174972 0.0102139 0.730528
6 1 0.478383 0.06264 0.668095
27 1 0.490442 0.255661 0.98859
38 1 0.510358 0.0386911 0.88842
33 1 0.758923 0.191084 0.963525
17 1 0.824177 0.19091 0.742639
3 1 0.147937 0.406069 0.819631
30 1 0.0775441 0.621016 0.838469
61 1 0.390558 0.365017 0.824159
57 1 0.60954 0.477729 0.864496
46 1 0.471148 0.63767 0.778309
53 1 0.779172 0.617919 0.7489
50 1 0.885418 0.606924 0.973029
49 1 0.020826 0.834433 0.728811
62 1 0.315425 0.95706 0.886826
11 1 0.342532 0.751015 0.911659
7 1 0.717142 0.967262 0.73148
23 1 0.838466 0.818935 0.869189
ITEM: TIMESTEP
10000
ITEM: NUMBER OF ATOMS
64
ITEM: BOX BOUNDS pp pp pp
4.1484321526849222e-02 1.0819915678472860e+01
4.1484321526849222e-02 1.0819915678472860e+01
4.1484321526849222e-02 1.0819915678472860e+01
ITEM: ATOMS id type xs ys zs
22 1 0.0298128 0.0115002 0.0731859
63 1 0.232082 0.232154 0.194768
29 1 0.2771 0.0768976 0.0337478
39 1 0.590241 0.324569 0.235377
43 1 0.601038 0.0467946 0.33193
36 1 0.398657 0.31035 0.319953
54 1 0.509462 0.116403 0.112895
56 1 0.783084 0.169308 0.20076
57 1 0.150654 0.393353 0.0834151
61 1 0.277905 0.54691 0.186204
12 1 0.565059 0.495394 0.00154564
38 1 0.367466 0.605024 0.00163255
14 1 0.695008 0.547016 0.190043
53 1 0.953791 0.375566 0.0441314
17 1 0.909962 0.59421 0.135447
5 1 0.880242 0.351746 0.293019
51 1 0.0341651 0.801222 0.0298498
42 1 0.148059 0.709751 0.235151
23 1 0.314602 0.88832 0.233226
62 1 0.468387 0.838221 0.0662693
18 1 0.634283 0.707377 0.313076
3 1 0.693227 0.856425 0.170354
52 1 0.881045 0.984815 0.242474
49 1 0.0667324 0.292458 0.358565
32 1 0.0706962 0.127921 0.526824
47 1 0.254701 0.0422624 0.380209
34 1 0.441654 0.146085 0.451678
59 1 0.777311 0.00608905 0.495385
58 1 0.858567 0.198105 0.603918
1 1 0.110701 0.495841 0.481231
13 1 0.336734 0.48197 0.405544
8 1 0.52017 0.365082 0.607056
44 1 0.754644 0.591162 0.481315
31 1 0.959392 0.616259 0.378781
28 1 0.720683 0.363662 0.436294
35 1 0.0527584 0.892689 0.378592
15 1 0.319969 0.70172 0.592179
50 1 0.080088 0.815414 0.587093
11 1 0.419594 0.733412 0.378451
19 1 0.341223 0.936583 0.608473
24 1 0.572322 0.876166 0.517611
21 1 0.830039 0.806038 0.594653
20 1 0.0781215 0.224834 0.770838
4 1 0.0240811 0.00752521 0.734846
37 1 0.468178 0.156795 0.678404
60 1 0.342202 0.223679 0.861278
55 1 0.659834 0.0786621 0.740659
27 1 0.549207 0.291878 0.96091
9 1 0.698796 0.0354767 0.989036
26 1 0.742302 0.28156 0.841449
64 1 0.939066 0.198681 0.95254
40 1 0.201078 0.42555 0.868023
16 1 0.0964063 0.625337 0.702117
25 1 0.390706 0.536026 0.74864
6 1 0.624603 0.594938 0.833301
2 1 0.997458 0.397607 0.678229
30 1 0.716264 0.441794 0.699696
46 1 0.902994 0.507095 0.865202
48 1 0.251367 0.912781 0.834781
45 1 0.205843 0.710025 0.879471
7 1 0.487232 0.903263 0.863412
33 1 0.576573 0.782803 0.726546
10 1 0.780115 0.747579 0.988153
41 1 0.81649 0.90278 0.808059
ITEM: TIMESTEP
15000
ITEM: NUMBER OF ATOMS
64
ITEM: BOX BOUNDS pp pp pp
6.7585256086521994e-02 1.0793814743913101e+01
6.7585256086521994e-02 1.0793814743913101e+01
6.7585256086521994e-02 1.0793814743913101e+01
ITEM: ATOMS id type xs ys zs
28 1 0.427895 0.0581847 0.22989
64 1 0.451538 0.07752 0.000431283
39 1 0.348386 0.284774 0.0701767
2 1 0.660488 0.206876 0.0438825
59 1 0.937722 0.142704 0.0518335
41 1 0.948633 0.162739 0.278691
33 1 0.724314 0.149584 0.252562
63 1 0.00178605 0.409348 0.270057
24 1 0.146552 0.464354 0.0427889
60 1 0.240385 0.435123 0.273041
38 1 0.50165 0.619868 0.20941
26 1 0.563751 0.370597 0.200691
49 1 0.811335 0.575321 0.294142
31 1 0.736754 0.502864 0.110235
21 1 0.937373 0.374971 0.0243212
47 1 0.285326 0.68856 0.194645
5 1 0.0692115 0.674905 0.0370977
27 1 0.002812 0.700007 0.272208
37 1 0.259185 0.917021 0.227536
29 1 0.0919317 0.908022 0.0554717
56 1 0.605083 0.949833 0.304401
18 1 0.534195 0.762824 0.0324076
51 1 0.740917 0.857578 0.0680436
23 1 0.909206 0.911113 0.200501
54 1 0.303797 0.220605 0.370634
53 1 0.0310635 0.135338 0.635352
62 1 0.147251 0.0961599 0.364073
42 1 0.649958 0.227425 0.530119
34 1 0.459686 0.106506 0.565453
44 1 0.852326 0.0967477 0.504732
43 1 0.144637 0.52774 0.503653
61 1 0.342936 0.338372 0.593705
50 1 0.586006 0.40386 0.421393
1 1 0.398796 0.508997 0.416058
48 1 0.756443 0.527016 0.516504
55 1 0.916101 0.359354 0.491472
20 1 0.159601 0.921666 0.504079
32 1 0.0357666 0.745878 0.51346
17 1 0.657035 0.736423 0.334473
25 1 0.510846 0.697096 0.534453
22 1 0.400908 0.888982 0.47243
14 1 0.701806 0.828445 0.618288
35 1 0.844509 0.874697 0.433933
13 1 0.11617 0.0994303 0.890107
10 1 0.214639 0.28577 0.842157
7 1 0.433918 0.196449 0.797292
36 1 0.779607 0.0264153 0.933581
52 1 0.0872556 0.340476 0.667923
11 1 0.249169 0.586085 0.707766
45 1 0.355973 0.481965 0.892835
3 1 0.562936 0.612988 0.87999
46 1 0.574033 0.373548 0.897646
19 1 0.849271 0.663716 0.976952
8 1 0.699206 0.356283 0.694766
30 1 0.890385 0.455537 0.785165
58 1 0.741557 0.651654 0.739232
15 1 0.324251 0.833245 0.991812
16 1 0.206793 0.960338 0.730816
4 1 0.152112 0.769561 0.82658
9 1 0.422597 0.715517 0.745914
40 1 0.417039 0.941147 0.790445
57 1 0.644506 0.998842 0.710825
12 1 0.954899 0.712764 0.705401
6 1 0.920011 0.951191 0.741961
ITEM: TIMESTEP
20000
ITEM: NUMBER OF ATOMS
64
ITEM: BOX BOUNDS pp pp pp
1.1528029712019361e-01 1.0746119702879430e+01
1.1528029712019361e-01 1.0746119702879430e+01
1.1528029712019361e-01 1.0746119702879430e+01
ITEM: ATOMS id type xs ys zs
39 1 0.296082 0.0278352 0.0970014
28 1 0.299844 0.326055 0.0241015
12 1 0.133515 0.213036 0.133097
64 1 0.44583 0.102959 0.24207
43 1 0.663226 0.27936 0.233211
2 1 0.775656 0.0692532 0.208771
56 1 0.966416 0.0219717 0.329343
59 1 0.988615 0.262524 0.300275
51 1 0.855199 0.228841 0.0339711
53 1 0.0183433 0.50956 0.198257
25 1 0.208379 0.539072 0.148044
60 1 0.543238 0.54121 0.19677
61 1 0.393043 0.355582 0.21279
18 1 0.760822 0.603985 0.318962
31 1 1.64229e-05 0.845685 0.209049
20 1 0.201559 0.790473 0.10058
4 1 0.373057 0.726473 0.27185
22 1 0.528681 0.889658 0.28033
33 1 0.473231 0.724382 0.0270383
5 1 0.826686 0.752906 0.107262
34 1 0.67842 0.910524 0.114451
19 1 0.123949 0.266794 0.510373
46 1 0.349305 0.265028 0.481315
27 1 0.644758 0.134788 0.461248
52 1 0.408852 0.0420464 0.484474
50 1 0.687243 0.328885 0.559153
11 1 0.250163 0.493693 0.398796
24 1 0.000726712 0.659275 0.353814
58 1 0.316169 0.533284 0.618943
3 1 0.521265 0.486413 0.445336
29 1 0.992541 0.454772 0.521354
26 1 0.794941 0.382 0.368132
35 1 0.203655 0.74627 0.456915
14 1 0.0978584 0.993501 0.585452
32 1 0.211973 0.962078 0.356948
16 1 0.462644 0.732847 0.514733
54 1 0.954098 0.819378 0.550943
44 1 0.800661 0.97953 0.471124
41 1 0.670353 0.78512 0.446311
23 1 0.10561 0.238918 0.739355
13 1 0.292622 0.12585 0.782865
8 1 0.0437196 0.124356 0.946592
6 1 0.657522 0.250242 0.939851
48 1 0.46474 0.293768 0.691872
10 1 0.432595 0.153255 0.958886
40 1 0.582872 0.0987877 0.711492
30 1 0.891042 0.0598272 0.691474
42 1 0.701673 0.00415549 0.917095
17 1 0.847538 0.262588 0.765952
62 1 0.115911 0.599926 0.697547
15 1 0.137412 0.4473 0.87307
57 1 0.273493 0.66 0.921875
49 1 0.460133 0.520132 0.806932
38 1 0.600146 0.481313 0.975665
1 1 0.939777 0.43944 0.995221
55 1 0.785182 0.608242 0.937695
21 1 0.871167 0.476601 0.716077
36 1 0.180676 0.834169 0.745994
63 1 0.0591979 0.908815 0.928419
37 1 0.477865 0.913765 0.92823
7 1 0.570462 0.720329 0.738908
47 1 0.390513 0.917862 0.709608
9 1 0.784742 0.692746 0.68038
45 1 0.844607 0.839483 0.844252
ITEM: TIMESTEP
25000
ITEM: NUMBER OF ATOMS
64
ITEM: BOX BOUNDS pp pp pp
7.2410607521040227e-02 1.0788989392478634e+01
7.2410607521040227e-02 1.0788989392478634e+01
7.2410607521040227e-02 1.0788989392478634e+01
ITEM: ATOMS id type xs ys zs
28 1 0.256204 0.245883 0.192002
22 1 0.497169 0.202488 0.206825
8 1 0.645648 0.026131 0.307901
56 1 0.869461 0.225981 0.166845
41 1 0.722746 0.104994 0.0552139
64 1 0.328952 0.429652 0.300884
46 1 0.0421958 0.349484 0.123582
57 1 0.188882 0.519574 0.052059
26 1 0.456369 0.526664 0.0837782
7 1 0.61623 0.374632 0.110622
34 1 0.773232 0.434938 0.249825
38 1 0.769124 0.664809 0.0215041
2 1 0.990527 0.494816 0.322448
14 1 0.747847 0.655697 0.22644
39 1 0.315931 0.962773 0.261768
63 1 0.0851377 0.943216 0.231298
54 1 0.127304 0.698501 0.256174
58 1 0.15975 0.76066 0.00137187
51 1 0.413174 0.975067 0.0366742
61 1 0.589995 0.871392 0.162041
3 1 0.521668 0.675557 0.260974
55 1 0.989773 0.997453 0.0415975
53 1 0.17849 0.278539 0.592993
1 1 0.274018 0.185317 0.420728
43 1 0.599171 0.164209 0.605402
49 1 0.484229 0.303634 0.440096
50 1 0.834763 0.130674 0.374523
19 1 0.81725 0.235341 0.552781
35 1 0.166106 0.628924 0.491118
23 1 0.311593 0.470075 0.534451
16 1 0.516998 0.656605 0.521749
9 1 0.971504 0.388223 0.536954
40 1 0.692783 0.410061 0.454918
20 1 0.330912 0.765292 0.375121
11 1 0.204734 0.986562 0.49632
36 1 0.316183 0.817441 0.614842
10 1 0.492215 0.982205 0.451392
27 1 0.64919 0.822669 0.530196
29 1 0.901173 0.734547 0.351923
60 1 0.845923 0.737033 0.576312
18 1 0.961974 0.958028 0.442035
12 1 0.168261 0.254781 0.840523
44 1 0.209048 0.0355691 0.751957
17 1 0.4548 0.0196672 0.739348
32 1 0.567947 0.316952 0.747013
42 1 0.342234 0.332387 0.948101
6 1 0.494676 0.14501 0.948846
48 1 0.742792 0.295227 0.896435
4 1 0.861572 0.11318 0.727115
30 1 0.960782 0.194528 0.919493
15 1 0.110652 0.490402 0.839252
21 1 0.597229 0.607341 0.916777
45 1 0.399689 0.501777 0.781946
5 1 0.642255 0.517446 0.673057
25 1 0.885904 0.485063 0.916224
59 1 0.870419 0.530905 0.681127
52 1 0.0682522 0.693121 0.703169
33 1 0.208059 0.987658 0.966296
37 1 0.303038 0.704332 0.829488
47 1 0.517463 0.833717 0.890067
31 1 0.745641 0.898124 0.981718
24 1 0.937134 0.804174 0.886742
13 1 0.691547 0.958859 0.729535
62 1 0.996303 0.942956 0.667984
ITEM: TIMESTEP
30000
ITEM: NUMBER OF ATOMS
64
ITEM: BOX BOUNDS pp pp pp
1.4621158193176242e-01 1.0715188418068085e+01
1.4621158193176242e-01 1.0715188418068085e+01
1.4621158193176242e-01 1.0715188418068085e+01
ITEM: ATOMS id type xs ys zs
22 1 0.183376 0.19944 0.0883739
55 1 0.273011 0.0320388 0.22285
2 1 0.490143 0.0785706 0.173211
52 1 0.430377 0.304019 0.170156
54 1 0.766441 0.0341552 0.179243
61 1 0.951705 0.161809 0.0754436
35 1 0.309455 0.613564 0.15385
25 1 0.023505 0.513292 0.0744671
59 1 0.0582828 0.426785 0.298398
37 1 0.243292 0.421822 0.0710025
15 1 0.526746 0.552797 0.093949
13 1 0.666955 0.49909 0.286029
53 1 0.809365 0.393845 0.119966
41 1 0.815905 0.651591 0.0239551
57 1 0.0477592 0.674383 0.306252
33 1 0.0574858 0.932966 0.157685
30 1 0.309397 0.837707 0.106391
23 1 0.553087 0.747319 0.240868
28 1 0.520861 0.86917 0.0566354
39 1 0.787983 0.797161 0.203647
11 1 0.00507816 0.262175 0.595996
18 1 0.151135 0.152703 0.374955
27 1 0.109355 0.0287104 0.540099
51 1 0.53072 0.306921 0.395389
14 1 0.571511 0.0413154 0.380989
1 1 0.400072 0.0822608 0.521632
34 1 0.935327 0.218273 0.341298
5 1 0.78514 0.0788446 0.468985
26 1 0.279541 0.581409 0.382684
7 1 0.278463 0.335598 0.363027
45 1 0.0255363 0.485484 0.5335
3 1 0.442935 0.569846 0.596897
56 1 0.636751 0.377711 0.617287
48 1 0.355983 0.360558 0.598203
44 1 0.797718 0.397167 0.456124
29 1 0.289193 0.876468 0.415229
4 1 0.169353 0.736397 0.543518
20 1 0.502345 0.80279 0.447477
46 1 0.651876 0.718111 0.613093
31 1 0.818385 0.670215 0.40097
64 1 0.945031 0.922934 0.39218
8 1 0.954431 0.727339 0.604086
50 1 0.183478 0.272557 0.759319
24 1 0.163189 0.0511737 0.766793
6 1 0.317176 0.0789816 0.936758
12 1 0.504153 0.208765 0.922401
43 1 0.543338 0.169133 0.693044
9 1 0.676821 0.0621843 0.961368
47 1 0.821009 0.254641 0.891085
42 1 0.806997 0.176576 0.674189
62 1 0.0193257 0.390596 0.880131
32 1 0.629723 0.398648 0.946927
38 1 0.361087 0.412843 0.877985
36 1 0.403233 0.636294 0.810874
40 1 0.752894 0.514008 0.769526
60 1 0.950094 0.58292 0.786534
10 1 0.148888 0.70152 0.936402
49 1 0.257962 0.809713 0.774206
16 1 0.620313 0.697535 0.914627
19 1 0.43461 0.940947 0.733539
21 1 0.641073 0.890379 0.789605
58 1 0.961151 0.81912 0.974034
63 1 0.83021 0.917599 0.668996
17 1 0.944491 0.998028 0.863561
ITEM: TIMESTEP
35000
ITEM: NUMBER OF ATOMS
64
ITEM: BOX BOUNDS pp pp pp
8.1216640632503889e-02 1.0780183359367342e+01
8.1216640632503889e-02 1.0780183359367342e+01
8.1216640632503889e-02 1.0780183359367342e+01
ITEM: ATOMS id type xs ys zs
45 1 0.276707 0.0995008 0.109964
7 1 0.328764 0.29439 0.205841
27 1 0.100414 0.104806 0.20412
57 1 0.647512 0.243276 0.146087
8 1 0.765574 0.0997134 0.285165
24 1 0.978835 0.24101 0.0449456
64 1 0.152812 0.452677 0.186922
53 1 0.581407 0.452023 0.311153
31 1 0.497496 0.494724 0.103502
34 1 0.71521 0.64071 0.0345634
52 1 0.801313 0.481607 0.294264
44 1 0.796621 0.39822 0.0660343
4 1 0.145605 0.744643 0.208411
21 1 0.41884 0.945512 0.188629
43 1 0.626338 0.950556 0.093313
11 1 0.366196 0.742098 0.168742
23 1 0.742613 0.778218 0.197354
49 1 0.916531 0.964107 0.20945
30 1 0.996202 0.737469 0.063328
38 1 0.080366 0.255717 0.350043
3 1 0.149524 0.063043 0.479506
60 1 0.262518 0.30092 0.504531
1 1 0.479695 0.230352 0.367013
13 1 0.449691 0.0170118 0.386535
29 1 0.551161 0.232807 0.574549
10 1 0.866102 0.27085 0.399077
36 1 0.762178 0.173329 0.6025
58 1 0.153689 0.590754 0.357774
37 1 0.319994 0.494756 0.518699
16 1 0.454827 0.65156 0.366989
12 1 0.574525 0.459645 0.538751
46 1 0.963425 0.570475 0.463216
55 1 0.797516 0.455555 0.581884
39 1 0.236235 0.77757 0.521662
22 1 0.0846143 0.869972 0.359639
28 1 0.664886 0.943008 0.437967
15 1 0.507571 0.784854 0.567567
48 1 0.356014 0.963897 0.60241
54 1 0.932331 0.806604 0.502981
20 1 0.727641 0.716354 0.421923
19 1 0.767834 0.938249 0.659734
40 1 0.185952 0.0125464 0.90631
26 1 0.00834719 0.0508999 0.676344
6 1 0.0532831 0.192879 0.840554
32 1 0.398267 0.268266 0.985096
14 1 0.615766 0.131556 0.903457
56 1 0.389049 0.0235431 0.807306
61 1 0.406117 0.248355 0.729706
41 1 0.848733 0.0540615 0.956929
42 1 0.807453 0.279552 0.824616
5 1 0.267276 0.457083 0.92575
18 1 0.299555 0.641007 0.714689
17 1 0.0540764 0.527956 0.999776
25 1 0.062213 0.551892 0.682067
35 1 0.184553 0.344747 0.743946
59 1 0.584677 0.404603 0.882657
47 1 0.424163 0.66507 0.966124
63 1 0.555585 0.586326 0.729737
9 1 0.859176 0.508047 0.817469
62 1 0.0801033 0.817027 0.710674
51 1 0.21311 0.77886 0.90545
2 1 0.51259 0.867014 0.909011
50 1 0.91688 0.855336 0.874049
33 1 0.707975 0.759747 0.83944
ITEM: TIMESTEP
40000
ITEM: NUMBER OF ATOMS
64
ITEM: BOX BOUNDS pp pp pp
1.2173039450500411e-01 1.0739669605494939e+01
1.2173039450500411e-01 1.0739669605494939e+01
1.2173039450500411e-01 1.0739669605494939e+01
ITEM: ATOMS id type xs ys zs
49 1 0.321848 0.185673 0.148631
43 1 0.0437303 0.11726 0.226659
50 1 0.487509 0.166844 0.309714
59 1 0.678753 0.0719653 0.109117
29 1 0.81359 0.0759145 0.308195
60 1 0.917218 0.318467 0.142713
52 1 0.254974 0.651125 0.142108
4 1 0.0842088 0.577502 0.314338
34 1 0.146286 0.351693 0.20952
28 1 0.546098 0.384298 0.24957
45 1 0.392667 0.544902 0.307895
21 1 0.56868 0.444212 0.0323547
23 1 0.642735 0.639827 0.0635142
58 1 0.356021 0.436516 0.0615182
1 1 0.773955 0.372313 0.310652
39 1 0.990324 0.520057 0.0125858
53 1 0.308407 0.939495 0.210683
8 1 0.0393794 0.896337 0.204904
30 1 0.546408 0.916905 0.202909
22 1 0.640434 0.726105 0.303832
63 1 0.454212 0.751793 0.0365972
7 1 0.882561 0.940235 0.0417011
64 1 0.867711 0.674781 0.132885
2 1 0.248969 0.152568 0.41368
31 1 0.0643097 0.0783414 0.526248
6 1 0.606337 0.195226 0.513002
15 1 0.368089 0.13069 0.633889
26 1 0.858389 0.216356 0.492908
10 1 0.097901 0.427264 0.591439
57 1 0.243789 0.407406 0.434137
41 1 0.425543 0.371854 0.561355
12 1 0.475837 0.587469 0.646276
46 1 0.836456 0.595729 0.345598
35 1 0.824793 0.441399 0.569949
51 1 0.961901 0.662846 0.570116
16 1 0.243001 0.786836 0.40106
17 1 0.0157688 0.864536 0.44063
62 1 0.470968 0.675986 0.435226
48 1 0.445311 0.949466 0.476679
18 1 0.637186 0.942731 0.572217
3 1 0.770306 0.872315 0.403837
24 1 0.187647 0.0977847 0.999632
37 1 0.261339 0.204679 0.845077
13 1 0.0133492 0.250258 0.701646
36 1 0.471464 0.10065 0.891704
61 1 0.621759 0.282012 0.794387
27 1 0.95713 0.165066 0.924696
25 1 0.731444 0.269669 0.98955
42 1 0.775085 0.119363 0.72161
20 1 0.279975 0.492435 0.739521
32 1 0.191171 0.400306 0.914522
9 1 0.661861 0.489912 0.71482
55 1 0.901268 0.427544 0.838851
54 1 0.741059 0.636946 0.876603
33 1 0.194856 0.875687 0.976032
11 1 0.293306 0.875787 0.671188
38 1 0.0964039 0.685093 0.884299
5 1 0.167453 0.700617 0.674245
47 1 0.102634 0.971959 0.731181
44 1 0.562651 0.78754 0.74268
40 1 0.397618 0.878687 0.857333
14 1 0.894696 0.803623 0.85308
19 1 0.888333 0.910895 0.678446
56 1 0.687161 0.969172 0.885953
ITEM: TIMESTEP
45000
ITEM: NUMBER OF ATOMS
64
ITEM: BOX BOUNDS pp pp pp
1.2872115806125528e-01 1.0732678841938650e+01
1.2872115806125528e-01 1.0732678841938650e+01
1.2872115806125528e-01 1.0732678841938650e+01
ITEM: ATOMS id type xs ys zs
26 1 0.23191 0.089026 0.0857461
58 1 0.0459555 0.116267 0.235983
4 1 0.423632 0.243929 0.111762
33 1 0.524574 0.147261 0.287886
39 1 0.682258 0.00614783 0.177159
57 1 0.832596 0.210679 0.150683
13 1 0.00903899 0.372129 0.0798321
8 1 0.194404 0.560165 0.0319826
62 1 0.24387 0.414805 0.21397
44 1 0.49492 0.448036 0.0743941
64 1 0.628424 0.474947 0.286352
36 1 0.868946 0.544395 0.119063
54 1 0.0339965 0.906757 0.151019
30 1 0.234315 0.76262 0.151515
38 1 0.0134673 0.702023 0.00787762
32 1 0.41128 0.924122 0.146369
3 1 0.472403 0.678729 0.0794552
24 1 0.860251 0.97279 0.0226877
1 1 0.687238 0.747539 0.107932
49 1 0.140995 0.0751201 0.437902
19 1 0.325132 0.274288 0.3995
31 1 0.541233 0.252678 0.552586
51 1 0.398058 0.00160887 0.440096
35 1 0.729626 0.248197 0.36253
46 1 0.915402 0.185942 0.493705
52 1 0.082202 0.591043 0.48458
20 1 0.0406107 0.359374 0.336551
37 1 0.138825 0.348442 0.567203
48 1 0.25401 0.605398 0.341958
15 1 0.333077 0.500746 0.665678
53 1 0.456834 0.46656 0.461457
22 1 0.761642 0.439787 0.559648
55 1 0.880507 0.521878 0.336675
29 1 0.705743 0.655059 0.582849
16 1 0.0870405 0.920602 0.584911
10 1 0.460171 0.750834 0.360308
2 1 0.618755 0.944582 0.52343
28 1 0.475139 0.729714 0.59738
34 1 0.690338 0.737264 0.346203
56 1 0.96023 0.764203 0.336934
12 1 0.836572 0.985075 0.336408
7 1 0.87704 0.786264 0.580116
11 1 0.0238442 0.0401232 0.810403
60 1 0.192109 0.139729 0.68198
27 1 0.178559 0.262026 0.94179
45 1 0.506498 0.213048 0.875798
17 1 0.417735 0.0894387 0.666908
40 1 0.753938 0.165309 0.669506
50 1 0.973824 0.270067 0.838339
25 1 0.732776 0.219382 0.913383
41 1 0.322111 0.429369 0.891179
42 1 0.194703 0.662641 0.801731
9 1 0.558758 0.417235 0.731405
43 1 0.665951 0.575046 0.827215
18 1 0.704858 0.446405 0.999436
47 1 0.937607 0.411781 0.670616
61 1 0.970881 0.634237 0.730855
5 1 0.298467 0.861335 0.691974
21 1 0.209602 0.915192 0.930652
23 1 0.467079 0.668951 0.852199
14 1 0.43932 0.976746 0.912167
63 1 0.612953 0.865547 0.77548
6 1 0.831015 0.962207 0.713006
59 1 0.836976 0.766076 0.881597
ITEM: TIMESTEP
50000
ITEM: NUMBER OF ATOMS
64
ITEM: BOX BOUNDS pp pp pp
7.5116506453961840e-02 1.0786283493545820e+01
7.5116506453961840e-02 1.0786283493545820e+01
7.5116506453961840e-02 1.0786283493545820e+01
ITEM: ATOMS id type xs ys zs
54 1 0.0296493 0.263043 0.0506065
60 1 0.212002 0.177461 0.157826
44 1 0.65658 0.301708 0.103161
13 1 0.503617 0.0881253 0.117704
32 1 0.840503 0.12741 0.0257841
51 1 0.851344 0.102676 0.267155
24 1 0.0459005 0.479264 0.27038
8 1 0.288313 0.406567 0.317662
31 1 0.161034 0.649072 0.129317
29 1 0.639136 0.383582 0.290446
3 1 0.478208 0.531387 0.294687
63 1 0.467883 0.633587 0.0786031
10 1 0.400289 0.344593 0.0925837
36 1 0.872058 0.400936 0.107726
37 1 0.891515 0.618051 0.0983407
34 1 0.782213 0.584417 0.326104
55 1 0.0839371 0.883708 0.103733
58 1 0.328608 0.807657 0.0576455
28 1 0.0303952 0.909873 0.315568
16 1 0.663563 0.938075 0.153915
38 1 0.622178 0.737302 0.267129
2 1 0.33533 0.973614 0.21507
11 1 0.884028 0.884538 0.00600787
62 1 0.279513 0.242527 0.504411
64 1 0.144116 0.138298 0.373818
40 1 0.462192 0.15296 0.518168
4 1 0.646913 0.265009 0.475386
48 1 0.974367 0.285326 0.370467
49 1 0.674396 0.0316894 0.364549
22 1 0.90973 0.0424047 0.650624
41 1 0.856342 0.250257 0.575554
23 1 0.249665 0.485986 0.565622
14 1 0.0306003 0.457148 0.529497
33 1 0.380504 0.655098 0.463097
61 1 0.605794 0.495327 0.582969
17 1 0.231665 0.764268 0.336568
52 1 0.222525 0.93878 0.49837
42 1 0.0941422 0.761042 0.612609
30 1 0.5567 0.793344 0.499449
43 1 0.436792 0.946204 0.423807
53 1 0.988779 0.674337 0.421878
12 1 0.757405 0.681208 0.546996
20 1 0.830102 0.908629 0.471028
50 1 0.123751 0.0871868 0.674406
6 1 0.181733 0.313306 0.758803
45 1 0.25766 0.121069 0.934682
27 1 0.479494 0.036212 0.926973
47 1 0.530535 0.176447 0.748116
7 1 0.780332 0.122743 0.819661
25 1 0.0555187 0.414592 0.892237
56 1 0.246322 0.52354 0.984305
5 1 0.240489 0.63099 0.764296
15 1 0.388413 0.342372 0.845493
35 1 0.607325 0.480368 0.96703
26 1 0.45991 0.538488 0.767508
46 1 0.679546 0.34033 0.754448
9 1 0.885166 0.463078 0.727849
18 1 0.134022 0.915955 0.842226
39 1 0.661225 0.934579 0.882451
59 1 0.336558 0.811973 0.833257
57 1 0.541246 0.798961 0.732677
1 1 0.712042 0.684251 0.983437
21 1 0.936459 0.850763 0.77179
19 1 0.793956 0.675227 0.774227
ITEM: TIMESTEP
55000
ITEM: NUMBER OF ATOMS
64
ITEM: BOX BOUNDS pp pp pp
1.0869576319972740e-01 1.0752704236800046e+01
1.0869576319972740e-01 1.0752704236800046e+01
1.0869576319972740e-01 1.0752704236800046e+01
ITEM: ATOMS id type xs ys zs
45 1 0.239373 0.0215797 0.223574
36 1 0.106857 0.311377 0.0770208
10 1 0.119759 0.242043 0.314094
30 1 0.475539 0.27011 0.263375
7 1 0.610165 0.310592 0.0590341
35 1 0.885149 0.211637 0.110186
2 1 0.860293 0.114764 0.308291
14 1 0.330999 0.370727 0.122607
28 1 0.192315 0.607199 0.208942
56 1 0.382752 0.581147 0.0662717
51 1 0.770257 0.416182 0.151193
17 1 0.715025 0.640697 0.225776
52 1 0.961376 0.639631 0.282146
54 1 0.965771 0.495326 0.0873966
16 1 0.02051 0.911391 0.269481
55 1 0.0897577 0.974841 0.00434974
62 1 0.0893853 0.75845 0.047044
24 1 0.410253 0.729829 0.28744
49 1 0.463063 0.954749 0.226198
27 1 0.558854 0.75415 0.0732186
21 1 0.806536 0.937296 0.0488037
48 1 0.694149 0.948994 0.256274
37 1 0.844808 0.715148 0.0116639
40 1 0.171481 0.0404615 0.638498
60 1 0.311147 0.228889 0.437119
64 1 0.634946 0.154256 0.391451
63 1 0.406732 0.198775 0.653174
41 1 0.981196 0.171245 0.500301
32 1 0.787271 0.220836 0.556192
53 1 0.247577 0.473199 0.392588
9 1 0.282168 0.558191 0.596339
12 1 0.0116366 0.551755 0.506007
19 1 0.118873 0.337967 0.611709
3 1 0.573032 0.454928 0.378514
1 1 0.492872 0.407524 0.592788
44 1 0.796919 0.40585 0.407051
6 1 0.827817 0.665558 0.63355
38 1 0.223575 0.813377 0.392546
15 1 0.141474 0.75601 0.614977
18 1 0.372455 0.9963 0.495995
46 1 0.534601 0.672575 0.449025
33 1 0.407775 0.755981 0.63596
43 1 0.580101 0.937127 0.513733
59 1 0.945664 0.920243 0.514426
20 1 0.792346 0.785634 0.426744
13 1 0.133105 0.20201 0.841142
29 1 0.333859 0.098422 0.986179
34 1 0.641197 0.147221 0.719921
61 1 0.387247 0.312744 0.851093
11 1 0.522492 0.00394866 0.991264
57 1 0.946335 0.117366 0.885633
47 1 0.703163 0.138287 0.943226
26 1 0.210189 0.486395 0.793268
8 1 0.537832 0.476615 0.922437
22 1 0.890179 0.355007 0.723201
4 1 0.699359 0.451651 0.727798
25 1 0.992082 0.534559 0.864637
23 1 0.0140547 0.762986 0.790911
50 1 0.224854 0.919767 0.8339
42 1 0.263806 0.674847 0.917172
39 1 0.652607 0.90614 0.72934
5 1 0.454707 0.809335 0.836458
31 1 0.891406 0.948931 0.760714
58 1 0.699148 0.688143 0.83653
ITEM: TIMESTEP
60000
ITEM: NUMBER OF ATOMS
64
ITEM: BOX BOUNDS pp pp pp
8.7403717154038496e-02 1.0773996282845822e+01
8.7403717154038496e-02 1.0773996282845822e+01
8.7403717154038496e-02 1.0773996282845822e+01
ITEM: ATOMS id type xs ys zs
29 1 0.26847 0.189799 0.173427
14 1 0.041789 0.290862 0.111481
16 1 0.64462 0.188224 0.256606
56 1 0.418122 0.289498 0.0494053
44 1 0.678906 0.243126 0.0429199
43 1 0.899218 0.124012 0.0895238
30 1 0.853834 0.179261 0.3282
62 1 0.208441 0.541509 0.152207
47 1 0.0465549 0.649522 0.272608
22 1 0.521232 0.454838 0.201364
51 1 0.731398 0.516886 0.136392
49 1 0.921319 0.459088 0.233666
10 1 0.0399615 0.739627 0.00493983
28 1 0.30879 0.924682 0.212855
32 1 0.252078 0.831788 0.00853204
18 1 0.0356458 0.969468 0.142009
34 1 0.515269 0.992094 0.269326
41 1 0.375463 0.686105 0.0816882
26 1 0.56511 0.850959 0.0858749
59 1 0.471604 0.692423 0.295928
17 1 0.908588 0.813956 0.273967
42 1 0.757956 0.760399 0.120651
60 1 0.294321 0.0777938 0.51141
55 1 0.129437 0.201961 0.336247
19 1 0.0564815 0.321784 0.534799
38 1 0.476251 0.199927 0.41101
54 1 0.598582 0.0757257 0.604081
2 1 0.798949 0.299813 0.64211
15 1 0.907684 0.00629467 0.478708
33 1 0.30572 0.404669 0.34791
35 1 0.107928 0.549291 0.505274
1 1 0.319981 0.427322 0.58102
25 1 0.569183 0.391819 0.554495
20 1 0.519801 0.646553 0.582858
21 1 0.914545 0.628158 0.524807
3 1 0.822621 0.371555 0.429403
64 1 0.67999 0.570021 0.391173
5 1 0.242408 0.73793 0.382524
39 1 0.111644 0.961361 0.373869
40 1 0.563791 0.875509 0.465952
12 1 0.333342 0.852002 0.562593
6 1 0.79131 0.807067 0.453281
7 1 0.150148 0.0398891 0.760175
24 1 0.172812 0.092295 0.974413
61 1 0.0413836 0.265056 0.757997
50 1 0.283733 0.221208 0.689066
27 1 0.504923 0.0707291 0.994989
13 1 0.53822 0.318022 0.764778
45 1 0.449527 0.0680088 0.78044
48 1 0.915315 0.0696711 0.869452
23 1 0.804976 0.0861525 0.668561
52 1 0.0372414 0.590425 0.83807
53 1 0.136752 0.408177 0.965311
37 1 0.367234 0.439994 0.881214
46 1 0.537407 0.600587 0.944304
9 1 0.36522 0.597568 0.73745
36 1 0.687435 0.452964 0.880737
58 1 0.834428 0.533426 0.734205
31 1 0.159772 0.691439 0.67184
8 1 0.330639 0.855737 0.796514
11 1 0.562831 0.821753 0.837728
57 1 0.828407 0.845611 0.894127
4 1 0.724566 0.735793 0.689329
63 1 0.99092 0.859729 0.670098
ITEM: TIMESTEP
65000
ITEM: NUMBER OF ATOMS
64
ITEM: BOX BOUNDS pp pp pp
7.3256190782646335e-02 1.0788143809217182e+01
7.3256190782646335e-02 1.0788143809217182e+01
7.3256190782646335e-02 1.0788143809217182e+01
ITEM: ATOMS id type xs ys zs
17 1 0.0140507 0.325764 0.0145043
39 1 0.0781371 0.0393383 0.10771
24 1 0.300248 0.119719 0.133443
60 1 0.556601 0.163108 0.237386