8.332919669161676 8.893352554249399 7.389641717289611 0.5684682314584832 8.131861489404145 0.8587275348408827 7.394919639941986 5.467674019877838 0.7814424586311768 4.9074103667789695 6.454709017867895 7.195680704064633 0.4512824830767899 6.31940804277934 2.512396952523818 4.400158634188531 3.0876905216327577 0.5714149834643987 10.208221645647034 1.1431409307083162 4.26641247799757 6.231788180550324 2.3387649319598944 7.387039775460984 0.45826436031693646 10.25986913324533 6.054856136203753 10.142802904955765 1.6387896950629712 7.388541709362061 3.8215967722948534 9.702080497983447 3.6333896466909024 9.855224870896766 8.163063637349051 5.694899695911876 8.759437166069583 2.8010009555152418 5.693535263001744 10.090531374398571 2.8305953995660373 2.3108099228011194 5.133705266874312 0.8893754480222926 2.3863614288250052 6.000881708758716 7.672661064648862 9.302566080297012 7.434033383365803 2.917030637873078 10.190388824821571 8.744470712055332 8.724078257398459 0.27334879689619085 7.147809205217636 4.8460320398215835 7.520584968665181 2.6599460928056606 5.728841286676352 2.5614213442948817 1.345806814359957 3.1936720546524042 4.862891776711136 3.207030804772545 1.1146782255829801 6.081668829437765 2.3065897000790794 5.550661156411984 7.9393177940858175 3.8813779723574324 2.7490255809385413 3.748985672077301 6.449600327204373 0.6317144564928422 9.038923795661512 5.746155834535949 7.839312265672569 4.5026286034394625 1.2368319905374605 9.679636105461721 3.312525795824237 2.5984937268531514 9.825683311842488 7.373458908355473 0.7913414722791895 6.875419742158259 9.663707144510866 8.970289647182023 0.19604468208773887 9.049363293973927 7.4786471664273675 0.026155861577273776 1.7169114119175728 0.5752967422087311 6.2400276630076394 6.069737974223577 1.756691506297502 2.9211556676013872 7.100868482309333 3.283417893741396 8.443734890862956 1.5548612055908262 5.711431545823024 8.710719507278316 1.0914088271155926 0.4445650308192273 9.170057433024544 8.757067918225632 9.94296108011812 5.090773226701982 0.7532928326852201 2.6430969329154115 10.406762499570364 10.061180201331752 6.88021112284268 5.445282512352629 4.831076162806636 1.103889686293555 0.3366172336290868 1.2879612051698928 4.706331033022832 4.287661669598016 5.49845308785061 3.380937827318356 8.118661394273554 5.805989919595045 4.7604218074602045 4.758666025575847 2.2573008833254318 7.825117932607463 4.2826270179296175 2.9646482887367953 9.678948600507002 4.863938899642169 7.471888463872522 9.318294078261106 1.2168520388534174 0.703512185463966 7.33489516889543 7.388055167394106 2.489180439052947 1.97106612817796 4.116536397868988 0.20744457193689803 8.638912259007821 6.63061509328204 8.957364554033319 1.963524727674666 2.008667360701397 9.326470098722602 6.709572393081607 2.2383469005738146 3.77424354641372 10.15182508536153 3.2361492838546893 9.49929826733947 6.798038415254893 9.506152162888046 5.513313771871828 9.93181292285238 4.83282136769169 4.47137357049804 2.18059648437748 2.366751672116579 2.2802106638165047 9.341436552736852 8.247848863764768 3.358324202807777 4.865610065532099 0.49245239516518025 0.020524667148166024 4.199185070425427 3.279123632024233 7.997734561238264 5.214259693568686 5.139543770489765 9.798278306647488 5.380403198625832 9.362537666347052 8.009009642495643 8.145051007535432 0.1537356271743769 3.925462905453828 3.2242078516411983 6.421782819036541 10.408306741468655 2.7217686537337875 5.738561549036137 4.990704236292913 5.49580883802477 1.018760707400479 5.57594018474701
10.472385438711934 5.992129491183488 10.167528056531975 0.8734300919429314 4.76029725046975 4.56017032893244 1.4865779781279662 6.04083464283651 8.499341982850716 4.762652060908454 4.899646621136609 10.358587359592644 8.423124973493012 10.245705632046787 5.638822683371 3.2442042274765757 8.471499812369565 3.630893936214225 6.994873838539109 0.9754669051697229 3.7672491813911484 6.279565538217377 8.669144060457924 5.404215370070579 5.250662550015517 3.423191131319816 3.449435014172888 10.36587555117669 4.0523623837388945 1.0286770968837589 8.931486991730958 8.116179162145695 10.197426690427921 5.403533434015932 0.6504615091501881 8.206141445104885 10.187250925862479 2.3989977639953644 3.8838922124884196 0.5786312665690213 1.789016618364098 6.837197436403599 5.300220121736847 3.9949838578908263 7.724087241225135 0.042480354104192895 10.287815183421268 8.025843945406619 5.729722628405331 6.318446548583134 7.309843053779386 10.632789585066032 0.5123513441576334 0.9119925103081578 8.610050039222383 8.765158525902109 7.499101619445755 0.7730682841503678 7.1898862396665635 1.474665407673344 1.6212496936699785 10.410563673257803 2.656854834658921 1.4598546089864703 10.490083810380204 9.823736387731987 4.107407409649966 1.135423530987959 3.1635546337636637 3.441816509812374 7.402415873197774 9.334234163505384 6.628770074451127 3.2571077362606067 1.3491678631165107 5.860590419392514 7.085741817820878 10.637477895441732 2.8393473160330833 2.5425666140003544 6.234834795132849 4.121461685526215 8.452544121100535 7.376544924124588 10.579737091064633 3.6739091839112823 8.23715888034049 7.465452337249246 2.856907169440255 8.55971463418872 7.969158010864053 10.317596609557823 1.285129805484776 7.881529227841859 3.858074539669502 4.533841204072536 6.655972929881048 5.81565722654176 5.057525473038342 3.8259489583450965 4.790771267911807 5.613314012826844 2.541820746440584 8.738158120238413 0.5653079409013473 8.154410202209366 0.23074691591606553 9.478964435853445 9.176813487390369 5.482115909063194 2.992239510535206 9.540402612276838 2.167970614981842 10.241752533980003 7.959930563624605 6.295292688477684 8.100835600916128 10.567952383620257 7.1992841709196735 6.662611151163006 2.3432068705245217 6.857250618510576 5.370086601585647 7.5050792151747725 7.112827465491405 1.787514227993703 8.527173498081012 2.0562289992773493 2.2202665861726163 5.5209542984255355 0.22050615432041493 1.4418792007959984 2.7700135987269774 2.070954555957392 10.137799906649688 10.523370814047682 0.10164896209571068 4.490793990622918 4.673595474271843 8.599991482416334 1.395251823059481 1.974833538004667 2.253756039606317 3.3055678171439893 6.383102610764393 9.173659533137625 8.747268359718468 1.9664478555826745 3.7055765894489725 1.295699814331811 9.345251692888281 4.804846854289764 6.586596591571526 8.97567431702194 7.245336165110082 4.746690495129363 7.820165638174443 5.0392197520714 10.181283985384315 2.0527766980006965 5.7428072764538785 2.687243610094147 5.077354894877386 1.8876842412708974 10.245247456260072 8.311170252771442 2.092659301946717 6.260471328687249 5.364588492145052 1.7752606895117573 5.896860893299073 3.193485233412173 0.19329157811455583 7.799728867036729 5.526612236628938 7.1386131725577595 3.244875508280369 9.75925080956439 8.720853992851735 2.569076878124773 2.693359724084266 3.7687302612598357 8.291660488458014 4.3854988016850145 5.402308080167738 2.2438466563122215 1.3534086529563492 9.352699713235134 6.039055215943915 4.095409597188513 10.12940356897684 5.004579531545482
7.090165024944283 2.9141837831209654 9.237785090889641 10.200315272235924 3.6838943135854727 3.178121414331843 1.9977037474295074 9.24239330560423 3.7585111236052793 10.17632482109446 6.198635485126496 10.340172455390992 9.903448106710373 4.378412007190849 6.848991121050385 6.142728880221019 3.8432617391317083 6.921495832659337 8.669587949715224 9.170752634254262 4.453850188814876 6.373480965188634 9.119496912718141 8.375568916895217 8.371462058874112 3.928780390443902 1.3369689612341 9.173003405793102 10.590765464824202 2.538763624173561 0.5323064022190714 0.48189338661455267 2.6514622085708828 0.8867207824258031 7.49263711101252 8.680457789516536 8.289388901434169 1.7526043272972545 6.816594944920269 3.3098928874089952 2.926760369112867 4.2004943839856494 1.4998245493073517 2.506111436114858 8.591568314477929 8.197597957871562 4.03675342132603 4.929669692423671 8.009919879888933 7.187620232426907 3.523001483631398 0.4176471931353112 9.719727546457172 10.259347356102916 7.686992833465828 0.4929264340203406 8.859826146983735 0.8402418167905918 2.8718351432669795 1.1633075363416825 9.944228673501755 10.058986020491474 7.921905112273003 0.024810756029316577 1.6982337939633079 6.818088347837034 2.9121036862011853 0.06450327212419898 5.930687000367734 4.648973947053949 5.270410902211047 2.8482073756910147 5.434365208144491 0.4624972828748793 0.9815518676403973 3.368487617564649 7.580129187607582 9.698499890711723 10.15617454888182 6.320881181027424 2.2673803127062397 4.98577897343928 7.182275983417625 8.081251203491856 6.295557334424561 3.2904999838184295 2.3297938874633366 4.172610418096904 1.7230882853637584 8.662952973899309 3.2496767483722815 8.3766783019191 1.3233576603641537 4.751325382670825 9.003704850850376 4.542558322070732 8.506241672112177 6.287034270635307 7.942343397905305 1.3216082455188 1.6059841623619793 4.784041573711676 4.287847787452726 5.482100765662524 10.5445659788777 6.764101832395971 8.9675111644462 0.9185515988802856 8.345967537652191 8.327396005665847 9.329576034452248 2.5260270307262918 0.19482187750661215 0.961099714695297 10.50508680605664 1.3901981080530903 10.097846497818445 1.0056884589244313 7.352193233854439 4.638690801255651 3.9126623061065278 4.4771366071527225 6.039972092383877 3.250082100592546 4.639522840023563 8.325977272894919 5.257503634144719 1.118228102582754 3.5039605964426412 7.4124733758733 6.4011089191487915 5.7445023253018705 1.4999952239264105 5.662258493242869 6.857940871387284 3.043469807058073 7.738717910204362 6.411146720182193 1.5323807328928345 4.922586695732727 10.50895898647654 7.521214442541193 1.1129798580466932 4.495878813758127 4.629207692734192 10.031123388930112 9.520603601833907 9.5675391220751 3.932065876860785 9.297393201595956 5.141263551401925 2.8716751358116115 10.622937630516802 6.693175861013311 5.658023629257471 9.183446559046766 3.1281030837838983 3.065529501571434 1.494522968952835 2.0771634497651106 6.220161821455298 1.8968883833841612 8.017418895963834 1.228771919914457 0.6812829436137283 2.065205559267297 10.516575341352041 8.051884501850036 9.280592418782346 8.763426988706536 0.9649153591476322 6.5541080479713925 9.814633301817604 6.181952041113489 5.502251037875164 7.73509107454936 2.576760061241546 4.980701403522278 1.0883707114111398 6.347527755927993 7.499549433084405 6.068496088094094 0.7060382303918507 5.174385094663041 6.282724736504071 5.2460364331767 1.311015751973458 4.890371861385362 4.402253118040637 9.933006817298633 8.159281505892842 6.522757253883014
4.511318552165835 8.566505370042952 7.681714230025387 0.05257127669172167 2.5764468997969128 4.360178382205207 10.351857232663143 9.812175305618531 2.0150857682179715 4.654663951956816 6.044113506857282 1.4014806132057898 9.260758860438091 1.035885769880735 5.344543474851868 9.430231567305864 1.499508320665363 8.356247799148948 7.2640903548899765 6.348692033092143 0.769729317964434 8.988916250771679 3.389358820872374 2.837772924166508 10.300354559653647 6.3851347017793065 8.377376286225639 1.1306547126919386 7.456862646503974 10.12806472117565 1.3592977740947827 6.536327825341631 6.2573894330479565 8.79603805195429 7.430407027096669 4.093970035759244 0.7365327050612326 0.6566288973181208 10.392980999740232 3.3679020214651683 6.2184791265217605 9.66790851315804 6.208354397877493 2.457957920642018 0.4227370749151723 1.544434156344221 2.7749593618347523 6.259094539022567 5.460098824472806 4.68611839136422 4.660404122380659 2.0430558606337814 4.185569175972927 3.450160146339683 7.395817734468864 2.5066752342023078 7.362944138536007 10.146143080794653 5.789597315665789 1.904815188046291 7.6293642993887545 9.950267708121272 6.345864310761578 5.818827703801962 8.52018155927932 5.291632236037258 3.6753188607509326 0.42337039999145604 10.150156963803207 0.7216739244253444 6.056843552704993 4.2014976193630735 4.56088312335326 9.123810255731984 1.2098944822697828 3.018567111076877 5.062597317981864 6.967264235943406 6.3596852008042255 1.2462947880755904 4.90812107111439 5.285023626545602 3.2412793690897734 9.177176895521178 7.48185674650447 10.377857451095863 3.211466491334944 3.055465180738626 2.687204653104197 0.8753791668521247 9.063633782764688 8.432289171184356 7.797290761087003 5.760250429605884 7.73877703121296 9.725988023498175 7.388711361121265 3.5798964704948006 4.78353183704412 3.5976147456222716 3.474688254645254 5.037306677811871 9.810470199643921 9.46755326578118 4.171059889108232 7.896091591131338 9.179295039589016 9.770130145871933 5.343484402817949 0.6228190817072801 1.9924851710141331 4.584161526658806 1.6715969354569151 7.080860302301594 6.12829914283353 0.20234948001672912 8.353790752030255 6.730529864201418 7.877070657402147 2.703895628358765 4.492064622589181 6.774110678397198 3.5745799288845257 1.6723806487620154 5.056062843532582 1.1129576190051464 10.435809872791928 3.25117110188658 0.04955080325098374 8.112925999355982 4.182699090761005 0.6077580183129133 5.3718145797252905 6.193728613089066 6.652518618182921 3.6159366918090754 9.830645521890084 5.352814827436778 6.160346662579929 5.773541783631572 8.75635462284333 0.26079119299246567 10.011227894393668 7.4856376336655615 3.9782770067738964 1.200309880362813 4.1018177595305865 8.381549030039281 6.748428181574655 6.322299958006873 2.7234672795455945 3.908812472069127 9.193581921326588 8.25078540601126 4.6794144653895104 8.55023802360195 9.604025288072025 7.929092275708264 0.5653760736595295 0.043909126526295465 3.5699094212149416 7.895953911766929 8.99255945856836 1.2319231805753048 1.6463062952869216 2.2029016027132258 9.073642013485225 1.1223727693866894 2.4247771938193257 9.216786189589762 8.777292476953917 2.298567579537159 1.4012582080786669 8.01448525380318 7.980690265200813 1.081863264089275 10.243482391432178 1.3120737521023198 8.99926338454307 5.666427238120971 2.1531146263986782 7.843964065621829 3.525693163798809 4.955355683827192 3.8934241554162794 2.1446420501273233 1.6925347895675005 1.3459640571877385 2.5961456396278124 9.450978788450342 4.681892693948882 5.634877482230514
9.178813466703001 1.1589881637297959 8.059524060596312 5.457474962325008 8.336157937246016 9.128643197553544 2.856609324488569 8.416379648152223 7.354498639747515 0.18727099054526455 5.607235540390564 4.950161400375852 10.03783667663861 7.751010718482432 4.6459803687824595 8.829386206698072 8.022614888283957 2.723396059289073 0.049914557162638214 7.716859431647754 9.50822756542548 3.0666207186219854 10.482965732702224 6.044830602792938 8.568443747421355 1.3188292887137556 2.7696566823590656 7.520415566071183 3.717122426578786 2.7405879354276927 3.3204835485115627 2.6897414031725986 1.2768164432760465 0.25265295292714784 3.4472511809854542 8.055720080627102 9.585448358800424 0.15810503079245666 5.644937208529836 6.658687303713024 8.201063815283966 0.710906796545635 3.855534464402868 2.702854567455344 9.148487293059585 7.423868441130453 2.325880152506726 5.261802459353304 0.19086469495506456 2.7708824092380326 2.6750538138470414 2.4213283499007967 1.6081430985941556 7.672807230282109 0.022606207628127397 2.909252180618012 10.372291048820292 7.1330753057064715 5.209001104058477 5.015209457849327 0.5278920369214745 8.498862613817906 6.940192388045521 8.222661968220253 1.3978147061299713 0.07862192599693592 8.752323912488512 8.476535364720855 7.969485968047339 9.98906120014453 6.504393649517495 1.422213010988037 5.284182541505484 1.777568139778317 4.372125510832484 1.9936130688073403 7.041040123673663 0.9103484096701636 7.968556106277087 3.99294267417952 8.682119348834554 10.077789032926331 2.427192819019994 5.045894896267614 5.523474014790785 10.145098345159282 5.76493164333633 3.5510787009228104 5.142632220206805 8.556027979466299 3.262081889373178 5.02737162713977 2.735008764806186 9.09355148233759 4.475709998716251 6.343263397988413 10.239373648729512 10.084858095702446 2.5360500458055264 6.190406802892364 6.059919723337467 8.104379324399902 6.6251594469288575 6.710041033297347 2.86535847841775 5.482612929954865 4.429407109202157 6.363160326549583 4.249933220932669 6.592498052248787 10.52427061520122 4.705449255634428 8.066899555092167 3.961126608381496 6.270744746519854 2.3276130767149215 7.552168232203053 8.282278787626579 6.355098002337064 9.989917095637603 0.6886841568977363 10.479827449227626 8.717020865052046 3.8835148503986057 10.024702379133814 3.0295107807001465 2.6294271874385835 5.92615699436464 5.924360670490293 5.603072295646484 1.9088477151601317 1.8437151247984522 5.208768638615914 7.727352076396157 6.483841591072741 1.1992258185152072 5.605481482960317 7.812909925870284 6.869332694507976 9.941923548359414 7.9674571787304265 7.562755976450685 9.973158450551033 4.5489366131235265 5.425415864473396 4.9763771623303175 1.7676883584693988 1.2483922596172343 0.35016692277671957 0.6456833333291355 3.715495168480847 9.964536095954157 9.400807397739426 6.383765218049465 10.018108813853852 2.3254680546767283 7.791597071431687 7.626472640934937 5.881724395002074 2.7485868599740573 9.249704860073622 0.9383900820098497 5.82379823335984 1.161048652879784 10.059318596853617 3.531773502579075 4.080117215140561 4.856351027690746 2.3729966710697905 7.390234918236029 3.821594509788703 1.619724104278192 4.678937628571245 0.019624309996708517 8.70933893883645 4.2183601871882335 0.7327839080129974 1.322950267013732 9.759575541890968 4.58166140746975 2.3392997485092137 1.5734846144302508 3.353895172574449 0.9340197316896695 4.885197875790582 2.895061222010657 9.215786038681507 9.82922007516057 0.13022185761815425 1.8282139064239253 2.6811613150198266 5.539809995436333
10.100828753757762 7.2930459966611965 2.9135326764526295 3.3477230458139546 8.98469499723519 7.3106692170128476 8.45947428342366 5.53591661211074 1.0128180246077434 9.062658937179329 1.9190553057610644 3.452593393739359 3.3952834865464943 4.011894851177415 7.362553334175619 6.0803183414583435 6.250149808298737 3.537880030774894 0.6737337005668848 0.13420776417405944 4.793198018264752 5.754876912114248 1.0971434914172442 10.506289988799587 7.039697632892739 9.950241885930357 6.869315109252415 8.636310529970874 4.177868920418288 8.085137160331806 8.967633430929622 8.912315806013432 1.6940015892198543 2.608469751459843 1.8654014484908215 9.41517633044313 1.3322433973110495 4.406165394282171 0.9725590864742943 5.6686047311865275 2.278513895254771 7.382825866065403 10.419933029902648 2.5737107840795552 0.23856096648722058 7.533412733892807 10.13026790356948 3.1768636460967663 0.5048591650540646 4.493062812732891 5.837493043119346 6.345026953102309 1.8428505086782447 2.3834902156417006 10.121133077386004 8.851307459913336 6.2387895604232275 8.279352890569164 6.787642133154892 7.2529036282354244 4.606813652934112 6.256677711928693 7.744340321312699 0.8222138358591672 3.671405332296731 3.384018613886359 7.978867975914269 1.6656327612695405 8.499076192295654 5.389759393175092 7.1415583629108275 5.666919769048275 4.7230124569965675 3.378878949502383 9.80752877199428 5.98060885240922 6.292761335078046 9.428952750441415 10.284701571750253 6.3596299583004905 8.49587582395759 4.5389594858194835 8.079976301455526 0.05247226432423607 9.278747383475501 5.895544757542888 5.0407602856339295 2.0209054385329988 8.397618157631362 0.7370246934882354 6.622695996790813 3.869881155487404 4.098845255858897 5.139484230790868 9.922392323041517 8.942507360301981 10.333819807667213 0.4047533389988362 1.6275568558435118 4.079950365968941 3.886518831946871 3.222951069614105 3.6866441722640646 6.96051500964106 2.739578880858904 0.8328714863147634 10.33443444794406 10.035104633119792 3.497727065102971 4.865057944425036 0.8357740720359403 6.770241454972443 7.350748001961705 1.3890234421962877 6.505193731451597 4.454446447753083 6.465019571287368 1.2219260648632464 6.805636257121883 5.902570731742013 1.7201343982319852 7.936277643627264 3.831921819769053 3.9198895600811774 0.9547313392718987 1.674862962668391 1.689179842220455 10.454469455113731 2.4679078784927286 1.9127393470541583 1.9487911784650545 5.741439603992844 5.394655320897559 9.578882589007364 2.46845893529266 8.780168146491423 4.297914524834111 3.2516272177028425 7.314007349550894 8.02631184693913 8.686128184133903 9.902268152597868 1.9141593780385973 6.290991594970574 0.19236227188528035 6.4796861599624656 0.7352973423653735 9.32730396534638 8.297601348443814 10.046316519549164 7.34984723603874 1.6497368920407502 5.471782078395649 8.084787451208772 2.591545949354258 0.5744120707269432 1.3748019378595968 8.423337674043545 8.161967194937626 3.2712109285927116 5.327617141736675 5.038799795095712 2.9541837126937223 6.309663942691326 9.618071205279406 4.067329045801282 8.861533802450525 4.734404496610534 2.9934041207042235 2.1346138897496103 3.7825810416828887 1.2238123746783962 4.485952060564545 8.22313449973001 7.194798927581121 4.419200007049779 9.802696427748728 7.856989047914059 8.493131137204086 5.091987373535243 9.592945134651766 10.273553268797794 8.191734859380073 0.4058257803094719 2.170994235791235 8.662125421598429 5.116212678239919 0.5552342343647158 4.887068424683834 3.4066967206527656 0.9006959811401648 7.3132655423202175
9.342423316113152 1.5451521610533594 7.226621323499572 3.047665599363887 3.3736602353802825 5.067692337979812 9.226841276793584 3.7442148310865986 9.966559959697552 6.202251749932292 8.991622432884906 0.9668842534880285 0.39304792838352226 8.025845278919427 7.902196167335843 4.331922274657706 1.383131383371858 9.4042956374644 8.177389477226475 3.0290794894503446 3.345733304950511 7.699362372739681 4.42108465231262 1.2200597633822807 3.080124950657783 5.019810018265369 10.389858347614256 5.797719919598191 9.688967757265251 8.302917367482072 3.484433875047745 6.080279740214122 5.088910860947927 7.388843777987673 2.6143682876673084 8.702884933245741 2.751328068486518 2.671050084890789 0.1258590648011726 3.1116926781751295 5.598388932695616 7.739835723453751 0.6931844134231164 4.986374126644776 8.273790990781468 8.822691570935149 7.959238859897451 3.46573100487775 8.626258361306357 6.756480843607731 1.1455030323527429 5.737683918643882 2.2895837124905145 1.8657439815666186 0.6647235701842924 2.4559776925046144 8.734272213094025 5.483656058877524 10.516108028546109 2.989986032676172 9.648759770770393 9.818338121415024 6.245081534912956 9.096632361711103 6.281245370707038 8.762326518349019 1.0395261163117395 0.11131604413152996 0.6245771481882904 7.189778155304309 0.14310773904989113 4.848586409461629 6.632799888317843 0.668018332330017 10.02986524783254 0.38039217804090864 0.8324613546044768 4.30177689935533 0.012861672976721387 2.12254224378154 1.0966654014491406 1.1488784652211075 10.263141625656594 8.438465410655077 5.483369465520775 4.44956354031835 3.636646791187206 8.782993083741175 9.729345576860405 1.0134471823045539 6.127249207014478 7.604266451143208 3.431138125261397 5.705734066650871 7.04143955676533 6.5442319265139615 0.41405840580377673 2.8377412728304057 5.59644646661099 2.4340161497227073 0.008339866681365018 2.8409256434609382 5.6774780845892785 4.558458401313798 7.939230397768937 3.7554238157060738 8.585095063622338 4.60792229177474 1.1172682794286868 6.9047557547341 5.84930672381282 3.785951315484114 8.592429730641333 1.5150598585948258 10.234673352219632 5.3468979548649145 5.634032654620045 5.509162867628091 4.032856799606847 10.509877276679033 5.409120556985523 2.77345944436872 6.1144904953548105 1.5275319768977453 7.655672807688774 2.087280646332775 0.5961226736907275 8.77832267348306 4.1458701132844515 7.40440473580221 5.711582694042283 4.450083654188004 1.0248068938005406 3.616776318452682 2.764182311265101 2.3506811703216677 0.5469337005608895 6.272647570004599 7.288079676668851 8.518669092269427 5.8142998760144975 8.987068782883243 10.244958869356253 9.02436837753555 4.85062440666517 6.080109907113827 1.8966854495266274 7.833604823954169 2.39222659248135 5.727759296845389 7.955905885304161 8.321195654901329 8.285265339620153 0.44774055541979746 8.168536926873594 10.564828899193259 3.4167447700113898 2.333888922529992 2.5861441493120205 7.90344868645052 5.022155837963195 6.85344492930745 3.0468482775687167 2.7086044291935383 7.810539366020345 5.0805996536022375 0.27719097173285273 6.047671784957468 9.97889408860648 5.1521524616703065 3.1891471864784524 0.43370597259416316 5.647322094718135 0.18304293112740114 3.0360532611312103 8.748612495500192 6.920953586674743 2.4102182865438597 5.354975641697699 2.3774086544806052 9.104922339919257 0.6927587692155018 2.801163468854354 6.4544220601641715 7.0023779436974625 10.265933257242693 3.1830438094365983 9.515546932726442 9.88636689265197 4.445593691598953 7.577018853114617 9.01019792822968
9.886292997762913 0.010608706517874612 2.179695782780767 2.704089317053368 4.3928603303942255 3.614477946249178 5.086763814473001 5.841531181807166 7.963219394067316 7.961509853731635 6.756602464965924 4.036288442118029 10.004771575809599 1.283397588525624 7.235188812852667 6.7972810303447435 4.947696424557474 1.6767192848874608 0.724913059211197 6.473583284175784 9.669372503864743 8.230300562162702 2.8519804834841134 4.12997337616588 0.3036462184056182 1.6963949261422118 4.592048325158323 2.076571212966336 0.2728171537434251 3.6941149184081805 4.341595356849736 2.872686096245454 0.11306857307135203 6.778688451911355 3.4009022051816875 9.985329536339849 10.227733861328899 6.577313094978623 3.0039278263634905 0.26432891433757083 4.007194401622606 3.842059176153699 2.9516116447865035 7.918420942662137 2.2872163134583756 4.493011786581387 1.7291841221458117 8.658832418481772 10.182903555134857 7.949776673166876 0.6566864724231362 1.4848154185101734 2.5909623435357663 7.142109119793226 4.7232051091727225 3.4868358072727283 2.5952627400323522 2.4946865533270093 9.869197594406113 9.89329043304995 7.13664071437164 7.743761135323013 9.355422323088046 7.750301985303006 7.654546489979021 6.351653770668873 2.9884676355016895 9.906839336579935 5.623262168513771 0.06156362678409089 1.7099332114092425 0.652842661233595 4.0530228245343745 5.626065389933768 10.135238172731954 7.527360936309616 2.6122094877077884 6.546456422832748 4.773429492947667 9.489053162370851 0.779802045902068 2.6988226586279196 5.225916150492166 7.207560092644971 5.2121230269142265 8.038120620948597 6.862254181363535 10.384809825215315 4.361759438200396 8.62882520737226 0.7916403472700776 8.807456245056379 2.9712766677782994 8.488196932802415 9.55558719804396 10.273052607618848 8.044417250880635 2.5202871853103903 1.785991828952567 5.298237139475495 0.3935542363205413 6.187368006236327 4.365454593708574 5.70410962264959 4.95836777882678 2.570713316081471 0.5569289537915876 7.701213755664197 7.1832017974272695 0.9016827153993875 8.633380442179755 6.996437170319977 0.39468295767260825 1.0030945593992526 2.146619893677395 3.6547423993727697 9.715869877342646 2.457278412938187 1.1789138810530122 0.5816663209967647 4.946825726995202 3.58698726345989 7.1015367370439515 5.839959678889895 7.300023926453051 0.6788043141574299 10.56422661435807 5.1659760561138235 6.288644998296671 6.312684745625735 8.160984541595505 3.026799564767556 6.7585243705606945 4.861306237159388 4.397373092149901 6.3492540432411495 10.46576346198068 3.209614198055763 2.0196042322152628 5.886881782885979 1.2138267296475191 5.612282884618783 1.983597702536439 4.589871581252643 10.5794001121201 3.932909033992689 1.253517796571566 3.9485603535876717 0.778106309308229 2.47953429209089 10.071507358478843 8.423245018309533 7.536460787661651 0.4413194303952157 7.278543180496029 5.4449709152441965 8.159657258726188 4.957773156101326 6.739241605035263 8.144866018430523 10.149243661568985 6.723420393233007 0.028722401292013637 10.274571019221346 9.233524664369998 2.27528138589748 7.775318612823887 6.515132547116874 8.680090180916748 0.2877655443308176 4.341128153279737 2.6969538443479215 7.683927223574216 8.981797504506869 3.2592121043163895 2.4463203655691084 5.4349897480669345 5.191905854248795 9.661992811111343 8.650263480277463 7.486140839520117 5.3891082338403935 8.779041773390048 8.841211702988844 5.762807380262253 0.6875261553482839 9.176886849770517 2.395681869538937 9.414385537274573 4.3413829915906454 7.845866351893809 4.329575483185204