An instance of this daemon is already running
An instance of this daemon is already running

     Program PWSCF v.7.1 starts on 10May2023 at 10:47: 3 

     This program is part of the open-source Quantum ESPRESSO suite
     for quantum simulation of materials; please cite
         "P. Giannozzi et al., J. Phys.:Condens. Matter 21 395502 (2009);
         "P. Giannozzi et al., J. Phys.:Condens. Matter 29 465901 (2017);
         "P. Giannozzi et al., J. Chem. Phys. 152 154105 (2020);
          URL http://www.quantum-espresso.org", 
     in publications or presentations arising from this work. More details at
     http://www.quantum-espresso.org/quote

     Parallel version (MPI & OpenMP), running on       4 processor cores
     Number of MPI processes:                 4
     Threads/MPI process:                     1

     MPI processes distributed on     1 nodes
     753558 MiB available memory on the printing compute node when the environment starts
 
     Reading input from pw-si-59.in
Warning: card &CELL ignored
Warning: card / ignored

     Current dimensions of program PWSCF are:
     Max number of different atomic species (ntypx) = 10
     Max number of k-points (npk) =  40000
     Max angular momentum in pseudopotentials (lmaxx) =  4

     IMPORTANT: XC functional enforced from input :
     Exchange-correlation= PBE
                           (   1   4   3   4   0   0   0)
     Any further DFT definition will be discarded
     Please, verify this is what you really want


     gamma-point specific algorithms are used
 
     K-points division:     npool     =       2
     R & G space division:  proc/nbgrp/npool/nimage =       2
     Subspace diagonalization in iterative solution of the eigenvalue problem:
     a serial algorithm will be used

     Message from routine divide_et_impera:
     suboptimal parallelization: some nodes have no k-points
 
     Parallelization info
     --------------------
     sticks:   dense  smooth     PW     G-vecs:    dense   smooth      PW
     Min        1900    1900    501                88452    88452   11935
     Max        1901    1901    504                88457    88457   11936
     Sum        3801    3801   1005               176909   176909   23871
 
     Using Slab Decomposition
 


     bravais-lattice index     =            0
     lattice parameter (alat)  =      19.9699  a.u.
     unit-cell volume          =    7963.9391 (a.u.)^3
     number of atoms/cell      =           64
     number of atomic types    =            1
     number of electrons       =       256.00
     number of Kohn-Sham states=          154
     kinetic-energy cutoff     =      30.0000  Ry
     charge density cutoff     =     120.0000  Ry
     scf convergence threshold =      1.0E-06
     mixing beta               =       0.5000
     number of iterations used =            8  plain     mixing
     Exchange-correlation= PBE
                           (   1   4   3   4   0   0   0)

     GPU acceleration is ACTIVE.
     GPU-aware MPI enabled

     Message from routine print_cuda_info:
     High GPU oversubscription detected. Are you sure this is what you want?

     celldm(1)=  19.969904  celldm(2)=   0.000000  celldm(3)=   0.000000
     celldm(4)=   0.000000  celldm(5)=   0.000000  celldm(6)=   0.000000

     crystal axes: (cart. coord. in units of alat)
               a(1) = (   1.000000   0.000000   0.000000 )  
               a(2) = (   0.000000   1.000000   0.000000 )  
               a(3) = (   0.000000   0.000000   1.000000 )  

     reciprocal axes: (cart. coord. in units 2 pi/alat)
               b(1) = (  1.000000  0.000000  0.000000 )  
               b(2) = (  0.000000  1.000000  0.000000 )  
               b(3) = (  0.000000  0.000000  1.000000 )  


     PseudoPot. # 1 for Si read from file:
     /home/ppiaggi/pseudos/Si_ONCV_PBE_sr.upf
     MD5 check sum: 8553c464762ac42b85b1eed164b4d029
     Pseudo is Norm-conserving, Zval =  4.0
     Generated using ONCVPSP code by D. R. Hamann
     Using radial grid of 1510 points,  4 beta functions with: 
                l(1) =   0
                l(2) =   0
                l(3) =   1
                l(4) =   1

     atomic species   valence    mass     pseudopotential
        Si             4.00    28.08500     Si( 1.00)

     No symmetry found



   Cartesian axes

     site n.     atom                  positions (alat units)
         1           Si  tau(   1) = (   0.4897280   0.8746910   0.1561850  )
         2           Si  tau(   2) = (   0.1341680   0.1510230   0.8000970  )
         3           Si  tau(   3) = (   0.0568751   0.4986410   0.9281980  )
         4           Si  tau(   4) = (   0.0649550   0.8049030   0.8375860  )
         5           Si  tau(   5) = (   0.6730120   0.2541680   0.3592760  )
         6           Si  tau(   6) = (   0.4208360   0.7046430   0.8883850  )
         7           Si  tau(   7) = (   0.1134820   0.4726960   0.3552270  )
         8           Si  tau(   8) = (   0.1884050   0.6639470   0.6969900  )
         9           Si  tau(   9) = (   0.2098080   0.1534120   0.4473110  )
        10           Si  tau(  10) = (   0.6034230   0.7679490   0.3407630  )
        11           Si  tau(  11) = (   0.6200280   0.5259140   0.9560570  )
        12           Si  tau(  12) = (   0.8351110   0.0353471   0.8169640  )
        13           Si  tau(  13) = (   0.0794538   0.4777710   0.5942740  )
        14           Si  tau(  14) = (   0.3938640   0.4506980   0.0887143  )
        15           Si  tau(  15) = (   0.9908330   0.2461600   0.3764760  )
        16           Si  tau(  16) = (   0.4535820   0.5807020   0.3938610  )
        17           Si  tau(  17) = (   0.9925220   0.8800520   0.0341391  )
        18           Si  tau(  18) = (   0.8498370   0.3754690   0.2169890  )
        19           Si  tau(  19) = (   0.9889660   0.1157640   0.9901410  )
        20           Si  tau(  20) = (   0.4805160   0.4288320   0.7307920  )
        21           Si  tau(  21) = (   0.7643720   0.6153880   0.3385330  )
        22           Si  tau(  22) = (   0.3175520   0.2433720   0.8096850  )
        23           Si  tau(  23) = (   0.5376270   0.0697345   0.5199510  )
        24           Si  tau(  24) = (   0.2829470   0.3462850   0.2720600  )
        25           Si  tau(  25) = (   0.5710150   0.8145180   0.7006430  )
        26           Si  tau(  26) = (   0.3245110   0.1824730   0.0201159  )
        27           Si  tau(  27) = (   0.9256690   0.8140400   0.3409080  )
        28           Si  tau(  28) = (   0.3536580   0.9455540   0.3508560  )
        29           Si  tau(  29) = (   0.5950950   0.4700310   0.2075960  )
        30           Si  tau(  30) = (   0.1028170   0.0161050   0.6005950  )
        31           Si  tau(  31) = (   0.1202160   0.1070630   0.2039050  )
        32           Si  tau(  32) = (   0.7641240   0.3554150   0.8461660  )
        33           Si  tau(  33) = (   0.1472060   0.8879590   0.2535340  )
        34           Si  tau(  34) = (   0.1456580   0.6863520   0.0905435  )
        35           Si  tau(  35) = (   0.2662160   0.3521270   0.5594720  )
        36           Si  tau(  36) = (   0.8164680   0.6141820   0.8628640  )
        37           Si  tau(  37) = (   0.2575040   0.9138680   0.8221920  )
        38           Si  tau(  38) = (   0.2284520   0.6562950   0.3477640  )
        39           Si  tau(  39) = (   0.5619970   0.2513140   0.0304026  )
        40           Si  tau(  40) = (   0.6426030   0.2454230   0.6394500  )
        41           Si  tau(  41) = (   0.9871370   0.3284510   0.7772480  )
        42           Si  tau(  42) = (   0.6171280   0.8575930   0.9542290  )
        43           Si  tau(  43) = (   0.9391260   0.5821980   0.1812310  )
        44           Si  tau(  44) = (   0.4182030   0.0773650   0.7265390  )
        45           Si  tau(  45) = (   0.6953590   0.9005500   0.5094620  )
        46           Si  tau(  46) = (   0.3804010   0.6754030   0.1194800  )
        47           Si  tau(  47) = (   0.7969190   0.7663410   0.0598338  )
        48           Si  tau(  48) = (   0.6751380   0.0614342   0.1710460  )
        49           Si  tau(  49) = (   0.1149220   0.3400070   0.0940417  )
        50           Si  tau(  50) = (   0.2896930   0.9567360   0.0290137  )
        51           Si  tau(  51) = (   0.4215970   0.6728330   0.6079720  )
        52           Si  tau(  52) = (   0.8692300   0.0197919   0.2680580  )
        53           Si  tau(  53) = (   0.8569070   0.2870940   0.5581220  )
        54           Si  tau(  54) = (   0.4972480   0.3827770   0.4722190  )
        55           Si  tau(  55) = (   0.8122770   0.2306370   0.0394847  )
        56           Si  tau(  56) = (   0.2892680   0.5163750   0.8538270  )
        57           Si  tau(  57) = (   0.8478360   0.8102910   0.7596860  )
        58           Si  tau(  58) = (   0.1741520   0.8042090   0.5194800  )
        59           Si  tau(  59) = (   0.6716040   0.5783080   0.6808070  )
        60           Si  tau(  60) = (   0.9362780   0.7366140   0.5612090  )
        61           Si  tau(  61) = (   0.8848910   0.0350005   0.5795510  )
        62           Si  tau(  62) = (   0.4538930   0.1595240   0.2813130  )
        63           Si  tau(  63) = (   0.8337830   0.5303780   0.5277850  )
        64           Si  tau(  64) = (   0.6041280   0.0987228   0.8605950  )

     number of k points=     1  Fermi-Dirac smearing, width (Ry)=  0.0100
                       cart. coord. in units 2pi/alat
        k(    1) = (   0.0000000   0.0000000   0.0000000), wk =   2.0000000

     Dense  grid:    88455 G-vectors     FFT dimensions: (  72,  72,  72)

     Estimated max dynamical RAM per process >     142.29 MB

     Estimated total dynamical RAM >     547.56 MB

     Initial potential from superposition of free atoms

     starting charge     255.9608, renormalised to     256.0000
     Starting wfcs are  256 randomized atomic wfcs

     total cpu time spent up to now is        5.0 secs

     Self-consistent Calculation

     iteration #  1     ecut=    30.00 Ry     beta= 0.50
     Davidson diagonalization with overlap
     ethr =  1.00E-02,  avg # of iterations =  3.0

     Threshold (ethr) on eigenvalues was too large:
     Diagonalizing with lowered threshold

     Davidson diagonalization with overlap
     ethr =  3.53E-04,  avg # of iterations =  5.0

     total cpu time spent up to now is        5.3 secs

     total energy              =    -501.33654273 Ry
     estimated scf accuracy    <       1.07855067 Ry

     iteration #  2     ecut=    30.00 Ry     beta= 0.50
     Davidson diagonalization with overlap
     ethr =  4.21E-04,  avg # of iterations =  3.0

     total cpu time spent up to now is        5.4 secs

     total energy              =    -501.00368963 Ry
     estimated scf accuracy    <       3.34914695 Ry

     iteration #  3     ecut=    30.00 Ry     beta= 0.50
     Davidson diagonalization with overlap
     ethr =  4.21E-04,  avg # of iterations =  4.0

     total cpu time spent up to now is        5.5 secs

     total energy              =    -501.32312129 Ry
     estimated scf accuracy    <       2.23185934 Ry

     iteration #  4     ecut=    30.00 Ry     beta= 0.50
     Davidson diagonalization with overlap
     ethr =  4.21E-04,  avg # of iterations =  2.0

     total cpu time spent up to now is        5.6 secs

     total energy              =    -501.46738860 Ry
     estimated scf accuracy    <       0.46699757 Ry

     iteration #  5     ecut=    30.00 Ry     beta= 0.50
     Davidson diagonalization with overlap
     ethr =  1.82E-04,  avg # of iterations =  2.0

     total cpu time spent up to now is        5.7 secs

     total energy              =    -501.49798018 Ry
     estimated scf accuracy    <       0.27403283 Ry

     iteration #  6     ecut=    30.00 Ry     beta= 0.50
     Davidson diagonalization with overlap
     ethr =  1.07E-04,  avg # of iterations =  2.0

     total cpu time spent up to now is        5.8 secs

     total energy              =    -501.52634577 Ry
     estimated scf accuracy    <       0.09401721 Ry

     iteration #  7     ecut=    30.00 Ry     beta= 0.50
     Davidson diagonalization with overlap
     ethr =  3.67E-05,  avg # of iterations =  2.0

     total cpu time spent up to now is        5.9 secs

     total energy              =    -501.53453093 Ry
     estimated scf accuracy    <       0.00658757 Ry

     iteration #  8     ecut=    30.00 Ry     beta= 0.50
     Davidson diagonalization with overlap
     ethr =  2.57E-06,  avg # of iterations = 19.0

     total cpu time spent up to now is        6.1 secs

     total energy              =    -501.53508508 Ry
     estimated scf accuracy    <       0.01492128 Ry

     iteration #  9     ecut=    30.00 Ry     beta= 0.50
     Davidson diagonalization with overlap
     ethr =  2.57E-06,  avg # of iterations =  3.0

     total cpu time spent up to now is        6.2 secs

     total energy              =    -501.53645766 Ry
     estimated scf accuracy    <       0.00241984 Ry

     iteration # 10     ecut=    30.00 Ry     beta= 0.50
     Davidson diagonalization with overlap
     ethr =  9.45E-07,  avg # of iterations =  2.0

     total cpu time spent up to now is        6.3 secs

     total energy              =    -501.53665556 Ry
     estimated scf accuracy    <       0.00046400 Ry

     iteration # 11     ecut=    30.00 Ry     beta= 0.50
     Davidson diagonalization with overlap
     ethr =  1.81E-07,  avg # of iterations =  2.0

     total cpu time spent up to now is        6.4 secs

     total energy              =    -501.53667412 Ry
     estimated scf accuracy    <       0.00054236 Ry

     iteration # 12     ecut=    30.00 Ry     beta= 0.50
     Davidson diagonalization with overlap
     ethr =  1.81E-07,  avg # of iterations =  2.0

     total cpu time spent up to now is        6.4 secs

     total energy              =    -501.53672229 Ry
     estimated scf accuracy    <       0.00015143 Ry

     iteration # 13     ecut=    30.00 Ry     beta= 0.50
     Davidson diagonalization with overlap
     ethr =  5.92E-08,  avg # of iterations =  2.0

     total cpu time spent up to now is        6.5 secs

     total energy              =    -501.53673332 Ry
     estimated scf accuracy    <       0.00007854 Ry

     iteration # 14     ecut=    30.00 Ry     beta= 0.50
     Davidson diagonalization with overlap
     ethr =  3.07E-08,  avg # of iterations =  2.0

     total cpu time spent up to now is        6.6 secs

     total energy              =    -501.53673962 Ry
     estimated scf accuracy    <       0.00002041 Ry

     iteration # 15     ecut=    30.00 Ry     beta= 0.50
     Davidson diagonalization with overlap
     ethr =  7.97E-09,  avg # of iterations =  2.0

     total cpu time spent up to now is        6.7 secs

     total energy              =    -501.53674048 Ry
     estimated scf accuracy    <       0.00000613 Ry

     iteration # 16     ecut=    30.00 Ry     beta= 0.50
     Davidson diagonalization with overlap
     ethr =  2.40E-09,  avg # of iterations =  4.0

     total cpu time spent up to now is        6.8 secs

     total energy              =    -501.53674129 Ry
     estimated scf accuracy    <       0.00001209 Ry

     iteration # 17     ecut=    30.00 Ry     beta= 0.50
     Davidson diagonalization with overlap
     ethr =  2.40E-09,  avg # of iterations =  2.0

     total cpu time spent up to now is        6.9 secs

     End of self-consistent calculation

          k = 0.0000 0.0000 0.0000 ( 11060 PWs)   bands (ev):

    -5.1304  -4.1226  -4.0626  -3.9934  -3.9058  -3.7908  -3.5748  -3.1825
    -2.9826  -2.8882  -2.8555  -2.7543  -2.7024  -2.6730  -2.6464  -2.5461
    -2.3727  -2.3602  -2.2328  -1.8393  -1.6891  -1.6100  -1.5216  -1.4832
    -1.4581  -1.2462  -1.1697  -0.6997  -0.5569  -0.4492  -0.3259  -0.1938
    -0.0835   0.1314   0.1975   0.3277   0.4049   0.5232   0.5309   0.6012
     0.6475   0.7286   0.8493   0.9734   1.0058   1.0934   1.1645   1.3570
     1.4002   1.4439   1.5489   1.6016   1.6324   1.7187   1.7767   1.8526
     1.9573   2.0567   2.1151   2.2016   2.3658   2.4236   2.5185   2.6383
     2.7412   2.7633   2.8933   2.9278   2.9851   3.0107   3.0852   3.1853
     3.2696   3.3257   3.4161   3.4654   3.6450   3.6982   3.8033   3.8828
     3.9611   4.4158   4.5987   4.6632   4.7325   4.8614   4.9202   4.9964
     5.0679   5.0837   5.1617   5.2253   5.3082   5.3721   5.4695   5.5313
     5.5873   5.6215   5.7471   5.8318   5.8851   5.8983   5.9581   6.0010
     6.0776   6.0849   6.1517   6.2387   6.2772   6.3130   6.3607   6.3798
     6.4054   6.5061   6.5260   6.6084   6.6669   6.7179   6.8023   6.8618
     6.8918   6.9993   7.0391   7.0845   7.1012   7.1337   7.2646   7.3090
     7.3702   7.4560   7.5831   7.6057   7.6555   7.7705   7.8137   7.8366
     7.9399   7.9658   8.0528   8.1379   8.1911   8.1967   8.2506   8.2998
     8.4262   8.5049   8.5862   8.6313   8.6799   8.7732   8.8270   8.8644
     8.9324   8.9721

     the Fermi energy is     7.3617 ev

!    total energy              =    -501.53674165 Ry
     estimated scf accuracy    <       0.00000062 Ry
     smearing contrib. (-TS)   =      -0.13553707 Ry
     internal energy E=F+TS    =    -501.40120458 Ry

     The total energy is F=E-TS. E is the sum of the following terms:
     one-electron contribution =     204.85286455 Ry
     hartree contribution      =      18.27399988 Ry
     xc contribution           =    -150.96642306 Ry
     ewald contribution        =    -573.56164594 Ry

     convergence has been achieved in  17 iterations

     Forces acting on atoms (cartesian axes, Ry/au):

     atom    1 type  1   force =    -0.00382248    0.00495520    0.00902686
     atom    2 type  1   force =    -0.10658049   -0.03105387   -0.01167689
     atom    3 type  1   force =    -0.00127931    0.00101132    0.00246883
     atom    4 type  1   force =     0.00486572   -0.00496920   -0.01318805
     atom    5 type  1   force =    -0.02951604    0.01104468   -0.00988078
     atom    6 type  1   force =     0.01947316    0.02107964    0.00343177
     atom    7 type  1   force =    -0.05153072   -0.02585324    0.00901304
     atom    8 type  1   force =     0.00278474   -0.03944428   -0.00021244
     atom    9 type  1   force =    -0.01318350    0.00022818   -0.00443635
     atom   10 type  1   force =    -0.01361970    0.00006901   -0.00207599
     atom   11 type  1   force =    -0.01242513   -0.01538164   -0.01093947
     atom   12 type  1   force =    -0.01996717   -0.01743240   -0.02206866
     atom   13 type  1   force =     0.00478629    0.01330887    0.00672949
     atom   14 type  1   force =    -0.00625368   -0.00729856   -0.00390542
     atom   15 type  1   force =     0.00390445    0.00347771   -0.01847737
     atom   16 type  1   force =    -0.00677529    0.05082824   -0.00783281
     atom   17 type  1   force =     0.00570969    0.01326264    0.01541561
     atom   18 type  1   force =    -0.00816799   -0.01178420    0.00125609
     atom   19 type  1   force =     0.02306283   -0.04081896   -0.02425375
     atom   20 type  1   force =     0.02009178    0.00311187   -0.01434427
     atom   21 type  1   force =     0.00887925   -0.00303861   -0.03630684
     atom   22 type  1   force =     0.05184373    0.08955286   -0.02658431
     atom   23 type  1   force =    -0.01078774    0.01128705   -0.00973181
     atom   24 type  1   force =     0.01821373   -0.01436933   -0.01183578
     atom   25 type  1   force =     0.02434079   -0.02470170    0.00529870
     atom   26 type  1   force =     0.00624669    0.00100173    0.04154910
     atom   27 type  1   force =     0.01151203    0.00019959    0.01680643
     atom   28 type  1   force =     0.00538898    0.03589113    0.00933411
     atom   29 type  1   force =     0.03015860   -0.00454390   -0.00629295
     atom   30 type  1   force =     0.02823210    0.01046281    0.00269546
     atom   31 type  1   force =    -0.01454208    0.01722903   -0.01507342
     atom   32 type  1   force =    -0.01879090   -0.00367556    0.00950365
     atom   33 type  1   force =    -0.01422665   -0.02924884   -0.02544826
     atom   34 type  1   force =    -0.01925539    0.00307601    0.02584001
     atom   35 type  1   force =     0.04845112   -0.02957328   -0.01178441
     atom   36 type  1   force =    -0.00557150   -0.01283304    0.03097969
     atom   37 type  1   force =     0.03723099   -0.00303888   -0.02521523
     atom   38 type  1   force =     0.03394505    0.02505162   -0.01497919
     atom   39 type  1   force =     0.00267171    0.00251683    0.00610146
     atom   40 type  1   force =    -0.01338572    0.01925934    0.01181347
     atom   41 type  1   force =     0.01358682    0.00992524   -0.03960292
     atom   42 type  1   force =    -0.02614042    0.03029303   -0.00365718
     atom   43 type  1   force =     0.01897206    0.00829226    0.00811518
     atom   44 type  1   force =     0.03232212   -0.06601340   -0.02280469
     atom   45 type  1   force =     0.00094308    0.01321405    0.00588730
     atom   46 type  1   force =    -0.02828379    0.00730700   -0.01059052
     atom   47 type  1   force =     0.01443225   -0.02104707   -0.00602754
     atom   48 type  1   force =    -0.02677440    0.02295497   -0.01452782
     atom   49 type  1   force =     0.02044298   -0.03093861    0.01694486
     atom   50 type  1   force =     0.01247801    0.02289356    0.06682608
     atom   51 type  1   force =     0.00016391   -0.02200120    0.00315334
     atom   52 type  1   force =     0.02418310    0.02108273    0.01115703
     atom   53 type  1   force =     0.00251236   -0.00432066    0.00967060
     atom   54 type  1   force =    -0.02025263   -0.02781198    0.02352760
     atom   55 type  1   force =    -0.03451997    0.01219818    0.01848610
     atom   56 type  1   force =     0.00458996    0.00459768    0.01250003
     atom   57 type  1   force =     0.00805771    0.02522191   -0.01191380
     atom   58 type  1   force =    -0.01827498   -0.00208263   -0.00959080
     atom   59 type  1   force =    -0.01890547    0.01280190    0.02654586
     atom   60 type  1   force =     0.01097448    0.00132356   -0.01779725
     atom   61 type  1   force =    -0.04834327    0.01688880    0.02076423
     atom   62 type  1   force =     0.00279750   -0.00907470    0.00766513
     atom   63 type  1   force =     0.00572101   -0.00499617    0.02348623
     atom   64 type  1   force =     0.02720564   -0.03955434    0.00106358

     Total force =     0.312227     Total SCF correction =     0.001437


     Computing stress (Cartesian axis) and pressure

          total   stress  (Ry/bohr**3)                   (kbar)     P=      -34.31
  -0.00026987   0.00005051  -0.00004130          -39.70        7.43       -6.08
   0.00005051  -0.00018474   0.00004019            7.43      -27.18        5.91
  -0.00004130   0.00004019  -0.00024509           -6.08        5.91      -36.05

 
     init_run     :      1.07s CPU      4.92s WALL (       1 calls)
     electrons    :      1.79s CPU      1.93s WALL (       1 calls)
     forces       :      0.04s CPU      0.04s WALL (       1 calls)
     stress       :      0.15s CPU      0.15s WALL (       1 calls)

     Called by init_run:
     wfcinit      :      0.53s CPU      4.21s WALL (       1 calls)
                                        4.21s GPU  (       1 calls)
     potinit      :      0.05s CPU      0.14s WALL (       1 calls)
     hinit0       :      0.46s CPU      0.50s WALL (       1 calls)

     Called by electrons:
     c_bands      :      1.07s CPU      1.12s WALL (      18 calls)
     sum_band     :      0.36s CPU      0.41s WALL (      18 calls)
     v_of_rho     :      0.17s CPU      0.27s WALL (      18 calls)
     mix_rho      :      0.16s CPU      0.18s WALL (      18 calls)

     Called by c_bands:
     init_us_2    :      0.07s CPU      0.07s WALL (      37 calls)
     init_us_2:gp :      0.06s CPU      0.07s WALL (      37 calls)
     regterg      :      0.91s CPU      0.96s WALL (      18 calls)

     Called by *egterg:
     rdiaghg      :      0.36s CPU      1.12s WALL (      80 calls)
                                        1.11s GPU  (      80 calls)
     h_psi        :      0.91s CPU      3.86s WALL (      82 calls)
                                        3.86s GPU  (      82 calls)
     g_psi        :      0.00s CPU      0.00s WALL (      63 calls)
                                        0.00s GPU  (      63 calls)

     Called by h_psi:
     h_psi:calbec :      0.50s CPU      3.38s WALL (      82 calls)
                                        3.38s GPU  (      82 calls)
     vloc_psi     :      0.36s CPU      0.42s WALL (      82 calls)
                                        0.42s GPU  (      82 calls)
     add_vuspsi   :      0.03s CPU      0.05s WALL (      82 calls)
                                        0.05s GPU  (      82 calls)

     General routines
     calbec       :      0.51s CPU      3.38s WALL (      87 calls)
     fft          :      0.60s CPU      0.74s WALL (     151 calls)
                                        0.13s GPU  (      96 calls)
     ffts         :      0.04s CPU      0.05s WALL (      18 calls)
     fftw         :      0.44s CPU      0.57s WALL (    1898 calls)
                                        0.50s GPU  (    1898 calls)
 
     Parallel routines
 
     PWSCF        :      3.09s CPU      7.13s WALL

 
   This run was terminated on:  10:47:10  10May2023            

=------------------------------------------------------------------------------=
   JOB DONE.
=------------------------------------------------------------------------------=
