An instance of this daemon is already running
An instance of this daemon is already running

     Program PWSCF v.7.1 starts on 10May2023 at 10:46:24 

     This program is part of the open-source Quantum ESPRESSO suite
     for quantum simulation of materials; please cite
         "P. Giannozzi et al., J. Phys.:Condens. Matter 21 395502 (2009);
         "P. Giannozzi et al., J. Phys.:Condens. Matter 29 465901 (2017);
         "P. Giannozzi et al., J. Chem. Phys. 152 154105 (2020);
          URL http://www.quantum-espresso.org", 
     in publications or presentations arising from this work. More details at
     http://www.quantum-espresso.org/quote

     Parallel version (MPI & OpenMP), running on       4 processor cores
     Number of MPI processes:                 4
     Threads/MPI process:                     1

     MPI processes distributed on     1 nodes
     753550 MiB available memory on the printing compute node when the environment starts
 
     Reading input from pw-si-55.in
Warning: card &CELL ignored
Warning: card / ignored

     Current dimensions of program PWSCF are:
     Max number of different atomic species (ntypx) = 10
     Max number of k-points (npk) =  40000
     Max angular momentum in pseudopotentials (lmaxx) =  4

     IMPORTANT: XC functional enforced from input :
     Exchange-correlation= PBE
                           (   1   4   3   4   0   0   0)
     Any further DFT definition will be discarded
     Please, verify this is what you really want


     gamma-point specific algorithms are used
 
     K-points division:     npool     =       2
     R & G space division:  proc/nbgrp/npool/nimage =       2
     Subspace diagonalization in iterative solution of the eigenvalue problem:
     a serial algorithm will be used

     Message from routine divide_et_impera:
     suboptimal parallelization: some nodes have no k-points
 
     Parallelization info
     --------------------
     sticks:   dense  smooth     PW     G-vecs:    dense   smooth      PW
     Min        1895    1895    498                87590    87590   11922
     Max        1898    1898    499                87591    87591   11925
     Sum        3793    3793    997               175181   175181   23847
 
     Using Slab Decomposition
 


     bravais-lattice index     =            0
     lattice parameter (alat)  =      19.9163  a.u.
     unit-cell volume          =    7900.0030 (a.u.)^3
     number of atoms/cell      =           64
     number of atomic types    =            1
     number of electrons       =       256.00
     number of Kohn-Sham states=          154
     kinetic-energy cutoff     =      30.0000  Ry
     charge density cutoff     =     120.0000  Ry
     scf convergence threshold =      1.0E-06
     mixing beta               =       0.5000
     number of iterations used =            8  plain     mixing
     Exchange-correlation= PBE
                           (   1   4   3   4   0   0   0)

     GPU acceleration is ACTIVE.
     GPU-aware MPI enabled

     Message from routine print_cuda_info:
     High GPU oversubscription detected. Are you sure this is what you want?

     celldm(1)=  19.916320  celldm(2)=   0.000000  celldm(3)=   0.000000
     celldm(4)=   0.000000  celldm(5)=   0.000000  celldm(6)=   0.000000

     crystal axes: (cart. coord. in units of alat)
               a(1) = (   1.000000   0.000000   0.000000 )  
               a(2) = (   0.000000   1.000000   0.000000 )  
               a(3) = (   0.000000   0.000000   1.000000 )  

     reciprocal axes: (cart. coord. in units 2 pi/alat)
               b(1) = (  1.000000  0.000000  0.000000 )  
               b(2) = (  0.000000  1.000000  0.000000 )  
               b(3) = (  0.000000  0.000000  1.000000 )  


     PseudoPot. # 1 for Si read from file:
     /home/ppiaggi/pseudos/Si_ONCV_PBE_sr.upf
     MD5 check sum: 8553c464762ac42b85b1eed164b4d029
     Pseudo is Norm-conserving, Zval =  4.0
     Generated using ONCVPSP code by D. R. Hamann
     Using radial grid of 1510 points,  4 beta functions with: 
                l(1) =   0
                l(2) =   0
                l(3) =   1
                l(4) =   1

     atomic species   valence    mass     pseudopotential
        Si             4.00    28.08500     Si( 1.00)

     No symmetry found



   Cartesian axes

     site n.     atom                  positions (alat units)
         1           Si  tau(   1) = (   0.8510640   0.8237240   0.5606180  )
         2           Si  tau(   2) = (   0.6293920   0.3125710   0.5059200  )
         3           Si  tau(   3) = (   0.6158920   0.4410000   0.9620680  )
         4           Si  tau(   4) = (   0.2338750   0.3255770   0.2203510  )
         5           Si  tau(   5) = (   0.0334574   0.3129220   0.3298230  )
         6           Si  tau(   6) = (   0.5954580   0.0142166   0.7719330  )
         7           Si  tau(   7) = (   0.9437040   0.8953990   0.3611390  )
         8           Si  tau(   8) = (   0.6923090   0.2145180   0.2852310  )
         9           Si  tau(   9) = (   0.1435160   0.3146390   0.7539750  )
        10           Si  tau(  10) = (   0.8550970   0.0360671   0.0859428  )
        11           Si  tau(  11) = (   0.3518510   0.1868340   0.9211480  )
        12           Si  tau(  12) = (   0.9454760   0.5015770   0.4127120  )
        13           Si  tau(  13) = (   0.7512820   0.4854750   0.1423020  )
        14           Si  tau(  14) = (   0.6657260   0.7450670   0.2464880  )
        15           Si  tau(  15) = (   0.7464700   0.8327730   0.7859450  )
        16           Si  tau(  16) = (   0.2641420   0.4020980   0.9649650  )
        17           Si  tau(  17) = (   0.1679900   0.7053140   0.8490720  )
        18           Si  tau(  18) = (   0.4118840   0.3874220   0.4084830  )
        19           Si  tau(  19) = (   0.4364900   0.0534145   0.4579220  )
        20           Si  tau(  20) = (   0.5347650   0.6844310   0.9731080  )
        21           Si  tau(  21) = (   0.2076580   0.7730460   0.4431280  )
        22           Si  tau(  22) = (   0.9810890   0.8421300   0.0497984  )
        23           Si  tau(  23) = (   0.2496090   0.5537340   0.6924090  )
        24           Si  tau(  24) = (   0.9264660   0.6751230   0.2599980  )
        25           Si  tau(  25) = (   0.5068790   0.2557990   0.7344500  )
        26           Si  tau(  26) = (   0.8344330   0.3159790   0.6057950  )
        27           Si  tau(  27) = (   0.0808201   0.5566310   0.0031827  )
        28           Si  tau(  28) = (   0.4421470   0.8511690   0.6872390  )
        29           Si  tau(  29) = (   0.7036580   0.8319930   0.0164388  )
        30           Si  tau(  30) = (   0.5530940   0.0996803   0.0057229  )
        31           Si  tau(  31) = (   0.4256170   0.8260090   0.3849700  )
        32           Si  tau(  32) = (   0.0793113   0.7523930   0.6508560  )
        33           Si  tau(  33) = (   0.7073820   0.5596130   0.4808690  )
        34           Si  tau(  34) = (   0.5221340   0.2805130   0.1510370  )
        35           Si  tau(  35) = (   0.4242300   0.4447480   0.8137520  )
        36           Si  tau(  36) = (   0.2147930   0.9753980   0.6007990  )
        37           Si  tau(  37) = (   0.1814430   0.4996160   0.4728620  )
        38           Si  tau(  38) = (   0.6651610   0.0547406   0.5500480  )
        39           Si  tau(  39) = (   0.5318140   0.6444940   0.7420320  )
        40           Si  tau(  40) = (   0.8017330   0.1189820   0.8882820  )
        41           Si  tau(  41) = (   0.3277550   0.2475760   0.5768550  )
        42           Si  tau(  42) = (   0.2990500   0.8699130   0.8777060  )
        43           Si  tau(  43) = (   0.4925680   0.9560890   0.1807350  )
        44           Si  tau(  44) = (   0.1140660   0.0325663   0.3215980  )
        45           Si  tau(  45) = (   0.3524870   0.1299330   0.2650400  )
        46           Si  tau(  46) = (   0.0787941   0.1621160   0.5407030  )
        47           Si  tau(  47) = (   0.6355630   0.7861430   0.4880640  )
        48           Si  tau(  48) = (   0.0993710   0.1488100   0.0856204  )
        49           Si  tau(  49) = (   0.7704320   0.5847520   0.7661840  )
        50           Si  tau(  50) = (   0.8512310   0.6245150   0.0042704  )
        51           Si  tau(  51) = (   0.7680060   0.3289700   0.8394610  )
        52           Si  tau(  52) = (   0.1812440   0.5755110   0.2178040  )
        53           Si  tau(  53) = (   0.8970560   0.0977401   0.6247540  )
        54           Si  tau(  54) = (   0.1821660   0.8117520   0.2321330  )
        55           Si  tau(  55) = (   0.1913800   0.0551342   0.8757430  )
        56           Si  tau(  56) = (   0.7283400   0.9774760   0.2995900  )
        57           Si  tau(  57) = (   0.3703700   0.7793740   0.0963477  )
        58           Si  tau(  58) = (   0.4213400   0.6124980   0.5373700  )
        59           Si  tau(  59) = (   0.9840140   0.3132100   0.9352850  )
        60           Si  tau(  60) = (   0.3786010   0.5230320   0.1086640  )
        61           Si  tau(  61) = (   0.8739140   0.2919070   0.1840740  )
        62           Si  tau(  62) = (   0.9760850   0.5069290   0.6786570  )
        63           Si  tau(  63) = (   0.5637340   0.5108540   0.2543970  )
        64           Si  tau(  64) = (   0.9853530   0.9452850   0.7940270  )

     number of k points=     1  Fermi-Dirac smearing, width (Ry)=  0.0100
                       cart. coord. in units 2pi/alat
        k(    1) = (   0.0000000   0.0000000   0.0000000), wk =   2.0000000

     Dense  grid:    87591 G-vectors     FFT dimensions: (  72,  72,  72)

     Estimated max dynamical RAM per process >     141.25 MB

     Estimated total dynamical RAM >     543.61 MB

     Initial potential from superposition of free atoms

     starting charge     255.9608, renormalised to     256.0000
     Starting wfcs are  256 randomized atomic wfcs

     total cpu time spent up to now is        5.0 secs

     Self-consistent Calculation

     iteration #  1     ecut=    30.00 Ry     beta= 0.50
     Davidson diagonalization with overlap
     ethr =  1.00E-02,  avg # of iterations =  3.0

     Threshold (ethr) on eigenvalues was too large:
     Diagonalizing with lowered threshold

     Davidson diagonalization with overlap
     ethr =  4.07E-04,  avg # of iterations =  5.0

     total cpu time spent up to now is        5.3 secs

     total energy              =    -501.17905996 Ry
     estimated scf accuracy    <       1.22403761 Ry

     iteration #  2     ecut=    30.00 Ry     beta= 0.50
     Davidson diagonalization with overlap
     ethr =  4.78E-04,  avg # of iterations =  5.0

     total cpu time spent up to now is        5.4 secs

     total energy              =    -500.53359377 Ry
     estimated scf accuracy    <       8.75876347 Ry

     iteration #  3     ecut=    30.00 Ry     beta= 0.50
     Davidson diagonalization with overlap
     ethr =  4.78E-04,  avg # of iterations =  5.0

     total cpu time spent up to now is        5.5 secs

     total energy              =    -501.32721527 Ry
     estimated scf accuracy    <       1.45825433 Ry

     iteration #  4     ecut=    30.00 Ry     beta= 0.50
     Davidson diagonalization with overlap
     ethr =  4.78E-04,  avg # of iterations =  2.0

     total cpu time spent up to now is        5.6 secs

     total energy              =    -501.39283134 Ry
     estimated scf accuracy    <       0.71794341 Ry

     iteration #  5     ecut=    30.00 Ry     beta= 0.50
     Davidson diagonalization with overlap
     ethr =  2.80E-04,  avg # of iterations =  2.0

     total cpu time spent up to now is        5.7 secs

     total energy              =    -501.43536317 Ry
     estimated scf accuracy    <       0.52857380 Ry

     iteration #  6     ecut=    30.00 Ry     beta= 0.50
     Davidson diagonalization with overlap
     ethr =  2.06E-04,  avg # of iterations =  2.0

     total cpu time spent up to now is        5.8 secs

     total energy              =    -501.48144398 Ry
     estimated scf accuracy    <       0.05351772 Ry

     iteration #  7     ecut=    30.00 Ry     beta= 0.50
     Davidson diagonalization with overlap
     ethr =  2.09E-05,  avg # of iterations =  3.0

     total cpu time spent up to now is        5.9 secs

     total energy              =    -501.48702746 Ry
     estimated scf accuracy    <       0.04496378 Ry

     iteration #  8     ecut=    30.00 Ry     beta= 0.50
     Davidson diagonalization with overlap
     ethr =  1.76E-05,  avg # of iterations =  2.0

     total cpu time spent up to now is        6.0 secs

     total energy              =    -501.49142916 Ry
     estimated scf accuracy    <       0.01156462 Ry

     iteration #  9     ecut=    30.00 Ry     beta= 0.50
     Davidson diagonalization with overlap
     ethr =  4.52E-06,  avg # of iterations = 12.0

     total cpu time spent up to now is        6.1 secs

     total energy              =    -501.49233755 Ry
     estimated scf accuracy    <       0.00357069 Ry

     iteration # 10     ecut=    30.00 Ry     beta= 0.50
     Davidson diagonalization with overlap
     ethr =  1.39E-06,  avg # of iterations =  2.0

     total cpu time spent up to now is        6.2 secs

     total energy              =    -501.49262901 Ry
     estimated scf accuracy    <       0.00304855 Ry

     iteration # 11     ecut=    30.00 Ry     beta= 0.50
     Davidson diagonalization with overlap
     ethr =  1.19E-06,  avg # of iterations =  1.0

     total cpu time spent up to now is        6.3 secs

     total energy              =    -501.49285689 Ry
     estimated scf accuracy    <       0.00025798 Ry

     iteration # 12     ecut=    30.00 Ry     beta= 0.50
     Davidson diagonalization with overlap
     ethr =  1.01E-07,  avg # of iterations =  4.0

     total cpu time spent up to now is        6.4 secs

     total energy              =    -501.49287869 Ry
     estimated scf accuracy    <       0.00040534 Ry

     iteration # 13     ecut=    30.00 Ry     beta= 0.50
     Davidson diagonalization with overlap
     ethr =  1.01E-07,  avg # of iterations =  3.0

     total cpu time spent up to now is        6.5 secs

     total energy              =    -501.49291392 Ry
     estimated scf accuracy    <       0.00022876 Ry

     iteration # 14     ecut=    30.00 Ry     beta= 0.50
     Davidson diagonalization with overlap
     ethr =  8.94E-08,  avg # of iterations =  2.0

     total cpu time spent up to now is        6.6 secs

     total energy              =    -501.49292769 Ry
     estimated scf accuracy    <       0.00003805 Ry

     iteration # 15     ecut=    30.00 Ry     beta= 0.50
     Davidson diagonalization with overlap
     ethr =  1.49E-08,  avg # of iterations =  3.0

     total cpu time spent up to now is        6.7 secs

     total energy              =    -501.49293213 Ry
     estimated scf accuracy    <       0.00002360 Ry

     iteration # 16     ecut=    30.00 Ry     beta= 0.50
     Davidson diagonalization with overlap
     ethr =  9.22E-09,  avg # of iterations =  2.0

     total cpu time spent up to now is        6.8 secs

     total energy              =    -501.49293366 Ry
     estimated scf accuracy    <       0.00000699 Ry

     iteration # 17     ecut=    30.00 Ry     beta= 0.50
     Davidson diagonalization with overlap
     ethr =  2.73E-09,  avg # of iterations =  2.0

     total cpu time spent up to now is        6.9 secs

     total energy              =    -501.49293444 Ry
     estimated scf accuracy    <       0.00000464 Ry

     iteration # 18     ecut=    30.00 Ry     beta= 0.50
     Davidson diagonalization with overlap
     ethr =  1.81E-09,  avg # of iterations =  1.0

     total cpu time spent up to now is        7.0 secs

     End of self-consistent calculation

          k = 0.0000 0.0000 0.0000 ( 10988 PWs)   bands (ev):

    -5.1403  -4.1415  -4.0642  -3.9769  -3.8801  -3.7201  -3.6523  -3.0956
    -3.0348  -2.9234  -2.8986  -2.7963  -2.6698  -2.6462  -2.5212  -2.4916
    -2.4186  -2.3679  -2.2139  -1.8166  -1.6933  -1.5851  -1.4639  -1.4307
    -1.3980  -1.1892  -0.9873  -0.5514  -0.4166  -0.3725  -0.3626  -0.2035
     0.0246   0.1934   0.3089   0.4363   0.4528   0.5091   0.5925   0.6654
     0.7332   0.7890   0.8287   0.9347   0.9770   1.1157   1.2517   1.2833
     1.3338   1.4416   1.6499   1.6823   1.7604   1.8268   1.8735   1.9775
     2.0729   2.1091   2.1732   2.2433   2.3857   2.3892   2.4901   2.6986
     2.8007   2.8614   2.8873   2.9664   3.1299   3.1592   3.1942   3.2517
     3.2989   3.4273   3.4683   3.6019   3.6474   3.7184   3.8008   3.8703
     4.1046   4.6017   4.6285   4.6435   4.8016   4.8646   4.9873   5.0379
     5.1058   5.1737   5.2923   5.3665   5.4154   5.4387   5.5627   5.6006
     5.6556   5.7233   5.8411   5.8602   5.9037   5.9292   5.9886   6.0150
     6.0823   6.1284   6.1997   6.2473   6.3049   6.3594   6.3897   6.4756
     6.5356   6.6060   6.7279   6.7625   6.8513   6.8698   6.9195   6.9750
     7.0276   7.0803   7.1321   7.1938   7.2369   7.2952   7.3550   7.4305
     7.4844   7.5119   7.5772   7.7180   7.7366   7.7686   7.8613   7.9081
     7.9511   8.0132   8.0473   8.1021   8.1772   8.2417   8.2998   8.3781
     8.4085   8.5150   8.6029   8.6807   8.7034   8.8256   8.9190   8.9833
     8.9961   9.0667

     the Fermi energy is     7.4530 ev

!    total energy              =    -501.49293429 Ry
     estimated scf accuracy    <       0.00000064 Ry
     smearing contrib. (-TS)   =      -0.15220069 Ry
     internal energy E=F+TS    =    -501.34073360 Ry

     The total energy is F=E-TS. E is the sum of the following terms:
     one-electron contribution =     205.19765664 Ry
     hartree contribution      =      18.85692185 Ry
     xc contribution           =    -151.27970493 Ry
     ewald contribution        =    -574.11560716 Ry

     convergence has been achieved in  18 iterations

     Forces acting on atoms (cartesian axes, Ry/au):

     atom    1 type  1   force =     0.04050198    0.02135884    0.04046614
     atom    2 type  1   force =    -0.00500356   -0.01592278   -0.01739840
     atom    3 type  1   force =    -0.01868967    0.00576562    0.01451350
     atom    4 type  1   force =     0.01201346    0.00356957   -0.00528798
     atom    5 type  1   force =     0.02651498   -0.00855335    0.05167601
     atom    6 type  1   force =     0.01051301    0.00847978   -0.02121936
     atom    7 type  1   force =    -0.04366443   -0.02015704    0.00664459
     atom    8 type  1   force =    -0.00568845   -0.02604797    0.04104672
     atom    9 type  1   force =    -0.00520097    0.02595177   -0.01975731
     atom   10 type  1   force =     0.00371424   -0.00649486    0.02679942
     atom   11 type  1   force =     0.05718928    0.05180865   -0.00331953
     atom   12 type  1   force =    -0.00000515    0.02373738    0.03318816
     atom   13 type  1   force =     0.02794838   -0.02734616   -0.00280103
     atom   14 type  1   force =     0.00002799    0.00136444    0.01149072
     atom   15 type  1   force =     0.01826396   -0.01369656   -0.00720643
     atom   16 type  1   force =    -0.01668148   -0.04350577   -0.01159507
     atom   17 type  1   force =    -0.02706929   -0.04230581   -0.00488260
     atom   18 type  1   force =    -0.00660876    0.01797566   -0.00771783
     atom   19 type  1   force =    -0.00773879   -0.01591134    0.02060616
     atom   20 type  1   force =     0.00771888   -0.02938933   -0.02557013
     atom   21 type  1   force =     0.01216710   -0.01506105    0.06564181
     atom   22 type  1   force =    -0.00481577   -0.01690319   -0.00105686
     atom   23 type  1   force =     0.02374377   -0.01860864   -0.00998526
     atom   24 type  1   force =    -0.00067227    0.03352370   -0.01483118
     atom   25 type  1   force =    -0.01433884   -0.03771377   -0.01369717
     atom   26 type  1   force =     0.01374609    0.02269609    0.04163400
     atom   27 type  1   force =    -0.01491419   -0.02256003   -0.00494311
     atom   28 type  1   force =    -0.00403797    0.01765042    0.01487591
     atom   29 type  1   force =     0.02037541   -0.02369100    0.01513583
     atom   30 type  1   force =    -0.00674019   -0.00414528   -0.00374249
     atom   31 type  1   force =     0.00938001    0.01017611    0.02126078
     atom   32 type  1   force =    -0.04384200    0.01952823   -0.01585965
     atom   33 type  1   force =    -0.00444373   -0.00085896   -0.01824182
     atom   34 type  1   force =    -0.00063869    0.00224187   -0.01967132
     atom   35 type  1   force =     0.00555246    0.03022736   -0.00354270
     atom   36 type  1   force =     0.02055082   -0.01313195   -0.02289506
     atom   37 type  1   force =     0.00277207    0.02099326   -0.00444702
     atom   38 type  1   force =    -0.01634754   -0.00794195   -0.00900816
     atom   39 type  1   force =     0.00822761   -0.00354707    0.02127720
     atom   40 type  1   force =    -0.00027894   -0.03462831   -0.01578706
     atom   41 type  1   force =    -0.00021874   -0.00583298    0.01863312
     atom   42 type  1   force =     0.06499129   -0.02787255    0.01705093
     atom   43 type  1   force =     0.00855998   -0.00195987   -0.00139867
     atom   44 type  1   force =     0.02419659    0.00072048   -0.01553313
     atom   45 type  1   force =     0.01137237    0.00358050   -0.01747196
     atom   46 type  1   force =     0.05859171    0.02237744   -0.05145956
     atom   47 type  1   force =    -0.02163739   -0.00915952   -0.01532203
     atom   48 type  1   force =    -0.02128343    0.01039368   -0.00313996
     atom   49 type  1   force =    -0.01969526    0.03799349    0.01562407
     atom   50 type  1   force =     0.01568574    0.05554388   -0.01354571
     atom   51 type  1   force =     0.02079237    0.00455754   -0.03243380
     atom   52 type  1   force =    -0.02186978    0.01216832   -0.01657838
     atom   53 type  1   force =    -0.04138759   -0.04087581    0.04206735
     atom   54 type  1   force =    -0.02253189   -0.00506898   -0.05004407
     atom   55 type  1   force =    -0.07258927   -0.00740395   -0.00031260
     atom   56 type  1   force =    -0.00192827    0.02105262   -0.00756173
     atom   57 type  1   force =    -0.01481606    0.02282000   -0.03086374
     atom   58 type  1   force =    -0.02089470    0.00075475   -0.00014970
     atom   59 type  1   force =     0.00685390    0.00223778    0.02744559
     atom   60 type  1   force =     0.03381739    0.03085063    0.04272754
     atom   61 type  1   force =    -0.00933813    0.00474759   -0.03772090
     atom   62 type  1   force =     0.00759078   -0.02861938   -0.03474489
     atom   63 type  1   force =    -0.03693847    0.01172266    0.02754333
     atom   64 type  1   force =    -0.02082394    0.01634513   -0.00460352

     Total force =     0.326748     Total SCF correction =     0.001623


     Computing stress (Cartesian axis) and pressure

          total   stress  (Ry/bohr**3)                   (kbar)     P=      -28.59
  -0.00011503   0.00003959   0.00002277          -16.92        5.82        3.35
   0.00003959  -0.00031040   0.00002237            5.82      -45.66        3.29
   0.00002277   0.00002237  -0.00015762            3.35        3.29      -23.19

 
     init_run     :      1.09s CPU      4.94s WALL (       1 calls)
     electrons    :      1.85s CPU      2.00s WALL (       1 calls)
     forces       :      0.03s CPU      0.04s WALL (       1 calls)
     stress       :      0.15s CPU      0.15s WALL (       1 calls)

     Called by init_run:
     wfcinit      :      0.55s CPU      4.22s WALL (       1 calls)
                                        4.22s GPU  (       1 calls)
     potinit      :      0.05s CPU      0.15s WALL (       1 calls)
     hinit0       :      0.47s CPU      0.50s WALL (       1 calls)

     Called by electrons:
     c_bands      :      1.09s CPU      1.15s WALL (      19 calls)
     sum_band     :      0.37s CPU      0.42s WALL (      19 calls)
     v_of_rho     :      0.18s CPU      0.29s WALL (      19 calls)
     mix_rho      :      0.18s CPU      0.19s WALL (      19 calls)

     Called by c_bands:
     init_us_2    :      0.07s CPU      0.07s WALL (      39 calls)
     init_us_2:gp :      0.07s CPU      0.07s WALL (      39 calls)
     regterg      :      0.93s CPU      0.98s WALL (      19 calls)

     Called by *egterg:
     rdiaghg      :      0.39s CPU      1.13s WALL (      79 calls)
                                        1.12s GPU  (      79 calls)
     h_psi        :      0.92s CPU      3.88s WALL (      81 calls)
                                        3.87s GPU  (      81 calls)
     g_psi        :      0.00s CPU      0.00s WALL (      61 calls)
                                        0.00s GPU  (      61 calls)

     Called by h_psi:
     h_psi:calbec :      0.51s CPU      3.39s WALL (      81 calls)
                                        3.39s GPU  (      81 calls)
     vloc_psi     :      0.37s CPU      0.43s WALL (      81 calls)
                                        0.43s GPU  (      81 calls)
     add_vuspsi   :      0.03s CPU      0.05s WALL (      81 calls)
                                        0.05s GPU  (      81 calls)

     General routines
     calbec       :      0.51s CPU      3.39s WALL (      86 calls)
     fft          :      0.62s CPU      0.76s WALL (     159 calls)
                                        0.14s GPU  (     101 calls)
     ffts         :      0.04s CPU      0.05s WALL (      19 calls)
     fftw         :      0.46s CPU      0.59s WALL (    1991 calls)
                                        0.51s GPU  (    1991 calls)
 
     Parallel routines
 
     PWSCF        :      3.17s CPU      7.21s WALL

 
   This run was terminated on:  10:46:31  10May2023            

=------------------------------------------------------------------------------=
   JOB DONE.
=------------------------------------------------------------------------------=
