An instance of this daemon is already running
An instance of this daemon is already running
An instance of this daemon is already running

     Program PWSCF v.7.1 starts on 10May2023 at 10:47:51 

     This program is part of the open-source Quantum ESPRESSO suite
     for quantum simulation of materials; please cite
         "P. Giannozzi et al., J. Phys.:Condens. Matter 21 395502 (2009);
         "P. Giannozzi et al., J. Phys.:Condens. Matter 29 465901 (2017);
         "P. Giannozzi et al., J. Chem. Phys. 152 154105 (2020);
          URL http://www.quantum-espresso.org", 
     in publications or presentations arising from this work. More details at
     http://www.quantum-espresso.org/quote

     Parallel version (MPI & OpenMP), running on       4 processor cores
     Number of MPI processes:                 4
     Threads/MPI process:                     1

     MPI processes distributed on     1 nodes
     753556 MiB available memory on the printing compute node when the environment starts
 
     Reading input from pw-si-64.in
Warning: card &CELL ignored
Warning: card / ignored

     Current dimensions of program PWSCF are:
     Max number of different atomic species (ntypx) = 10
     Max number of k-points (npk) =  40000
     Max angular momentum in pseudopotentials (lmaxx) =  4

     IMPORTANT: XC functional enforced from input :
     Exchange-correlation= PBE
                           (   1   4   3   4   0   0   0)
     Any further DFT definition will be discarded
     Please, verify this is what you really want


     gamma-point specific algorithms are used
 
     K-points division:     npool     =       2
     R & G space division:  proc/nbgrp/npool/nimage =       2
     Subspace diagonalization in iterative solution of the eigenvalue problem:
     a serial algorithm will be used

     Message from routine divide_et_impera:
     suboptimal parallelization: some nodes have no k-points
 
     Parallelization info
     --------------------
     sticks:   dense  smooth     PW     G-vecs:    dense   smooth      PW
     Min        1908    1908    502                89172    89172   12102
     Max        1909    1909    503                89177    89177   12105
     Sum        3817    3817   1005               178349   178349   24207
 
     Using Slab Decomposition
 


     bravais-lattice index     =            0
     lattice parameter (alat)  =      20.0329  a.u.
     unit-cell volume          =    8039.6033 (a.u.)^3
     number of atoms/cell      =           64
     number of atomic types    =            1
     number of electrons       =       256.00
     number of Kohn-Sham states=          154
     kinetic-energy cutoff     =      30.0000  Ry
     charge density cutoff     =     120.0000  Ry
     scf convergence threshold =      1.0E-06
     mixing beta               =       0.5000
     number of iterations used =            8  plain     mixing
     Exchange-correlation= PBE
                           (   1   4   3   4   0   0   0)

     GPU acceleration is ACTIVE.
     GPU-aware MPI enabled

     Message from routine print_cuda_info:
     High GPU oversubscription detected. Are you sure this is what you want?

     celldm(1)=  20.032948  celldm(2)=   0.000000  celldm(3)=   0.000000
     celldm(4)=   0.000000  celldm(5)=   0.000000  celldm(6)=   0.000000

     crystal axes: (cart. coord. in units of alat)
               a(1) = (   1.000000   0.000000   0.000000 )  
               a(2) = (   0.000000   1.000000   0.000000 )  
               a(3) = (   0.000000   0.000000   1.000000 )  

     reciprocal axes: (cart. coord. in units 2 pi/alat)
               b(1) = (  1.000000  0.000000  0.000000 )  
               b(2) = (  0.000000  1.000000  0.000000 )  
               b(3) = (  0.000000  0.000000  1.000000 )  


     PseudoPot. # 1 for Si read from file:
     /home/ppiaggi/pseudos/Si_ONCV_PBE_sr.upf
     MD5 check sum: 8553c464762ac42b85b1eed164b4d029
     Pseudo is Norm-conserving, Zval =  4.0
     Generated using ONCVPSP code by D. R. Hamann
     Using radial grid of 1510 points,  4 beta functions with: 
                l(1) =   0
                l(2) =   0
                l(3) =   1
                l(4) =   1

     atomic species   valence    mass     pseudopotential
        Si             4.00    28.08500     Si( 1.00)

     No symmetry found



   Cartesian axes

     site n.     atom                  positions (alat units)
         1           Si  tau(   1) = (   0.7339900   0.0397088   0.7954770  )
         2           Si  tau(   2) = (   0.8625590   0.7717760   0.8225520  )
         3           Si  tau(   3) = (   0.6167400   0.2446660   0.4618530  )
         4           Si  tau(   4) = (   0.9355840   0.0191271   0.2388970  )
         5           Si  tau(   5) = (   0.7126160   0.5837080   0.7349660  )
         6           Si  tau(   6) = (   0.9637900   0.8216390   0.3571170  )
         7           Si  tau(   7) = (   0.9322720   0.6431500   0.1787440  )
         8           Si  tau(   8) = (   0.7079850   0.7851770   0.2412180  )
         9           Si  tau(   9) = (   0.4124850   0.5935260   0.1249760  )
        10           Si  tau(  10) = (   0.8844280   0.2781120   0.8415410  )
        11           Si  tau(  11) = (   0.5411150   0.1535790   0.7836770  )
        12           Si  tau(  12) = (   0.1720610   0.3561460   0.0512697  )
        13           Si  tau(  13) = (   0.4302930   0.3264850   0.1213430  )
        14           Si  tau(  14) = (   0.1518870   0.5771610   0.8616310  )
        15           Si  tau(  15) = (   0.4833250   0.1364310   0.0070865  )
        16           Si  tau(  16) = (   0.0558048   0.9594760   0.5433840  )
        17           Si  tau(  17) = (   0.3261480   0.2004820   0.2950560  )
        18           Si  tau(  18) = (   0.7244030   0.5787590   0.9934720  )
        19           Si  tau(  19) = (   0.3321630   0.9758350   0.5201470  )
        20           Si  tau(  20) = (   0.1195310   0.1410660   0.9742410  )
        21           Si  tau(  21) = (   0.6704150   0.0697199   0.1373600  )
        22           Si  tau(  22) = (   0.8654220   0.7414130   0.5143950  )
        23           Si  tau(  23) = (   0.1059630   0.8310720   0.0814975  )
        24           Si  tau(  24) = (   0.2725010   0.8939670   0.2643170  )
        25           Si  tau(  25) = (   0.3922550   0.1921930   0.5556040  )
        26           Si  tau(  26) = (   0.4861610   0.8247360   0.5641540  )
        27           Si  tau(  27) = (   0.0321918   0.4234260   0.5841040  )
        28           Si  tau(  28) = (   0.1120000   0.6399320   0.5583880  )
        29           Si  tau(  29) = (   0.7447200   0.5385180   0.4808240  )
        30           Si  tau(  30) = (   0.2767400   0.4559770   0.3211930  )
        31           Si  tau(  31) = (   0.4868610   0.5312200   0.9163160  )
        32           Si  tau(  32) = (   0.1808480   0.5789730   0.1500910  )
        33           Si  tau(  33) = (   0.7157960   0.8561610   0.6359920  )
        34           Si  tau(  34) = (   0.1103500   0.1232630   0.7481130  )
        35           Si  tau(  35) = (   0.2932470   0.3859240   0.8490210  )
        36           Si  tau(  36) = (   0.5829010   0.5998500   0.3050300  )
        37           Si  tau(  37) = (   0.8031360   0.3581300   0.5962890  )
        38           Si  tau(  38) = (   0.4986410   0.0037999   0.3166580  )
        39           Si  tau(  39) = (   0.3022450   0.6072540   0.6536660  )
        40           Si  tau(  40) = (   0.4731120   0.4699020   0.5442090  )
        41           Si  tau(  41) = (   0.3241170   0.0136734   0.7703130  )
        42           Si  tau(  42) = (   0.6228840   0.8318700   0.9196340  )
        43           Si  tau(  43) = (   0.8164930   0.1652190   0.3890070  )
        44           Si  tau(  44) = (   0.9448560   0.5079300   0.8225290  )
        45           Si  tau(  45) = (   0.2235390   0.8288190   0.8858120  )
        46           Si  tau(  46) = (   0.9536580   0.4112910   0.0392162  )
        47           Si  tau(  47) = (   0.6683140   0.3616320   0.9911240  )
        48           Si  tau(  48) = (   0.3112010   0.0252003   0.0577298  )
        49           Si  tau(  49) = (   0.6978990   0.9549160   0.4196210  )
        50           Si  tau(  50) = (   0.1216570   0.1035470   0.3738490  )
        51           Si  tau(  51) = (   0.8667720   0.0661371   0.9758370  )
        52           Si  tau(  52) = (   0.7655610   0.2978960   0.1866890  )
        53           Si  tau(  53) = (   0.8488610   0.8514170   0.0528129  )
        54           Si  tau(  54) = (   0.8858730   0.0983956   0.6212200  )
        55           Si  tau(  55) = (   0.5842990   0.3845850   0.7257010  )
        56           Si  tau(  56) = (   0.5676390   0.3721190   0.2840530  )
        57           Si  tau(  57) = (   0.0640477   0.3472960   0.3594750  )
        58           Si  tau(  58) = (   0.4272450   0.6811270   0.4391270  )
        59           Si  tau(  59) = (   0.1967740   0.7102670   0.3438260  )
        60           Si  tau(  60) = (   0.2099380   0.2994840   0.6721020  )
        61           Si  tau(  61) = (   0.8556770   0.4816830   0.2998680  )
        62           Si  tau(  62) = (   0.4317080   0.7212620   0.8127820  )
        63           Si  tau(  63) = (   0.0561491   0.7947340   0.7098270  )
        64           Si  tau(  64) = (   0.4823800   0.8369760   0.1398710  )

     number of k points=     1  Fermi-Dirac smearing, width (Ry)=  0.0100
                       cart. coord. in units 2pi/alat
        k(    1) = (   0.0000000   0.0000000   0.0000000), wk =   2.0000000

     Dense  grid:    89175 G-vectors     FFT dimensions: (  72,  72,  72)

     Estimated max dynamical RAM per process >     143.47 MB

     Estimated total dynamical RAM >     552.13 MB

     Initial potential from superposition of free atoms

     starting charge     255.9608, renormalised to     256.0000
     Starting wfcs are  256 randomized atomic wfcs

     total cpu time spent up to now is        5.2 secs

     Self-consistent Calculation

     iteration #  1     ecut=    30.00 Ry     beta= 0.50
     Davidson diagonalization with overlap
     ethr =  1.00E-02,  avg # of iterations =  3.0

     Threshold (ethr) on eigenvalues was too large:
     Diagonalizing with lowered threshold

     Davidson diagonalization with overlap
     ethr =  3.84E-04,  avg # of iterations =  4.0

     total cpu time spent up to now is        5.5 secs

     total energy              =    -501.16974249 Ry
     estimated scf accuracy    <       1.19390936 Ry

     iteration #  2     ecut=    30.00 Ry     beta= 0.50
     Davidson diagonalization with overlap
     ethr =  4.66E-04,  avg # of iterations =  5.0

     total cpu time spent up to now is        5.6 secs

     total energy              =    -500.73966425 Ry
     estimated scf accuracy    <       5.02475834 Ry

     iteration #  3     ecut=    30.00 Ry     beta= 0.50
     Davidson diagonalization with overlap
     ethr =  4.66E-04,  avg # of iterations =  4.0

     total cpu time spent up to now is        5.7 secs

     total energy              =    -501.23504343 Ry
     estimated scf accuracy    <       1.73812184 Ry

     iteration #  4     ecut=    30.00 Ry     beta= 0.50
     Davidson diagonalization with overlap
     ethr =  4.66E-04,  avg # of iterations =  2.0

     total cpu time spent up to now is        5.8 secs

     total energy              =    -501.36037405 Ry
     estimated scf accuracy    <       0.59988461 Ry

     iteration #  5     ecut=    30.00 Ry     beta= 0.50
     Davidson diagonalization with overlap
     ethr =  2.34E-04,  avg # of iterations =  2.0

     total cpu time spent up to now is        5.9 secs

     total energy              =    -501.39973851 Ry
     estimated scf accuracy    <       0.17322661 Ry

     iteration #  6     ecut=    30.00 Ry     beta= 0.50
     Davidson diagonalization with overlap
     ethr =  6.77E-05,  avg # of iterations =  2.0

     total cpu time spent up to now is        6.0 secs

     total energy              =    -501.41757492 Ry
     estimated scf accuracy    <       0.19550867 Ry

     iteration #  7     ecut=    30.00 Ry     beta= 0.50
     Davidson diagonalization with overlap
     ethr =  6.77E-05,  avg # of iterations =  1.0

     total cpu time spent up to now is        6.1 secs

     total energy              =    -501.43112442 Ry
     estimated scf accuracy    <       0.01732565 Ry

     iteration #  8     ecut=    30.00 Ry     beta= 0.50
     Davidson diagonalization with overlap
     ethr =  6.77E-06,  avg # of iterations = 20.0

     total cpu time spent up to now is        6.3 secs

     total energy              =    -501.43305182 Ry
     estimated scf accuracy    <       0.02052300 Ry

     iteration #  9     ecut=    30.00 Ry     beta= 0.50
     Davidson diagonalization with overlap
     ethr =  6.77E-06,  avg # of iterations =  2.0

     total cpu time spent up to now is        6.4 secs

     total energy              =    -501.43469956 Ry
     estimated scf accuracy    <       0.00296412 Ry

     iteration # 10     ecut=    30.00 Ry     beta= 0.50
     Davidson diagonalization with overlap
     ethr =  1.16E-06,  avg # of iterations =  2.0

     total cpu time spent up to now is        6.5 secs

     total energy              =    -501.43498109 Ry
     estimated scf accuracy    <       0.00113502 Ry

     iteration # 11     ecut=    30.00 Ry     beta= 0.50
     Davidson diagonalization with overlap
     ethr =  4.43E-07,  avg # of iterations =  3.0

     total cpu time spent up to now is        6.6 secs

     total energy              =    -501.43502448 Ry
     estimated scf accuracy    <       0.00107757 Ry

     iteration # 12     ecut=    30.00 Ry     beta= 0.50
     Davidson diagonalization with overlap
     ethr =  4.21E-07,  avg # of iterations =  2.0

     total cpu time spent up to now is        6.7 secs

     total energy              =    -501.43512729 Ry
     estimated scf accuracy    <       0.00026582 Ry

     iteration # 13     ecut=    30.00 Ry     beta= 0.50
     Davidson diagonalization with overlap
     ethr =  1.04E-07,  avg # of iterations =  2.0

     total cpu time spent up to now is        6.8 secs

     total energy              =    -501.43514796 Ry
     estimated scf accuracy    <       0.00004355 Ry

     iteration # 14     ecut=    30.00 Ry     beta= 0.50
     Davidson diagonalization with overlap
     ethr =  1.70E-08,  avg # of iterations =  3.0

     total cpu time spent up to now is        6.9 secs

     total energy              =    -501.43515429 Ry
     estimated scf accuracy    <       0.00004051 Ry

     iteration # 15     ecut=    30.00 Ry     beta= 0.50
     Davidson diagonalization with overlap
     ethr =  1.58E-08,  avg # of iterations =  2.0

     total cpu time spent up to now is        7.0 secs

     total energy              =    -501.43515653 Ry
     estimated scf accuracy    <       0.00000991 Ry

     iteration # 16     ecut=    30.00 Ry     beta= 0.50
     Davidson diagonalization with overlap
     ethr =  3.87E-09,  avg # of iterations =  3.0

     total cpu time spent up to now is        7.1 secs

     total energy              =    -501.43515718 Ry
     estimated scf accuracy    <       0.00002262 Ry

     iteration # 17     ecut=    30.00 Ry     beta= 0.50
     Davidson diagonalization with overlap
     ethr =  3.87E-09,  avg # of iterations =  2.0

     total cpu time spent up to now is        7.2 secs

     total energy              =    -501.43515845 Ry
     estimated scf accuracy    <       0.00000154 Ry

     iteration # 18     ecut=    30.00 Ry     beta= 0.50
     Davidson diagonalization with overlap
     ethr =  6.00E-10,  avg # of iterations =  4.0

     total cpu time spent up to now is        7.3 secs

     total energy              =    -501.43515864 Ry
     estimated scf accuracy    <       0.00000185 Ry

     iteration # 19     ecut=    30.00 Ry     beta= 0.50
     Davidson diagonalization with overlap
     ethr =  6.00E-10,  avg # of iterations =  2.0

     total cpu time spent up to now is        7.4 secs

     End of self-consistent calculation

          k = 0.0000 0.0000 0.0000 ( 11072 PWs)   bands (ev):

    -5.2446  -4.2461  -4.1971  -4.1454  -4.0303  -3.8699  -3.7238  -3.2304
    -3.1292  -3.0777  -3.0150  -2.9461  -2.9279  -2.8279  -2.6715  -2.6406
    -2.5675  -2.3825  -2.2730  -1.9489  -1.8844  -1.7407  -1.6732  -1.5815
    -1.4641  -1.3513  -1.1547  -0.7630  -0.6735  -0.4456  -0.3912  -0.2858
    -0.1227  -0.0054   0.0340   0.1914   0.2836   0.3180   0.3976   0.4725
     0.5297   0.5784   0.7172   0.7355   0.7951   0.9458   1.0588   1.1435
     1.2662   1.3090   1.3309   1.3939   1.4920   1.5921   1.7193   1.7638
     1.8770   2.0387   2.1935   2.2265   2.3174   2.3603   2.4518   2.5120
     2.5696   2.7388   2.7947   2.8833   2.9305   3.0457   3.1161   3.1503
     3.1943   3.2815   3.3392   3.3836   3.4876   3.5415   3.6213   3.6273
     4.0132   4.2407   4.3349   4.5118   4.6044   4.6329   4.7947   4.8736
     4.8859   4.9898   5.0619   5.1415   5.2730   5.2822   5.3505   5.4669
     5.4848   5.5275   5.5967   5.6339   5.7213   5.7589   5.8219   5.8827
     5.9174   5.9903   6.0319   6.0826   6.1557   6.1689   6.2066   6.2725
     6.3514   6.4458   6.4966   6.5485   6.5950   6.6816   6.6997   6.7374
     6.8039   6.8558   6.8579   6.9593   7.0148   7.0984   7.1241   7.2021
     7.2841   7.3007   7.3828   7.4615   7.4787   7.5518   7.5858   7.6673
     7.7600   7.8008   7.8976   7.9744   8.0241   8.0443   8.1006   8.1951
     8.2782   8.3165   8.4956   8.5203   8.5479   8.5989   8.6648   8.7519
     8.7962   8.8441

     the Fermi energy is     7.2314 ev

!    total energy              =    -501.43515858 Ry
     estimated scf accuracy    <       0.00000029 Ry
     smearing contrib. (-TS)   =      -0.15162649 Ry
     internal energy E=F+TS    =    -501.28353209 Ry

     The total energy is F=E-TS. E is the sum of the following terms:
     one-electron contribution =     197.43800298 Ry
     hartree contribution      =      20.88195091 Ry
     xc contribution           =    -150.87754200 Ry
     ewald contribution        =    -568.72594398 Ry

     convergence has been achieved in  19 iterations

     Forces acting on atoms (cartesian axes, Ry/au):

     atom    1 type  1   force =    -0.00150431   -0.04230516   -0.03664632
     atom    2 type  1   force =    -0.02511417   -0.02844982    0.00642745
     atom    3 type  1   force =    -0.03296630    0.01471426    0.03372870
     atom    4 type  1   force =     0.02102938   -0.01417508    0.01562237
     atom    5 type  1   force =     0.01851544    0.00405842    0.00974997
     atom    6 type  1   force =     0.06842375    0.03175481   -0.08267466
     atom    7 type  1   force =     0.01928907    0.02427359   -0.02882119
     atom    8 type  1   force =    -0.01286953    0.01412652   -0.01365976
     atom    9 type  1   force =    -0.00059496    0.00756970    0.00357297
     atom   10 type  1   force =    -0.00188698   -0.00559721    0.01282609
     atom   11 type  1   force =    -0.03978036    0.03278078    0.00462373
     atom   12 type  1   force =     0.02742823   -0.00411927   -0.01257634
     atom   13 type  1   force =    -0.03546366   -0.00546476   -0.00487233
     atom   14 type  1   force =     0.02334478    0.00509395   -0.00167848
     atom   15 type  1   force =     0.07900040    0.04707598   -0.02629222
     atom   16 type  1   force =     0.00209939    0.00734057    0.00579870
     atom   17 type  1   force =     0.01400389   -0.00882555    0.02450103
     atom   18 type  1   force =    -0.00564530    0.03262549   -0.01590813
     atom   19 type  1   force =    -0.02262714    0.00674508    0.00432985
     atom   20 type  1   force =    -0.03589417    0.00356573   -0.00086663
     atom   21 type  1   force =    -0.00155018    0.01628759   -0.00371706
     atom   22 type  1   force =    -0.03824293   -0.06057847    0.06655708
     atom   23 type  1   force =    -0.00263734   -0.00111664    0.01929392
     atom   24 type  1   force =     0.01092996    0.04265335   -0.02815291
     atom   25 type  1   force =     0.01111610    0.01946825   -0.00844253
     atom   26 type  1   force =     0.06544238    0.07229616    0.09898679
     atom   27 type  1   force =     0.02652214    0.00562625   -0.02136292
     atom   28 type  1   force =    -0.03671033   -0.01233991   -0.02763755
     atom   29 type  1   force =    -0.02202905    0.04890881    0.01211608
     atom   30 type  1   force =    -0.00239254   -0.01292246   -0.01334890
     atom   31 type  1   force =     0.00544518   -0.03647533   -0.00085108
     atom   32 type  1   force =    -0.00443870    0.00609973   -0.00381271
     atom   33 type  1   force =    -0.02769729    0.01993381    0.00112731
     atom   34 type  1   force =    -0.00738131   -0.01187689    0.00987103
     atom   35 type  1   force =     0.02762091    0.05555417    0.05574250
     atom   36 type  1   force =     0.00993088   -0.00444037   -0.00730630
     atom   37 type  1   force =    -0.01739214   -0.03382783    0.03167508
     atom   38 type  1   force =     0.00430015   -0.00087507   -0.01642529
     atom   39 type  1   force =     0.05148952   -0.02706871    0.00837573
     atom   40 type  1   force =    -0.01321664   -0.00215927   -0.00680032
     atom   41 type  1   force =    -0.01888269   -0.00868862   -0.01544069
     atom   42 type  1   force =     0.00425750   -0.01377181    0.01466442
     atom   43 type  1   force =     0.01963808   -0.01646692    0.00786507
     atom   44 type  1   force =    -0.02873528    0.00345706   -0.01082286
     atom   45 type  1   force =     0.02203744   -0.01457197   -0.02092578
     atom   46 type  1   force =    -0.03307516    0.01575926   -0.00742591
     atom   47 type  1   force =     0.00070955   -0.01139449   -0.03191102
     atom   48 type  1   force =    -0.06171599   -0.05698276    0.01351626
     atom   49 type  1   force =    -0.00727036   -0.00528247   -0.01228970
     atom   50 type  1   force =    -0.01666773    0.02007336   -0.02797133
     atom   51 type  1   force =     0.02015893    0.01155075    0.02515848
     atom   52 type  1   force =    -0.00480394   -0.00120561    0.00971288
     atom   53 type  1   force =     0.01139206   -0.00829702    0.01165443
     atom   54 type  1   force =     0.01264949    0.01796910    0.00255513
     atom   55 type  1   force =     0.01741046   -0.01797139    0.00968739
     atom   56 type  1   force =     0.01939704    0.01358944    0.01462937
     atom   57 type  1   force =    -0.01770265   -0.00294876    0.03534394
     atom   58 type  1   force =    -0.06153696   -0.09327732   -0.05444368
     atom   59 type  1   force =    -0.02961528   -0.03242814    0.04689816
     atom   60 type  1   force =     0.00029858   -0.00734255   -0.04837649
     atom   61 type  1   force =     0.03168421   -0.05876571   -0.00667356
     atom   62 type  1   force =    -0.01064682    0.04228848   -0.01311157
     atom   63 type  1   force =     0.01358076    0.01296452   -0.00186579
     atom   64 type  1   force =     0.01954253    0.00580838   -0.00349989

     Total force =     0.385192     Total SCF correction =     0.001039


     Computing stress (Cartesian axis) and pressure

          total   stress  (Ry/bohr**3)                   (kbar)     P=      -33.09
  -0.00033741   0.00003645   0.00000433          -49.63        5.36        0.64
   0.00003645  -0.00013515  -0.00002832            5.36      -19.88       -4.17
   0.00000433  -0.00002832  -0.00020216            0.64       -4.17      -29.74

 
     init_run     :      1.11s CPU      5.11s WALL (       1 calls)
     electrons    :      2.04s CPU      2.20s WALL (       1 calls)
     forces       :      0.04s CPU      0.04s WALL (       1 calls)
     stress       :      0.15s CPU      0.15s WALL (       1 calls)

     Called by init_run:
     wfcinit      :      0.57s CPU      4.39s WALL (       1 calls)
                                        4.39s GPU  (       1 calls)
     potinit      :      0.05s CPU      0.15s WALL (       1 calls)
     hinit0       :      0.47s CPU      0.50s WALL (       1 calls)

     Called by electrons:
     c_bands      :      1.22s CPU      1.29s WALL (      20 calls)
     sum_band     :      0.40s CPU      0.45s WALL (      20 calls)
     v_of_rho     :      0.19s CPU      0.30s WALL (      20 calls)
     mix_rho      :      0.19s CPU      0.20s WALL (      20 calls)

     Called by c_bands:
     init_us_2    :      0.07s CPU      0.08s WALL (      41 calls)
     init_us_2:gp :      0.07s CPU      0.08s WALL (      41 calls)
     regterg      :      1.05s CPU      1.11s WALL (      20 calls)

     Called by *egterg:
     rdiaghg      :      0.45s CPU      1.20s WALL (      89 calls)
                                        1.18s GPU  (      89 calls)
     h_psi        :      0.99s CPU      4.10s WALL (      91 calls)
                                        4.10s GPU  (      91 calls)
     g_psi        :      0.00s CPU      0.00s WALL (      70 calls)
                                        0.00s GPU  (      70 calls)

     Called by h_psi:
     h_psi:calbec :      0.53s CPU      3.56s WALL (      91 calls)
                                        3.56s GPU  (      91 calls)
     vloc_psi     :      0.40s CPU      0.47s WALL (      91 calls)
                                        0.47s GPU  (      91 calls)
     add_vuspsi   :      0.04s CPU      0.05s WALL (      91 calls)
                                        0.05s GPU  (      91 calls)

     General routines
     calbec       :      0.54s CPU      3.57s WALL (      96 calls)
     fft          :      0.63s CPU      0.77s WALL (     167 calls)
                                        0.13s GPU  (     106 calls)
     ffts         :      0.05s CPU      0.05s WALL (      20 calls)
     fftw         :      0.49s CPU      0.64s WALL (    2098 calls)
                                        0.56s GPU  (    2098 calls)
 
     Parallel routines
 
     PWSCF        :      3.39s CPU      7.59s WALL

 
   This run was terminated on:  10:47:59  10May2023            

=------------------------------------------------------------------------------=
   JOB DONE.
=------------------------------------------------------------------------------=
