An instance of this daemon is already running

     Program PWSCF v.7.1 starts on 10May2023 at 10:39:17 

     This program is part of the open-source Quantum ESPRESSO suite
     for quantum simulation of materials; please cite
         "P. Giannozzi et al., J. Phys.:Condens. Matter 21 395502 (2009);
         "P. Giannozzi et al., J. Phys.:Condens. Matter 29 465901 (2017);
         "P. Giannozzi et al., J. Chem. Phys. 152 154105 (2020);
          URL http://www.quantum-espresso.org", 
     in publications or presentations arising from this work. More details at
     http://www.quantum-espresso.org/quote

     Parallel version (MPI & OpenMP), running on       4 processor cores
     Number of MPI processes:                 4
     Threads/MPI process:                     1

     MPI processes distributed on     1 nodes
     753578 MiB available memory on the printing compute node when the environment starts
 
     Reading input from pw-si-11.in
Warning: card &CELL ignored
Warning: card / ignored

     Current dimensions of program PWSCF are:
     Max number of different atomic species (ntypx) = 10
     Max number of k-points (npk) =  40000
     Max angular momentum in pseudopotentials (lmaxx) =  4

     IMPORTANT: XC functional enforced from input :
     Exchange-correlation= PBE
                           (   1   4   3   4   0   0   0)
     Any further DFT definition will be discarded
     Please, verify this is what you really want


     gamma-point specific algorithms are used
 
     K-points division:     npool     =       2
     R & G space division:  proc/nbgrp/npool/nimage =       2
     Subspace diagonalization in iterative solution of the eigenvalue problem:
     a serial algorithm will be used

     Message from routine divide_et_impera:
     suboptimal parallelization: some nodes have no k-points
 
     Parallelization info
     --------------------
     sticks:   dense  smooth     PW     G-vecs:    dense   smooth      PW
     Min        1908    1908    502                89172    89172   12102
     Max        1909    1909    503                89177    89177   12105
     Sum        3817    3817   1005               178349   178349   24207
 
     Using Slab Decomposition
 


     bravais-lattice index     =            0
     lattice parameter (alat)  =      20.0337  a.u.
     unit-cell volume          =    8040.5598 (a.u.)^3
     number of atoms/cell      =           64
     number of atomic types    =            1
     number of electrons       =       256.00
     number of Kohn-Sham states=          154
     kinetic-energy cutoff     =      30.0000  Ry
     charge density cutoff     =     120.0000  Ry
     scf convergence threshold =      1.0E-06
     mixing beta               =       0.5000
     number of iterations used =            8  plain     mixing
     Exchange-correlation= PBE
                           (   1   4   3   4   0   0   0)

     GPU acceleration is ACTIVE.
     GPU-aware MPI enabled

     Message from routine print_cuda_info:
     High GPU oversubscription detected. Are you sure this is what you want?

     celldm(1)=  20.033743  celldm(2)=   0.000000  celldm(3)=   0.000000
     celldm(4)=   0.000000  celldm(5)=   0.000000  celldm(6)=   0.000000

     crystal axes: (cart. coord. in units of alat)
               a(1) = (   1.000000   0.000000   0.000000 )  
               a(2) = (   0.000000   1.000000   0.000000 )  
               a(3) = (   0.000000   0.000000   1.000000 )  

     reciprocal axes: (cart. coord. in units 2 pi/alat)
               b(1) = (  1.000000  0.000000  0.000000 )  
               b(2) = (  0.000000  1.000000  0.000000 )  
               b(3) = (  0.000000  0.000000  1.000000 )  


     PseudoPot. # 1 for Si read from file:
     /home/ppiaggi/pseudos/Si_ONCV_PBE_sr.upf
     MD5 check sum: 8553c464762ac42b85b1eed164b4d029
     Pseudo is Norm-conserving, Zval =  4.0
     Generated using ONCVPSP code by D. R. Hamann
     Using radial grid of 1510 points,  4 beta functions with: 
                l(1) =   0
                l(2) =   0
                l(3) =   1
                l(4) =   1

     atomic species   valence    mass     pseudopotential
        Si             4.00    28.08500     Si( 1.00)

     No symmetry found



   Cartesian axes

     site n.     atom                  positions (alat units)
         1           Si  tau(   1) = (   0.9614420   0.7807520   0.2298410  )
         2           Si  tau(   2) = (   0.1489460   0.6481570   0.9149430  )
         3           Si  tau(   3) = (   0.6020030   0.2150130   0.3368490  )
         4           Si  tau(   4) = (   0.2649060   0.7148860   0.3973250  )
         5           Si  tau(   5) = (   0.1268450   0.4707820   0.3426150  )
         6           Si  tau(   6) = (   0.0036775   0.0457841   0.7118740  )
         7           Si  tau(   7) = (   0.6948560   0.2046490   0.6242370  )
         8           Si  tau(   8) = (   0.7947400   0.0385800   0.8202570  )
         9           Si  tau(   9) = (   0.6162470   0.7961080   0.0326874  )
        10           Si  tau(  10) = (   0.8468650   0.7192580   0.8211020  )
        11           Si  tau(  11) = (   0.3784320   0.7342480   0.6690790  )
        12           Si  tau(  12) = (   0.9721430   0.8280810   0.6315130  )
        13           Si  tau(  13) = (   0.3854330   0.7149710   0.1311710  )
        14           Si  tau(  14) = (   0.6453870   0.4085580   0.4419130  )
        15           Si  tau(  15) = (   0.3440800   0.5018010   0.0087565  )
        16           Si  tau(  16) = (   0.1634490   0.3379540   0.7422580  )
        17           Si  tau(  17) = (   0.5570440   0.8147390   0.5202210  )
        18           Si  tau(  18) = (   0.6597950   0.9193320   0.2484040  )
        19           Si  tau(  19) = (   0.6978810   0.6638580   0.3303600  )
        20           Si  tau(  20) = (   0.7554440   0.6507260   0.5637100  )
        21           Si  tau(  21) = (   0.3661100   0.0439795   0.5621690  )
        22           Si  tau(  22) = (   0.9242090   0.2894270   0.6782920  )
        23           Si  tau(  23) = (   0.6112950   0.0142337   0.6527210  )
        24           Si  tau(  24) = (   0.7724470   0.2701320   0.8950520  )
        25           Si  tau(  25) = (   0.3061800   0.5338700   0.7238800  )
        26           Si  tau(  26) = (   0.8397380   0.8749750   0.4328230  )
        27           Si  tau(  27) = (   0.9478500   0.1815770   0.0391135  )
        28           Si  tau(  28) = (   0.8525410   0.4016310   0.3272440  )
        29           Si  tau(  29) = (   0.2081590   0.1382580   0.8730060  )
        30           Si  tau(  30) = (   0.5153260   0.3466750   0.1405390  )
        31           Si  tau(  31) = (   0.9186930   0.4516200   0.5399850  )
        32           Si  tau(  32) = (   0.3202870   0.3615710   0.3046150  )
        33           Si  tau(  33) = (   0.1783600   0.8420220   0.8379240  )
        34           Si  tau(  34) = (   0.7158290   0.1088490   0.1446250  )
        35           Si  tau(  35) = (   0.8437160   0.4646520   0.9718420  )
        36           Si  tau(  36) = (   0.9628790   0.2253170   0.2562040  )
        37           Si  tau(  37) = (   0.5207490   0.2776740   0.9110980  )
        38           Si  tau(  38) = (   0.9937590   0.5269650   0.8014800  )
        39           Si  tau(  39) = (   0.4994520   0.5662510   0.2769960  )
        40           Si  tau(  40) = (   0.4926600   0.3224110   0.6345370  )
        41           Si  tau(  41) = (   0.2351610   0.2948220   0.0317173  )
        42           Si  tau(  42) = (   0.0687038   0.1188720   0.5031340  )
        43           Si  tau(  43) = (   0.6128110   0.7262450   0.7866370  )
        44           Si  tau(  44) = (   0.2281860   0.8655170   0.5913480  )
        45           Si  tau(  45) = (   0.4107030   0.8692380   0.8746610  )
        46           Si  tau(  46) = (   0.7938280   0.1034930   0.4252350  )
        47           Si  tau(  47) = (   0.8891460   0.8850660   0.0169979  )
        48           Si  tau(  48) = (   0.5907380   0.0284513   0.9904730  )
        49           Si  tau(  49) = (   0.3582900   0.5020610   0.5005180  )
        50           Si  tau(  50) = (   0.4171130   0.0841184   0.3428490  )
        51           Si  tau(  51) = (   0.3675640   0.0830556   0.0961215  )
        52           Si  tau(  52) = (   0.6149370   0.5594920   0.0174040  )
        53           Si  tau(  53) = (   0.1152210   0.9038680   0.3618440  )
        54           Si  tau(  54) = (   0.0488811   0.4129410   0.0899337  )
        55           Si  tau(  55) = (   0.2025570   0.1731840   0.2921910  )
        56           Si  tau(  56) = (   0.0932278   0.6016180   0.5790970  )
        57           Si  tau(  57) = (   0.8498540   0.5836820   0.1721510  )
        58           Si  tau(  58) = (   0.2339730   0.9204910   0.1579150  )
        59           Si  tau(  59) = (   0.4408660   0.8681510   0.3340670  )
        60           Si  tau(  60) = (   0.2767390   0.2562060   0.5553230  )
        61           Si  tau(  61) = (   0.5027600   0.4653560   0.8230070  )
        62           Si  tau(  62) = (   0.1458850   0.6393650   0.1532710  )
        63           Si  tau(  63) = (   0.4303160   0.0883499   0.7901630  )
        64           Si  tau(  64) = (   0.0949135   0.9749460   0.0085746  )

     number of k points=     1  Fermi-Dirac smearing, width (Ry)=  0.0100
                       cart. coord. in units 2pi/alat
        k(    1) = (   0.0000000   0.0000000   0.0000000), wk =   2.0000000

     Dense  grid:    89175 G-vectors     FFT dimensions: (  72,  72,  72)

     Estimated max dynamical RAM per process >     143.47 MB

     Estimated total dynamical RAM >     552.13 MB

     Initial potential from superposition of free atoms

     starting charge     255.9608, renormalised to     256.0000
     Starting wfcs are  256 randomized atomic wfcs

     total cpu time spent up to now is        5.0 secs

     Self-consistent Calculation

     iteration #  1     ecut=    30.00 Ry     beta= 0.50
     Davidson diagonalization with overlap
     ethr =  1.00E-02,  avg # of iterations =  3.0

     Threshold (ethr) on eigenvalues was too large:
     Diagonalizing with lowered threshold

     Davidson diagonalization with overlap
     ethr =  4.10E-04,  avg # of iterations =  4.0

     total cpu time spent up to now is        5.3 secs

     total energy              =    -501.01316510 Ry
     estimated scf accuracy    <       1.28157145 Ry

     iteration #  2     ecut=    30.00 Ry     beta= 0.50
     Davidson diagonalization with overlap
     ethr =  5.01E-04,  avg # of iterations =  5.0

     total cpu time spent up to now is        5.4 secs

     total energy              =    -500.21380033 Ry
     estimated scf accuracy    <      12.44019080 Ry

     iteration #  3     ecut=    30.00 Ry     beta= 0.50
     Davidson diagonalization with overlap
     ethr =  5.01E-04,  avg # of iterations =  5.0

     total cpu time spent up to now is        5.5 secs

     total energy              =    -501.22017820 Ry
     estimated scf accuracy    <       1.25337514 Ry

     iteration #  4     ecut=    30.00 Ry     beta= 0.50
     Davidson diagonalization with overlap
     ethr =  4.90E-04,  avg # of iterations =  2.0

     total cpu time spent up to now is        5.6 secs

     total energy              =    -501.29836043 Ry
     estimated scf accuracy    <       0.50169908 Ry

     iteration #  5     ecut=    30.00 Ry     beta= 0.50
     Davidson diagonalization with overlap
     ethr =  1.96E-04,  avg # of iterations =  2.0

     total cpu time spent up to now is        5.7 secs

     total energy              =    -501.31719081 Ry
     estimated scf accuracy    <       0.49939009 Ry

     iteration #  6     ecut=    30.00 Ry     beta= 0.50
     Davidson diagonalization with overlap
     ethr =  1.95E-04,  avg # of iterations =  2.0

     total cpu time spent up to now is        5.8 secs

     total energy              =    -501.35991675 Ry
     estimated scf accuracy    <       0.08181902 Ry

     iteration #  7     ecut=    30.00 Ry     beta= 0.50
     Davidson diagonalization with overlap
     ethr =  3.20E-05,  avg # of iterations =  2.0

     total cpu time spent up to now is        5.9 secs

     total energy              =    -501.37008867 Ry
     estimated scf accuracy    <       0.01052322 Ry

     iteration #  8     ecut=    30.00 Ry     beta= 0.50
     Davidson diagonalization with overlap
     ethr =  4.11E-06,  avg # of iterations = 13.0

     total cpu time spent up to now is        6.1 secs

     total energy              =    -501.37064743 Ry
     estimated scf accuracy    <       0.01764926 Ry

     iteration #  9     ecut=    30.00 Ry     beta= 0.50
     Davidson diagonalization with overlap
     ethr =  4.11E-06,  avg # of iterations =  3.0

     total cpu time spent up to now is        6.2 secs

     total energy              =    -501.37211826 Ry
     estimated scf accuracy    <       0.00385201 Ry

     iteration # 10     ecut=    30.00 Ry     beta= 0.50
     Davidson diagonalization with overlap
     ethr =  1.50E-06,  avg # of iterations =  2.0

     total cpu time spent up to now is        6.3 secs

     total energy              =    -501.37250161 Ry
     estimated scf accuracy    <       0.00057446 Ry

     iteration # 11     ecut=    30.00 Ry     beta= 0.50
     Davidson diagonalization with overlap
     ethr =  2.24E-07,  avg # of iterations =  2.0

     total cpu time spent up to now is        6.4 secs

     total energy              =    -501.37253157 Ry
     estimated scf accuracy    <       0.00035326 Ry

     iteration # 12     ecut=    30.00 Ry     beta= 0.50
     Davidson diagonalization with overlap
     ethr =  1.38E-07,  avg # of iterations =  3.0

     total cpu time spent up to now is        6.5 secs

     total energy              =    -501.37255547 Ry
     estimated scf accuracy    <       0.00064054 Ry

     iteration # 13     ecut=    30.00 Ry     beta= 0.50
     Davidson diagonalization with overlap
     ethr =  1.38E-07,  avg # of iterations =  2.0

     total cpu time spent up to now is        6.6 secs

     total energy              =    -501.37259435 Ry
     estimated scf accuracy    <       0.00013050 Ry

     iteration # 14     ecut=    30.00 Ry     beta= 0.50
     Davidson diagonalization with overlap
     ethr =  5.10E-08,  avg # of iterations =  2.0

     total cpu time spent up to now is        6.7 secs

     total energy              =    -501.37260631 Ry
     estimated scf accuracy    <       0.00001907 Ry

     iteration # 15     ecut=    30.00 Ry     beta= 0.50
     Davidson diagonalization with overlap
     ethr =  7.45E-09,  avg # of iterations =  3.0

     total cpu time spent up to now is        6.8 secs

     total energy              =    -501.37260868 Ry
     estimated scf accuracy    <       0.00000754 Ry

     iteration # 16     ecut=    30.00 Ry     beta= 0.50
     Davidson diagonalization with overlap
     ethr =  2.95E-09,  avg # of iterations =  3.0

     total cpu time spent up to now is        6.9 secs

     total energy              =    -501.37260893 Ry
     estimated scf accuracy    <       0.00001465 Ry

     iteration # 17     ecut=    30.00 Ry     beta= 0.50
     Davidson diagonalization with overlap
     ethr =  2.95E-09,  avg # of iterations =  2.0

     total cpu time spent up to now is        7.0 secs

     total energy              =    -501.37261008 Ry
     estimated scf accuracy    <       0.00000146 Ry

     iteration # 18     ecut=    30.00 Ry     beta= 0.50
     Davidson diagonalization with overlap
     ethr =  5.72E-10,  avg # of iterations =  2.0

     total cpu time spent up to now is        7.1 secs

     End of self-consistent calculation

          k = 0.0000 0.0000 0.0000 ( 11072 PWs)   bands (ev):

    -5.2594  -4.1921  -4.1497  -4.1028  -4.0110  -3.9653  -3.8885  -3.1425
    -3.1237  -3.0479  -2.9610  -2.8931  -2.8522  -2.7898  -2.7353  -2.6540
    -2.5938  -2.4778  -2.4448  -1.9457  -1.8858  -1.7583  -1.6383  -1.5425
    -1.4040  -1.2247  -1.0642  -0.8165  -0.6550  -0.4866  -0.4608  -0.3811
    -0.1907  -0.0066   0.0893   0.1516   0.2632   0.4029   0.4628   0.5465
     0.6325   0.6724   0.8075   0.8546   0.8836   0.9651   0.9742   1.0389
     1.1213   1.1748   1.2923   1.3500   1.4669   1.5570   1.7117   1.8368
     1.8772   1.9971   2.0642   2.2271   2.3493   2.4403   2.4814   2.5477
     2.5757   2.6658   2.7425   2.8038   2.8879   2.9299   3.0295   3.1239
     3.2227   3.2505   3.3565   3.4788   3.5222   3.5797   3.7668   3.8100
     3.9863   4.4009   4.4380   4.4921   4.5533   4.6060   4.7226   4.8085
     4.8639   4.9579   5.0684   5.1042   5.1334   5.2132   5.3325   5.3887
     5.5181   5.5385   5.6158   5.6755   5.7178   5.8049   5.8279   5.8790
     5.9335   6.0273   6.0511   6.0880   6.1995   6.2494   6.3282   6.3479
     6.4154   6.4453   6.4752   6.6169   6.6327   6.6397   6.7798   6.8545
     6.8695   6.9220   6.9574   7.0478   7.0967   7.1530   7.2376   7.2621
     7.3536   7.4251   7.4372   7.4604   7.5211   7.5525   7.6179   7.7118
     7.7761   7.8084   7.8547   7.9391   8.0042   8.0666   8.1807   8.2195
     8.2370   8.3071   8.3982   8.4223   8.5656   8.6249   8.6606   8.7084
     8.7652   8.7896

     the Fermi energy is     7.2964 ev

!    total energy              =    -501.37260976 Ry
     estimated scf accuracy    <       0.00000063 Ry
     smearing contrib. (-TS)   =      -0.16207146 Ry
     internal energy E=F+TS    =    -501.21053830 Ry

     The total energy is F=E-TS. E is the sum of the following terms:
     one-electron contribution =     195.08824454 Ry
     hartree contribution      =      22.11773638 Ry
     xc contribution           =    -150.82674972 Ry
     ewald contribution        =    -567.58976950 Ry

     convergence has been achieved in  18 iterations

     Forces acting on atoms (cartesian axes, Ry/au):

     atom    1 type  1   force =     0.00063364    0.00692070   -0.02420987
     atom    2 type  1   force =     0.00525399   -0.07477178    0.02709365
     atom    3 type  1   force =    -0.00171523   -0.00581782   -0.04222094
     atom    4 type  1   force =     0.00234867   -0.01027410    0.02637351
     atom    5 type  1   force =    -0.00220029    0.02000684   -0.02635747
     atom    6 type  1   force =     0.00967023    0.00022408    0.00555637
     atom    7 type  1   force =     0.03920064    0.04274441   -0.01883933
     atom    8 type  1   force =    -0.01261948    0.00226009    0.00314827
     atom    9 type  1   force =    -0.02869389    0.00793918   -0.00412328
     atom   10 type  1   force =     0.01461181    0.01786183   -0.01073088
     atom   11 type  1   force =     0.05859766   -0.00402325    0.00083074
     atom   12 type  1   force =    -0.00192653   -0.02570951   -0.00722320
     atom   13 type  1   force =     0.01185887    0.00521949    0.00823336
     atom   14 type  1   force =    -0.00897373    0.01219451    0.01004281
     atom   15 type  1   force =     0.00103996    0.00793617   -0.01976976
     atom   16 type  1   force =    -0.00989527    0.00537024    0.00188273
     atom   17 type  1   force =     0.00741651   -0.00714596    0.04110935
     atom   18 type  1   force =     0.00470558   -0.04320953   -0.01071837
     atom   19 type  1   force =    -0.01322121    0.00190842    0.01982771
     atom   20 type  1   force =     0.00129050    0.01533237   -0.02824649
     atom   21 type  1   force =    -0.00315047    0.00119994    0.00076716
     atom   22 type  1   force =    -0.00737704   -0.03192373    0.05876447
     atom   23 type  1   force =    -0.02345964   -0.05720186    0.01589933
     atom   24 type  1   force =    -0.00844786   -0.04163643   -0.03629630
     atom   25 type  1   force =    -0.03497885   -0.02170008    0.02068776
     atom   26 type  1   force =    -0.00285930    0.00114083   -0.00253697
     atom   27 type  1   force =    -0.01741066   -0.00637735   -0.00249253
     atom   28 type  1   force =    -0.00155936    0.02528448   -0.00122663
     atom   29 type  1   force =    -0.00773683   -0.00689900   -0.01771292
     atom   30 type  1   force =    -0.03386803    0.02529101    0.03700484
     atom   31 type  1   force =    -0.00670589    0.06258285   -0.03536572
     atom   32 type  1   force =     0.01375640    0.02273027    0.00509724
     atom   33 type  1   force =     0.02064195    0.06219774   -0.03178888
     atom   34 type  1   force =     0.04214958    0.02683846    0.03836784
     atom   35 type  1   force =     0.01170544    0.02610632    0.00110102
     atom   36 type  1   force =     0.01718423   -0.00635776    0.02196384
     atom   37 type  1   force =     0.03641831   -0.07612074    0.02366801
     atom   38 type  1   force =    -0.00043424    0.00743164    0.00974373
     atom   39 type  1   force =     0.00060264   -0.02686076   -0.00092846
     atom   40 type  1   force =     0.01493655    0.02965358   -0.00248869
     atom   41 type  1   force =     0.01622249    0.00684873    0.03269158
     atom   42 type  1   force =     0.00159796   -0.02232963   -0.03715947
     atom   43 type  1   force =    -0.00356067   -0.01357832    0.00885734
     atom   44 type  1   force =    -0.04154593    0.02835993   -0.01131781
     atom   45 type  1   force =     0.01635299   -0.00227546    0.00582689
     atom   46 type  1   force =     0.02889830   -0.01399009    0.01011213
     atom   47 type  1   force =    -0.02985617   -0.00916558   -0.00781783
     atom   48 type  1   force =    -0.04939147   -0.02402713   -0.02724011
     atom   49 type  1   force =     0.00129434    0.00522899   -0.04432217
     atom   50 type  1   force =    -0.01410594    0.01614072    0.00548695
     atom   51 type  1   force =     0.00889578    0.02831692   -0.00156825
     atom   52 type  1   force =    -0.00459328   -0.00569249    0.00399387
     atom   53 type  1   force =     0.00591883    0.01811728    0.01640720
     atom   54 type  1   force =    -0.00424934   -0.02315776    0.03118398
     atom   55 type  1   force =    -0.01599969   -0.02147224   -0.01205199
     atom   56 type  1   force =    -0.00421075    0.00828773   -0.01255537
     atom   57 type  1   force =    -0.00006222   -0.01309368    0.02997457
     atom   58 type  1   force =     0.03655785   -0.02282796    0.05237811
     atom   59 type  1   force =     0.00296262   -0.03428887   -0.01637008
     atom   60 type  1   force =    -0.00167875    0.00043938   -0.00864195
     atom   61 type  1   force =    -0.00284355    0.06828349   -0.02503871
     atom   62 type  1   force =    -0.00936101    0.00319047    0.00430603
     atom   63 type  1   force =     0.00357887   -0.00102751    0.00472838
     atom   64 type  1   force =    -0.02761062    0.03336730   -0.05575039

     Total force =     0.329752     Total SCF correction =     0.001598


     Computing stress (Cartesian axis) and pressure

          total   stress  (Ry/bohr**3)                   (kbar)     P=      -35.26
  -0.00032481   0.00004148   0.00009747          -47.78        6.10       14.34
   0.00004148  -0.00014082  -0.00003756            6.10      -20.72       -5.53
   0.00009747  -0.00003756  -0.00025341           14.34       -5.53      -37.28

 
     init_run     :      1.09s CPU      4.94s WALL (       1 calls)
     electrons    :      1.90s CPU      2.05s WALL (       1 calls)
     forces       :      0.04s CPU      0.04s WALL (       1 calls)
     stress       :      0.15s CPU      0.15s WALL (       1 calls)

     Called by init_run:
     wfcinit      :      0.55s CPU      4.23s WALL (       1 calls)
                                        4.23s GPU  (       1 calls)
     potinit      :      0.05s CPU      0.15s WALL (       1 calls)
     hinit0       :      0.47s CPU      0.50s WALL (       1 calls)

     Called by electrons:
     c_bands      :      1.11s CPU      1.19s WALL (      19 calls)
     sum_band     :      0.40s CPU      0.43s WALL (      19 calls)
     v_of_rho     :      0.19s CPU      0.29s WALL (      19 calls)
     mix_rho      :      0.17s CPU      0.19s WALL (      19 calls)

     Called by c_bands:
     init_us_2    :      0.07s CPU      0.07s WALL (      39 calls)
     init_us_2:gp :      0.07s CPU      0.07s WALL (      39 calls)
     regterg      :      0.95s CPU      1.02s WALL (      19 calls)

     Called by *egterg:
     rdiaghg      :      0.40s CPU      1.16s WALL (      80 calls)
                                        1.14s GPU  (      80 calls)
     h_psi        :      0.92s CPU      3.90s WALL (      82 calls)
                                        3.90s GPU  (      82 calls)
     g_psi        :      0.00s CPU      0.00s WALL (      62 calls)
                                        0.00s GPU  (      62 calls)

     Called by h_psi:
     h_psi:calbec :      0.51s CPU      3.40s WALL (      82 calls)
                                        3.39s GPU  (      82 calls)
     vloc_psi     :      0.37s CPU      0.45s WALL (      82 calls)
                                        0.45s GPU  (      82 calls)
     add_vuspsi   :      0.03s CPU      0.05s WALL (      82 calls)
                                        0.05s GPU  (      82 calls)

     General routines
     calbec       :      0.51s CPU      3.40s WALL (      87 calls)
     fft          :      0.63s CPU      0.76s WALL (     159 calls)
                                        0.14s GPU  (     101 calls)
     ffts         :      0.05s CPU      0.05s WALL (      19 calls)
     fftw         :      0.46s CPU      0.61s WALL (    1997 calls)
                                        0.53s GPU  (    1997 calls)
 
     Parallel routines
 
     PWSCF        :      3.23s CPU      7.28s WALL

 
   This run was terminated on:  10:39:24  10May2023            

=------------------------------------------------------------------------------=
   JOB DONE.
=------------------------------------------------------------------------------=
