An instance of this daemon is already running
An instance of this daemon is already running
An instance of this daemon is already running

     Program PWSCF v.7.1 starts on 10May2023 at 10:50:28 

     This program is part of the open-source Quantum ESPRESSO suite
     for quantum simulation of materials; please cite
         "P. Giannozzi et al., J. Phys.:Condens. Matter 21 395502 (2009);
         "P. Giannozzi et al., J. Phys.:Condens. Matter 29 465901 (2017);
         "P. Giannozzi et al., J. Chem. Phys. 152 154105 (2020);
          URL http://www.quantum-espresso.org", 
     in publications or presentations arising from this work. More details at
     http://www.quantum-espresso.org/quote

     Parallel version (MPI & OpenMP), running on       4 processor cores
     Number of MPI processes:                 4
     Threads/MPI process:                     1

     MPI processes distributed on     1 nodes
     753555 MiB available memory on the printing compute node when the environment starts
 
     Reading input from pw-si-80.in
Warning: card &CELL ignored
Warning: card / ignored

     Current dimensions of program PWSCF are:
     Max number of different atomic species (ntypx) = 10
     Max number of k-points (npk) =  40000
     Max angular momentum in pseudopotentials (lmaxx) =  4

     IMPORTANT: XC functional enforced from input :
     Exchange-correlation= PBE
                           (   1   4   3   4   0   0   0)
     Any further DFT definition will be discarded
     Please, verify this is what you really want


     gamma-point specific algorithms are used
 
     K-points division:     npool     =       2
     R & G space division:  proc/nbgrp/npool/nimage =       2
     Subspace diagonalization in iterative solution of the eigenvalue problem:
     a serial algorithm will be used

     Message from routine divide_et_impera:
     suboptimal parallelization: some nodes have no k-points
 
     Parallelization info
     --------------------
     sticks:   dense  smooth     PW     G-vecs:    dense   smooth      PW
     Min        1900    1900    501                88285    88285   11935
     Max        1901    1901    504                88288    88288   11936
     Sum        3801    3801   1005               176573   176573   23871
 
     Using Slab Decomposition
 


     bravais-lattice index     =            0
     lattice parameter (alat)  =      19.9582  a.u.
     unit-cell volume          =    7949.9425 (a.u.)^3
     number of atoms/cell      =           64
     number of atomic types    =            1
     number of electrons       =       256.00
     number of Kohn-Sham states=          154
     kinetic-energy cutoff     =      30.0000  Ry
     charge density cutoff     =     120.0000  Ry
     scf convergence threshold =      1.0E-06
     mixing beta               =       0.5000
     number of iterations used =            8  plain     mixing
     Exchange-correlation= PBE
                           (   1   4   3   4   0   0   0)

     GPU acceleration is ACTIVE.
     GPU-aware MPI enabled

     Message from routine print_cuda_info:
     High GPU oversubscription detected. Are you sure this is what you want?

     celldm(1)=  19.958198  celldm(2)=   0.000000  celldm(3)=   0.000000
     celldm(4)=   0.000000  celldm(5)=   0.000000  celldm(6)=   0.000000

     crystal axes: (cart. coord. in units of alat)
               a(1) = (   1.000000   0.000000   0.000000 )  
               a(2) = (   0.000000   1.000000   0.000000 )  
               a(3) = (   0.000000   0.000000   1.000000 )  

     reciprocal axes: (cart. coord. in units 2 pi/alat)
               b(1) = (  1.000000  0.000000  0.000000 )  
               b(2) = (  0.000000  1.000000  0.000000 )  
               b(3) = (  0.000000  0.000000  1.000000 )  


     PseudoPot. # 1 for Si read from file:
     /home/ppiaggi/pseudos/Si_ONCV_PBE_sr.upf
     MD5 check sum: 8553c464762ac42b85b1eed164b4d029
     Pseudo is Norm-conserving, Zval =  4.0
     Generated using ONCVPSP code by D. R. Hamann
     Using radial grid of 1510 points,  4 beta functions with: 
                l(1) =   0
                l(2) =   0
                l(3) =   1
                l(4) =   1

     atomic species   valence    mass     pseudopotential
        Si             4.00    28.08500     Si( 1.00)

     No symmetry found



   Cartesian axes

     site n.     atom                  positions (alat units)
         1           Si  tau(   1) = (   0.2100260   0.3208900   0.2704440  )
         2           Si  tau(   2) = (   0.3625880   0.7547330   0.9912730  )
         3           Si  tau(   3) = (   0.7653500   0.5680050   0.6832760  )
         4           Si  tau(   4) = (   0.6455160   0.1208590   0.6497750  )
         5           Si  tau(   5) = (   0.0513760   0.9873620   0.2676760  )
         6           Si  tau(   6) = (   0.8475110   0.2845670   0.1094720  )
         7           Si  tau(   7) = (   0.5193210   0.4105530   0.0841345  )
         8           Si  tau(   8) = (   0.4210250   0.3649340   0.3639160  )
         9           Si  tau(   9) = (   0.3910380   0.9212460   0.6538260  )
        10           Si  tau(  10) = (   0.1609070   0.0056762   0.5790630  )
        11           Si  tau(  11) = (   0.7481090   0.9437230   0.1890890  )
        12           Si  tau(  12) = (   0.3941620   0.6092880   0.8261290  )
        13           Si  tau(  13) = (   0.3440680   0.3247240   0.6397530  )
        14           Si  tau(  14) = (   0.6677140   0.3360280   0.7376200  )
        15           Si  tau(  15) = (   0.4873050   0.1777980   0.2188090  )
        16           Si  tau(  16) = (   0.2210560   0.8320570   0.2916680  )
        17           Si  tau(  17) = (   0.6035660   0.7022650   0.2919530  )
        18           Si  tau(  18) = (   0.8577270   0.0261193   0.7431690  )
        19           Si  tau(  19) = (   0.6292090   0.5283010   0.9063090  )
        20           Si  tau(  20) = (   0.0000681   0.5153150   0.1504070  )
        21           Si  tau(  21) = (   0.7989080   0.7442300   0.4932270  )
        22           Si  tau(  22) = (   0.6028480   0.8710850   0.5518700  )
        23           Si  tau(  23) = (   0.3167460   0.1646030   0.0463616  )
        24           Si  tau(  24) = (   0.1594760   0.9911470   0.7954870  )
        25           Si  tau(  25) = (   0.6989000   0.3478310   0.4275720  )
        26           Si  tau(  26) = (   0.9337460   0.6859180   0.8853650  )
        27           Si  tau(  27) = (   0.4571310   0.6829940   0.6033760  )
        28           Si  tau(  28) = (   0.0179071   0.3418590   0.3831470  )
        29           Si  tau(  29) = (   0.1575080   0.7630320   0.8540310  )
        30           Si  tau(  30) = (   0.0699012   0.3734160   0.8189180  )
        31           Si  tau(  31) = (   0.6931010   0.8629070   0.9681930  )
        32           Si  tau(  32) = (   0.6892680   0.1342790   0.0793475  )
        33           Si  tau(  33) = (   0.0703131   0.1861750   0.0866338  )
        34           Si  tau(  34) = (   0.8563180   0.1366490   0.3221870  )
        35           Si  tau(  35) = (   0.8908940   0.1887450   0.5865690  )
        36           Si  tau(  36) = (   0.0113762   0.5327920   0.6553670  )
        37           Si  tau(  37) = (   0.9525570   0.8799640   0.0801497  )
        38           Si  tau(  38) = (   0.3150200   0.5730290   0.1362400  )
        39           Si  tau(  39) = (   0.1663910   0.4329750   0.0131370  )
        40           Si  tau(  40) = (   0.4077160   0.1361980   0.5343170  )
        41           Si  tau(  41) = (   0.9423850   0.9381300   0.4813310  )
        42           Si  tau(  42) = (   0.1208860   0.7087060   0.1060670  )
        43           Si  tau(  43) = (   0.2083850   0.4782620   0.5087690  )
        44           Si  tau(  44) = (   0.8858390   0.5004320   0.4406700  )
        45           Si  tau(  45) = (   0.3726650   0.9481040   0.1979020  )
        46           Si  tau(  46) = (   0.5562380   0.0200452   0.8507060  )
        47           Si  tau(  47) = (   0.3678920   0.9843320   0.9287150  )
        48           Si  tau(  48) = (   0.5321660   0.4474710   0.5694210  )
        49           Si  tau(  49) = (   0.9882510   0.0482631   0.9255590  )
        50           Si  tau(  50) = (   0.8614220   0.6820120   0.2652140  )
        51           Si  tau(  51) = (   0.8035470   0.8163000   0.7608310  )
        52           Si  tau(  52) = (   0.4164770   0.5929620   0.3281110  )
        53           Si  tau(  53) = (   0.2604850   0.7076740   0.4893490  )
        54           Si  tau(  54) = (   0.8526330   0.5099550   0.9782750  )
        55           Si  tau(  55) = (   0.5365750   0.2406260   0.9245850  )
        56           Si  tau(  56) = (   0.0733671   0.7778720   0.5994630  )
        57           Si  tau(  57) = (   0.2602100   0.1088020   0.3436940  )
        58           Si  tau(  58) = (   0.1157320   0.2693080   0.5990020  )
        59           Si  tau(  59) = (   0.7020250   0.4663150   0.2130740  )
        60           Si  tau(  60) = (   0.6445580   0.1272160   0.4130320  )
        61           Si  tau(  61) = (   0.8736780   0.2986590   0.8659210  )
        62           Si  tau(  62) = (   0.5475070   0.9144790   0.3285090  )
        63           Si  tau(  63) = (   0.3323640   0.3967220   0.8628370  )
        64           Si  tau(  64) = (   0.5832740   0.7119980   0.0675999  )

     number of k points=     1  Fermi-Dirac smearing, width (Ry)=  0.0100
                       cart. coord. in units 2pi/alat
        k(    1) = (   0.0000000   0.0000000   0.0000000), wk =   2.0000000

     Dense  grid:    88287 G-vectors     FFT dimensions: (  72,  72,  72)

     Estimated max dynamical RAM per process >     142.08 MB

     Estimated total dynamical RAM >     546.75 MB

     Initial potential from superposition of free atoms

     starting charge     255.9608, renormalised to     256.0000
     Starting wfcs are  256 randomized atomic wfcs

     total cpu time spent up to now is        5.0 secs

     Self-consistent Calculation

     iteration #  1     ecut=    30.00 Ry     beta= 0.50
     Davidson diagonalization with overlap
     ethr =  1.00E-02,  avg # of iterations =  3.0

     Threshold (ethr) on eigenvalues was too large:
     Diagonalizing with lowered threshold

     Davidson diagonalization with overlap
     ethr =  3.81E-04,  avg # of iterations =  5.0

     total cpu time spent up to now is        5.3 secs

     total energy              =    -501.40939390 Ry
     estimated scf accuracy    <       1.15600585 Ry

     iteration #  2     ecut=    30.00 Ry     beta= 0.50
     Davidson diagonalization with overlap
     ethr =  4.52E-04,  avg # of iterations =  4.0

     total cpu time spent up to now is        5.4 secs

     total energy              =    -500.85496147 Ry
     estimated scf accuracy    <       6.64318950 Ry

     iteration #  3     ecut=    30.00 Ry     beta= 0.50
     Davidson diagonalization with overlap
     ethr =  4.52E-04,  avg # of iterations =  4.0

     total cpu time spent up to now is        5.5 secs

     total energy              =    -501.47862563 Ry
     estimated scf accuracy    <       1.65235167 Ry

     iteration #  4     ecut=    30.00 Ry     beta= 0.50
     Davidson diagonalization with overlap
     ethr =  4.52E-04,  avg # of iterations =  2.0

     total cpu time spent up to now is        5.6 secs

     total energy              =    -501.57577719 Ry
     estimated scf accuracy    <       0.49708174 Ry

     iteration #  5     ecut=    30.00 Ry     beta= 0.50
     Davidson diagonalization with overlap
     ethr =  1.94E-04,  avg # of iterations =  2.0

     total cpu time spent up to now is        5.7 secs

     total energy              =    -501.60973632 Ry
     estimated scf accuracy    <       0.23772357 Ry

     iteration #  6     ecut=    30.00 Ry     beta= 0.50
     Davidson diagonalization with overlap
     ethr =  9.29E-05,  avg # of iterations =  2.0

     total cpu time spent up to now is        5.8 secs

     total energy              =    -501.63561511 Ry
     estimated scf accuracy    <       0.08801204 Ry

     iteration #  7     ecut=    30.00 Ry     beta= 0.50
     Davidson diagonalization with overlap
     ethr =  3.44E-05,  avg # of iterations =  2.0

     total cpu time spent up to now is        5.9 secs

     total energy              =    -501.64316205 Ry
     estimated scf accuracy    <       0.00672983 Ry

     iteration #  8     ecut=    30.00 Ry     beta= 0.50
     Davidson diagonalization with overlap
     ethr =  2.63E-06,  avg # of iterations = 16.0

     total cpu time spent up to now is        6.1 secs

     total energy              =    -501.64375308 Ry
     estimated scf accuracy    <       0.01468385 Ry

     iteration #  9     ecut=    30.00 Ry     beta= 0.50
     Davidson diagonalization with overlap
     ethr =  2.63E-06,  avg # of iterations =  3.0

     total cpu time spent up to now is        6.2 secs

     total energy              =    -501.64505666 Ry
     estimated scf accuracy    <       0.00376588 Ry

     iteration # 10     ecut=    30.00 Ry     beta= 0.50
     Davidson diagonalization with overlap
     ethr =  1.47E-06,  avg # of iterations =  2.0

     total cpu time spent up to now is        6.3 secs

     total energy              =    -501.64536606 Ry
     estimated scf accuracy    <       0.00044481 Ry

     iteration # 11     ecut=    30.00 Ry     beta= 0.50
     Davidson diagonalization with overlap
     ethr =  1.74E-07,  avg # of iterations =  3.0

     total cpu time spent up to now is        6.4 secs

     total energy              =    -501.64538162 Ry
     estimated scf accuracy    <       0.00034730 Ry

     iteration # 12     ecut=    30.00 Ry     beta= 0.50
     Davidson diagonalization with overlap
     ethr =  1.36E-07,  avg # of iterations =  3.0

     total cpu time spent up to now is        6.5 secs

     total energy              =    -501.64542524 Ry
     estimated scf accuracy    <       0.00033520 Ry

     iteration # 13     ecut=    30.00 Ry     beta= 0.50
     Davidson diagonalization with overlap
     ethr =  1.31E-07,  avg # of iterations =  1.0

     total cpu time spent up to now is        6.6 secs

     total energy              =    -501.64544597 Ry
     estimated scf accuracy    <       0.00002689 Ry

     iteration # 14     ecut=    30.00 Ry     beta= 0.50
     Davidson diagonalization with overlap
     ethr =  1.05E-08,  avg # of iterations =  4.0

     total cpu time spent up to now is        6.7 secs

     total energy              =    -501.64544905 Ry
     estimated scf accuracy    <       0.00000996 Ry

     iteration # 15     ecut=    30.00 Ry     beta= 0.50
     Davidson diagonalization with overlap
     ethr =  3.89E-09,  avg # of iterations =  3.0

     total cpu time spent up to now is        6.8 secs

     total energy              =    -501.64544907 Ry
     estimated scf accuracy    <       0.00000773 Ry

     iteration # 16     ecut=    30.00 Ry     beta= 0.50
     Davidson diagonalization with overlap
     ethr =  3.02E-09,  avg # of iterations =  3.0

     total cpu time spent up to now is        6.9 secs

     total energy              =    -501.64544907 Ry
     estimated scf accuracy    <       0.00002157 Ry

     iteration # 17     ecut=    30.00 Ry     beta= 0.50
     Davidson diagonalization with overlap
     ethr =  3.02E-09,  avg # of iterations =  2.0

     total cpu time spent up to now is        7.0 secs

     total energy              =    -501.64545045 Ry
     estimated scf accuracy    <       0.00000172 Ry

     iteration # 18     ecut=    30.00 Ry     beta= 0.50
     Davidson diagonalization with overlap
     ethr =  6.73E-10,  avg # of iterations =  2.0

     total cpu time spent up to now is        7.1 secs

     End of self-consistent calculation

          k = 0.0000 0.0000 0.0000 ( 11060 PWs)   bands (ev):

    -5.2180  -4.2027  -4.1683  -4.0861  -3.9814  -3.8696  -3.7994  -3.1799
    -3.1175  -3.0588  -3.0180  -2.9646  -2.8452  -2.7786  -2.6986  -2.6600
    -2.5267  -2.4880  -2.3530  -1.9754  -1.7916  -1.7398  -1.6946  -1.6111
    -1.4148  -1.3580  -1.0257  -0.7809  -0.7306  -0.4328  -0.3929  -0.2330
     0.0624   0.0719   0.1646   0.2730   0.3605   0.4257   0.4863   0.5257
     0.5625   0.6047   0.6956   0.8788   0.9253   0.9849   1.0650   1.1777
     1.2275   1.2995   1.3654   1.4612   1.5212   1.5923   1.7852   1.8180
     1.9418   2.1373   2.1551   2.3050   2.3494   2.4686   2.5224   2.6158
     2.6698   2.7431   2.7943   2.8500   2.9961   3.0664   3.1598   3.2529
     3.3316   3.3413   3.4306   3.5184   3.5550   3.6029   3.8583   3.9178
     4.0354   4.2749   4.5236   4.6066   4.7027   4.7786   4.8089   4.9286
     4.9907   5.0275   5.1392   5.2163   5.2484   5.3778   5.4238   5.4946
     5.5910   5.6804   5.6966   5.7604   5.7969   5.8224   5.9099   5.9174
     6.0347   6.0778   6.1271   6.1920   6.2227   6.2591   6.3375   6.3520
     6.4193   6.4677   6.5205   6.5935   6.6324   6.6992   6.7593   6.7678
     6.8547   6.9429   6.9962   7.0426   7.1070   7.1933   7.2359   7.3961
     7.4081   7.4561   7.5738   7.6450   7.6904   7.7312   7.8032   7.8671
     7.9007   8.0034   8.0460   8.0996   8.1329   8.2029   8.3654   8.4284
     8.4780   8.4852   8.6342   8.6688   8.7275   8.7719   8.8351   8.9032
     8.9575   9.0934

     the Fermi energy is     7.3748 ev

!    total energy              =    -501.64545030 Ry
     estimated scf accuracy    <       0.00000044 Ry
     smearing contrib. (-TS)   =      -0.13006511 Ry
     internal energy E=F+TS    =    -501.51538518 Ry

     The total energy is F=E-TS. E is the sum of the following terms:
     one-electron contribution =     197.45685438 Ry
     hartree contribution      =      21.89119557 Ry
     xc contribution           =    -151.61471579 Ry
     ewald contribution        =    -569.24871934 Ry

     convergence has been achieved in  18 iterations

     Forces acting on atoms (cartesian axes, Ry/au):

     atom    1 type  1   force =    -0.00661961   -0.00502972   -0.02642989
     atom    2 type  1   force =     0.00392952    0.00877093    0.01989710
     atom    3 type  1   force =     0.00896442    0.00678519   -0.00085024
     atom    4 type  1   force =     0.02198835   -0.01818083    0.02489264
     atom    5 type  1   force =    -0.00022370    0.01439560    0.01221881
     atom    6 type  1   force =     0.02036628    0.03295491    0.01080148
     atom    7 type  1   force =    -0.00799835    0.01379014    0.00045585
     atom    8 type  1   force =    -0.00223170    0.00496800    0.00232118
     atom    9 type  1   force =    -0.01096908    0.03810551    0.01085527
     atom   10 type  1   force =     0.02872659    0.02235413   -0.03866118
     atom   11 type  1   force =     0.00002754    0.00642977   -0.01816219
     atom   12 type  1   force =     0.02940263    0.01543111   -0.04008419
     atom   13 type  1   force =    -0.00143263    0.02354525    0.00206325
     atom   14 type  1   force =     0.00553275   -0.00861400    0.02728276
     atom   15 type  1   force =    -0.00367233    0.02368686    0.00100137
     atom   16 type  1   force =    -0.04677003   -0.03315763    0.00757871
     atom   17 type  1   force =     0.04949895   -0.01608085   -0.01426370
     atom   18 type  1   force =    -0.01435605    0.02229228   -0.02350116
     atom   19 type  1   force =     0.00211143    0.02133774    0.01356734
     atom   20 type  1   force =    -0.01146636    0.00031974    0.00240959
     atom   21 type  1   force =    -0.02060654    0.00410843   -0.00067449
     atom   22 type  1   force =     0.00862181   -0.01256787   -0.00085311
     atom   23 type  1   force =    -0.01389235    0.01303413    0.03544107
     atom   24 type  1   force =     0.03518004   -0.03429556    0.04405283
     atom   25 type  1   force =    -0.00501869    0.02959045   -0.00546524
     atom   26 type  1   force =     0.05212316    0.05478470   -0.04465362
     atom   27 type  1   force =     0.00427899   -0.01667453    0.02878841
     atom   28 type  1   force =     0.03861294   -0.03731929   -0.00430148
     atom   29 type  1   force =    -0.02329321   -0.01492232   -0.01179663
     atom   30 type  1   force =     0.00190346   -0.00119307   -0.06415410
     atom   31 type  1   force =     0.02671824    0.05962587   -0.03194957
     atom   32 type  1   force =    -0.03424583   -0.01796636   -0.00183344
     atom   33 type  1   force =     0.03181717    0.01284274    0.01394674
     atom   34 type  1   force =     0.01333875   -0.00059633    0.00153914
     atom   35 type  1   force =    -0.00984442   -0.01734328   -0.01258882
     atom   36 type  1   force =    -0.01135519    0.02317150    0.01919259
     atom   37 type  1   force =    -0.01875659   -0.00684495    0.01118514
     atom   38 type  1   force =     0.00219756   -0.01395766   -0.04072996
     atom   39 type  1   force =     0.02820671   -0.02273466    0.02533475
     atom   40 type  1   force =    -0.01349863   -0.01974847   -0.02476604
     atom   41 type  1   force =     0.00961818    0.00595560    0.00673095
     atom   42 type  1   force =     0.00656510    0.01399570    0.00029185
     atom   43 type  1   force =    -0.01237812   -0.00921102   -0.01941064
     atom   44 type  1   force =    -0.04275039    0.02584792    0.02206339
     atom   45 type  1   force =     0.03061860    0.03974784   -0.03150083
     atom   46 type  1   force =     0.06898296    0.01367118   -0.03804810
     atom   47 type  1   force =    -0.08785373   -0.05213765    0.00861229
     atom   48 type  1   force =     0.02963540    0.00910773   -0.00670944
     atom   49 type  1   force =     0.00334325    0.00193980    0.00848022
     atom   50 type  1   force =    -0.03404895   -0.01612466    0.01962098
     atom   51 type  1   force =    -0.01245896   -0.01827315   -0.00146562
     atom   52 type  1   force =    -0.01897357   -0.03500713    0.03957933
     atom   53 type  1   force =     0.02012971   -0.01707968   -0.02854337
     atom   54 type  1   force =    -0.03909277   -0.03526487    0.01050241
     atom   55 type  1   force =    -0.00926912    0.01657433   -0.00449933
     atom   56 type  1   force =    -0.00805350   -0.01948219    0.04504995
     atom   57 type  1   force =    -0.00643058   -0.01141575    0.02738519
     atom   58 type  1   force =    -0.03111036   -0.01230628    0.01547491
     atom   59 type  1   force =     0.01288826   -0.01972694    0.00846400
     atom   60 type  1   force =    -0.01450802    0.00128101    0.00076320
     atom   61 type  1   force =    -0.04260331    0.00419910    0.01132877
     atom   62 type  1   force =     0.04358138    0.01564305    0.00535146
     atom   63 type  1   force =     0.01673750   -0.01617027   -0.01009042
     atom   64 type  1   force =    -0.03986497   -0.04086128    0.00146192

     Total force =     0.334839     Total SCF correction =     0.001340


     Computing stress (Cartesian axis) and pressure

          total   stress  (Ry/bohr**3)                   (kbar)     P=      -22.34
  -0.00005204   0.00002144  -0.00003621           -7.66        3.15       -5.33
   0.00002144  -0.00015508   0.00005675            3.15      -22.81        8.35
  -0.00003621   0.00005675  -0.00024842           -5.33        8.35      -36.54

 
     init_run     :      1.10s CPU      4.93s WALL (       1 calls)
     electrons    :      1.91s CPU      2.06s WALL (       1 calls)
     forces       :      0.03s CPU      0.04s WALL (       1 calls)
     stress       :      0.15s CPU      0.15s WALL (       1 calls)

     Called by init_run:
     wfcinit      :      0.55s CPU      4.21s WALL (       1 calls)
                                        4.21s GPU  (       1 calls)
     potinit      :      0.05s CPU      0.15s WALL (       1 calls)
     hinit0       :      0.47s CPU      0.50s WALL (       1 calls)

     Called by electrons:
     c_bands      :      1.14s CPU      1.21s WALL (      19 calls)
     sum_band     :      0.38s CPU      0.43s WALL (      19 calls)
     v_of_rho     :      0.18s CPU      0.28s WALL (      19 calls)
     mix_rho      :      0.17s CPU      0.19s WALL (      19 calls)

     Called by c_bands:
     init_us_2    :      0.07s CPU      0.07s WALL (      39 calls)
     init_us_2:gp :      0.07s CPU      0.07s WALL (      39 calls)
     regterg      :      0.98s CPU      1.04s WALL (      19 calls)

     Called by *egterg:
     rdiaghg      :      0.40s CPU      1.16s WALL (      84 calls)
                                        1.14s GPU  (      84 calls)
     h_psi        :      0.95s CPU      3.90s WALL (      86 calls)
                                        3.90s GPU  (      86 calls)
     g_psi        :      0.00s CPU      0.00s WALL (      66 calls)
                                        0.00s GPU  (      66 calls)

     Called by h_psi:
     h_psi:calbec :      0.52s CPU      3.38s WALL (      86 calls)
                                        3.38s GPU  (      86 calls)
     vloc_psi     :      0.38s CPU      0.45s WALL (      86 calls)
                                        0.45s GPU  (      86 calls)
     add_vuspsi   :      0.03s CPU      0.05s WALL (      86 calls)
                                        0.05s GPU  (      86 calls)

     General routines
     calbec       :      0.52s CPU      3.39s WALL (      91 calls)
     fft          :      0.62s CPU      0.75s WALL (     159 calls)
                                        0.13s GPU  (     101 calls)
     ffts         :      0.05s CPU      0.05s WALL (      19 calls)
     fftw         :      0.47s CPU      0.61s WALL (    2005 calls)
                                        0.53s GPU  (    2005 calls)
 
     Parallel routines
 
     PWSCF        :      3.24s CPU      7.28s WALL

 
   This run was terminated on:  10:50:35  10May2023            

=------------------------------------------------------------------------------=
   JOB DONE.
=------------------------------------------------------------------------------=
