An instance of this daemon is already running
An instance of this daemon is already running

     Program PWSCF v.7.1 starts on 10May2023 at 10:39: 7 

     This program is part of the open-source Quantum ESPRESSO suite
     for quantum simulation of materials; please cite
         "P. Giannozzi et al., J. Phys.:Condens. Matter 21 395502 (2009);
         "P. Giannozzi et al., J. Phys.:Condens. Matter 29 465901 (2017);
         "P. Giannozzi et al., J. Chem. Phys. 152 154105 (2020);
          URL http://www.quantum-espresso.org", 
     in publications or presentations arising from this work. More details at
     http://www.quantum-espresso.org/quote

     Parallel version (MPI & OpenMP), running on       4 processor cores
     Number of MPI processes:                 4
     Threads/MPI process:                     1

     MPI processes distributed on     1 nodes
     753597 MiB available memory on the printing compute node when the environment starts
 
     Reading input from pw-si-10.in
Warning: card &CELL ignored
Warning: card / ignored

     Current dimensions of program PWSCF are:
     Max number of different atomic species (ntypx) = 10
     Max number of k-points (npk) =  40000
     Max angular momentum in pseudopotentials (lmaxx) =  4

     IMPORTANT: XC functional enforced from input :
     Exchange-correlation= PBE
                           (   1   4   3   4   0   0   0)
     Any further DFT definition will be discarded
     Please, verify this is what you really want


     gamma-point specific algorithms are used
 
     K-points division:     npool     =       2
     R & G space division:  proc/nbgrp/npool/nimage =       2
     Subspace diagonalization in iterative solution of the eigenvalue problem:
     a serial algorithm will be used

     Message from routine divide_et_impera:
     suboptimal parallelization: some nodes have no k-points
 
     Parallelization info
     --------------------
     sticks:   dense  smooth     PW     G-vecs:    dense   smooth      PW
     Min        1916    1916    502                89532    89532   12150
     Max        1917    1917    503                89537    89537   12153
     Sum        3833    3833   1005               179069   179069   24303
 
     Using Slab Decomposition
 


     bravais-lattice index     =            0
     lattice parameter (alat)  =      20.0573  a.u.
     unit-cell volume          =    8068.9831 (a.u.)^3
     number of atoms/cell      =           64
     number of atomic types    =            1
     number of electrons       =       256.00
     number of Kohn-Sham states=          154
     kinetic-energy cutoff     =      30.0000  Ry
     charge density cutoff     =     120.0000  Ry
     scf convergence threshold =      1.0E-06
     mixing beta               =       0.5000
     number of iterations used =            8  plain     mixing
     Exchange-correlation= PBE
                           (   1   4   3   4   0   0   0)

     GPU acceleration is ACTIVE.
     GPU-aware MPI enabled

     Message from routine print_cuda_info:
     High GPU oversubscription detected. Are you sure this is what you want?

     celldm(1)=  20.057321  celldm(2)=   0.000000  celldm(3)=   0.000000
     celldm(4)=   0.000000  celldm(5)=   0.000000  celldm(6)=   0.000000

     crystal axes: (cart. coord. in units of alat)
               a(1) = (   1.000000   0.000000   0.000000 )  
               a(2) = (   0.000000   1.000000   0.000000 )  
               a(3) = (   0.000000   0.000000   1.000000 )  

     reciprocal axes: (cart. coord. in units 2 pi/alat)
               b(1) = (  1.000000  0.000000  0.000000 )  
               b(2) = (  0.000000  1.000000  0.000000 )  
               b(3) = (  0.000000  0.000000  1.000000 )  


     PseudoPot. # 1 for Si read from file:
     /home/ppiaggi/pseudos/Si_ONCV_PBE_sr.upf
     MD5 check sum: 8553c464762ac42b85b1eed164b4d029
     Pseudo is Norm-conserving, Zval =  4.0
     Generated using ONCVPSP code by D. R. Hamann
     Using radial grid of 1510 points,  4 beta functions with: 
                l(1) =   0
                l(2) =   0
                l(3) =   1
                l(4) =   1

     atomic species   valence    mass     pseudopotential
        Si             4.00    28.08500     Si( 1.00)

     No symmetry found



   Cartesian axes

     site n.     atom                  positions (alat units)
         1           Si  tau(   1) = (   0.9928370   0.7481250   0.5692570  )
         2           Si  tau(   2) = (   0.3547000   0.5718750   0.8956760  )
         3           Si  tau(   3) = (   0.4638850   0.6956350   0.6601930  )
         4           Si  tau(   4) = (   0.1585880   0.9873790   0.1938120  )
         5           Si  tau(   5) = (   0.1633810   0.0745567   0.9762970  )
         6           Si  tau(   6) = (   0.5341350   0.2313010   0.7695270  )
         7           Si  tau(   7) = (   0.6299390   0.8353920   0.5546110  )
         8           Si  tau(   8) = (   0.9783820   0.0977357   0.2326040  )
         9           Si  tau(   9) = (   0.7215010   0.2257580   0.2521390  )
        10           Si  tau(  10) = (   0.0831394   0.4650950   0.9817490  )
        11           Si  tau(  11) = (   0.0184138   0.5724820   0.7067260  )
        12           Si  tau(  12) = (   0.2433960   0.4922610   0.5030260  )
        13           Si  tau(  13) = (   0.3154480   0.9350650   0.8675530  )
        14           Si  tau(  14) = (   0.9078850   0.5878960   0.8988720  )
        15           Si  tau(  15) = (   0.3188010   0.1359080   0.7070140  )
        16           Si  tau(  16) = (   0.1189090   0.3626430   0.6488400  )
        17           Si  tau(  17) = (   0.6050770   0.1644670   0.4857390  )
        18           Si  tau(  18) = (   0.7961840   0.9085400   0.0087123  )
        19           Si  tau(  19) = (   0.7462620   0.7180700   0.2833070  )
        20           Si  tau(  20) = (   0.3603530   0.8078510   0.2240360  )
        21           Si  tau(  21) = (   0.6263280   0.1271510   0.9748000  )
        22           Si  tau(  22) = (   0.8487800   0.8992420   0.2993940  )
        23           Si  tau(  23) = (   0.9750740   0.8900040   0.7985400  )
        24           Si  tau(  24) = (   0.8998350   0.5242960   0.3098580  )
        25           Si  tau(  25) = (   0.6040040   0.4604720   0.6794210  )
        26           Si  tau(  26) = (   0.1413970   0.7390560   0.8754720  )
        27           Si  tau(  27) = (   0.6546480   0.0375558   0.6961190  )
        28           Si  tau(  28) = (   0.9417930   0.7340530   0.0815644  )
        29           Si  tau(  29) = (   0.5411220   0.3858740   0.2377460  )
        30           Si  tau(  30) = (   0.9932790   0.3797580   0.1400480  )
        31           Si  tau(  31) = (   0.2024670   0.8909030   0.5010050  )
        32           Si  tau(  32) = (   0.5858620   0.5978680   0.8941680  )
        33           Si  tau(  33) = (   0.2383840   0.6135720   0.0956872  )
        34           Si  tau(  34) = (   0.7654940   0.4036260   0.8715300  )
        35           Si  tau(  35) = (   0.3665870   0.2323180   0.1258910  )
        36           Si  tau(  36) = (   0.1541100   0.2750010   0.2493580  )
        37           Si  tau(  37) = (   0.2837060   0.4597920   0.2561980  )
        38           Si  tau(  38) = (   0.8755850   0.1762290   0.4433360  )
        39           Si  tau(  39) = (   0.0533534   0.6194920   0.4066940  )
        40           Si  tau(  40) = (   0.4747830   0.4790110   0.4705850  )
        41           Si  tau(  41) = (   0.7839550   0.2590860   0.0523103  )
        42           Si  tau(  42) = (   0.3920100   0.9278610   0.6299360  )
        43           Si  tau(  43) = (   0.5382890   0.9809800   0.3915590  )
        44           Si  tau(  44) = (   0.3189240   0.0326111   0.3527570  )
        45           Si  tau(  45) = (   0.5573420   0.8752540   0.8613400  )
        46           Si  tau(  46) = (   0.6627370   0.0202236   0.2169890  )
        47           Si  tau(  47) = (   0.1044850   0.7811980   0.2394570  )
        48           Si  tau(  48) = (   0.8681910   0.3383980   0.6526760  )
        49           Si  tau(  49) = (   0.2347750   0.6781110   0.6640150  )
        50           Si  tau(  50) = (   0.7515230   0.4191780   0.4322370  )
        51           Si  tau(  51) = (   0.3678860   0.3427110   0.9146110  )
        52           Si  tau(  52) = (   0.4074060   0.9967720   0.0854457  )
        53           Si  tau(  53) = (   0.7464600   0.7268670   0.7963840  )
        54           Si  tau(  54) = (   0.5992720   0.7751940   0.1098090  )
        55           Si  tau(  55) = (   0.3711100   0.2433040   0.5151940  )
        56           Si  tau(  56) = (   0.7832230   0.6220750   0.5788190  )
        57           Si  tau(  57) = (   0.1275710   0.2045790   0.4769790  )
        58           Si  tau(  58) = (   0.8438510   0.9282730   0.5248120  )
        59           Si  tau(  59) = (   0.5321280   0.6959610   0.3707790  )
        60           Si  tau(  60) = (   0.0670998   0.0502145   0.6310160  )
        61           Si  tau(  61) = (   0.6832870   0.5344660   0.0960342  )
        62           Si  tau(  62) = (   0.1700640   0.2790390   0.8684120  )
        63           Si  tau(  63) = (   0.8683210   0.1149770   0.7398150  )
        64           Si  tau(  64) = (   0.9145130   0.0882759   0.9894030  )

     number of k points=     1  Fermi-Dirac smearing, width (Ry)=  0.0100
                       cart. coord. in units 2pi/alat
        k(    1) = (   0.0000000   0.0000000   0.0000000), wk =   2.0000000

     Dense  grid:    89535 G-vectors     FFT dimensions: (  72,  72,  72)

     Estimated max dynamical RAM per process >     143.94 MB

     Estimated total dynamical RAM >     553.90 MB

     Initial potential from superposition of free atoms

     starting charge     255.9608, renormalised to     256.0000
     Starting wfcs are  256 randomized atomic wfcs

     total cpu time spent up to now is        5.0 secs

     Self-consistent Calculation

     iteration #  1     ecut=    30.00 Ry     beta= 0.50
     Davidson diagonalization with overlap
     ethr =  1.00E-02,  avg # of iterations =  3.0

     Threshold (ethr) on eigenvalues was too large:
     Diagonalizing with lowered threshold

     Davidson diagonalization with overlap
     ethr =  4.13E-04,  avg # of iterations =  4.0

     total cpu time spent up to now is        5.3 secs

     total energy              =    -501.10283466 Ry
     estimated scf accuracy    <       1.29628078 Ry

     iteration #  2     ecut=    30.00 Ry     beta= 0.50
     Davidson diagonalization with overlap
     ethr =  5.06E-04,  avg # of iterations =  5.0

     total cpu time spent up to now is        5.4 secs

     total energy              =    -500.68648417 Ry
     estimated scf accuracy    <       5.43252405 Ry

     iteration #  3     ecut=    30.00 Ry     beta= 0.50
     Davidson diagonalization with overlap
     ethr =  5.06E-04,  avg # of iterations =  4.0

     total cpu time spent up to now is        5.6 secs

     total energy              =    -501.18777794 Ry
     estimated scf accuracy    <       2.20779407 Ry

     iteration #  4     ecut=    30.00 Ry     beta= 0.50
     Davidson diagonalization with overlap
     ethr =  5.06E-04,  avg # of iterations =  2.0

     total cpu time spent up to now is        5.7 secs

     total energy              =    -501.36730785 Ry
     estimated scf accuracy    <       0.58817989 Ry

     iteration #  5     ecut=    30.00 Ry     beta= 0.50
     Davidson diagonalization with overlap
     ethr =  2.30E-04,  avg # of iterations =  2.0

     total cpu time spent up to now is        5.7 secs

     total energy              =    -501.39508005 Ry
     estimated scf accuracy    <       0.28045401 Ry

     iteration #  6     ecut=    30.00 Ry     beta= 0.50
     Davidson diagonalization with overlap
     ethr =  1.10E-04,  avg # of iterations =  2.0

     total cpu time spent up to now is        5.8 secs

     total energy              =    -501.42418317 Ry
     estimated scf accuracy    <       0.14170330 Ry

     iteration #  7     ecut=    30.00 Ry     beta= 0.50
     Davidson diagonalization with overlap
     ethr =  5.54E-05,  avg # of iterations =  2.0

     total cpu time spent up to now is        5.9 secs

     total energy              =    -501.43411153 Ry
     estimated scf accuracy    <       0.02457335 Ry

     iteration #  8     ecut=    30.00 Ry     beta= 0.50
     Davidson diagonalization with overlap
     ethr =  9.60E-06,  avg # of iterations = 16.0

     total cpu time spent up to now is        6.1 secs

     total energy              =    -501.43680309 Ry
     estimated scf accuracy    <       0.02185220 Ry

     iteration #  9     ecut=    30.00 Ry     beta= 0.50
     Davidson diagonalization with overlap
     ethr =  8.54E-06,  avg # of iterations =  1.0

     total cpu time spent up to now is        6.2 secs

     total energy              =    -501.43862211 Ry
     estimated scf accuracy    <       0.00209443 Ry

     iteration # 10     ecut=    30.00 Ry     beta= 0.50
     Davidson diagonalization with overlap
     ethr =  8.18E-07,  avg # of iterations =  3.0

     total cpu time spent up to now is        6.3 secs

     total energy              =    -501.43884924 Ry
     estimated scf accuracy    <       0.00177520 Ry

     iteration # 11     ecut=    30.00 Ry     beta= 0.50
     Davidson diagonalization with overlap
     ethr =  6.93E-07,  avg # of iterations =  2.0

     total cpu time spent up to now is        6.4 secs

     total energy              =    -501.43898887 Ry
     estimated scf accuracy    <       0.00075595 Ry

     iteration # 12     ecut=    30.00 Ry     beta= 0.50
     Davidson diagonalization with overlap
     ethr =  2.95E-07,  avg # of iterations =  2.0

     total cpu time spent up to now is        6.5 secs

     total energy              =    -501.43905993 Ry
     estimated scf accuracy    <       0.00017997 Ry

     iteration # 13     ecut=    30.00 Ry     beta= 0.50
     Davidson diagonalization with overlap
     ethr =  7.03E-08,  avg # of iterations =  2.0

     total cpu time spent up to now is        6.6 secs

     total energy              =    -501.43907395 Ry
     estimated scf accuracy    <       0.00012434 Ry

     iteration # 14     ecut=    30.00 Ry     beta= 0.50
     Davidson diagonalization with overlap
     ethr =  4.86E-08,  avg # of iterations =  2.0

     total cpu time spent up to now is        6.7 secs

     total energy              =    -501.43908534 Ry
     estimated scf accuracy    <       0.00003470 Ry

     iteration # 15     ecut=    30.00 Ry     beta= 0.50
     Davidson diagonalization with overlap
     ethr =  1.36E-08,  avg # of iterations =  2.0

     total cpu time spent up to now is        6.8 secs

     total energy              =    -501.43908784 Ry
     estimated scf accuracy    <       0.00001120 Ry

     iteration # 16     ecut=    30.00 Ry     beta= 0.50
     Davidson diagonalization with overlap
     ethr =  4.38E-09,  avg # of iterations =  2.0

     total cpu time spent up to now is        6.9 secs

     total energy              =    -501.43908892 Ry
     estimated scf accuracy    <       0.00001475 Ry

     iteration # 17     ecut=    30.00 Ry     beta= 0.50
     Davidson diagonalization with overlap
     ethr =  4.38E-09,  avg # of iterations =  2.0

     total cpu time spent up to now is        7.0 secs

     total energy              =    -501.43908971 Ry
     estimated scf accuracy    <       0.00000176 Ry

     iteration # 18     ecut=    30.00 Ry     beta= 0.50
     Davidson diagonalization with overlap
     ethr =  6.88E-10,  avg # of iterations =  4.0

     total cpu time spent up to now is        7.1 secs

     total energy              =    -501.43908988 Ry
     estimated scf accuracy    <       0.00000493 Ry

     iteration # 19     ecut=    30.00 Ry     beta= 0.50
     Davidson diagonalization with overlap
     ethr =  6.88E-10,  avg # of iterations =  2.0

     total cpu time spent up to now is        7.2 secs

     End of self-consistent calculation

          k = 0.0000 0.0000 0.0000 ( 11168 PWs)   bands (ev):

    -5.3072  -4.4163  -4.2582  -4.2161  -4.0314  -3.9307  -3.7517  -3.3256
    -3.2462  -3.1858  -3.0930  -3.0022  -2.8480  -2.7884  -2.6598  -2.6106
    -2.5261  -2.4908  -2.3633  -2.0463  -1.9042  -1.8305  -1.6626  -1.6085
    -1.4375  -1.3761  -1.0538  -0.8024  -0.6323  -0.6025  -0.4635  -0.3607
    -0.2529   0.0211   0.0580   0.1733   0.2605   0.2997   0.3651   0.3759
     0.4222   0.5434   0.6475   0.7440   0.7673   0.8002   0.9438   1.0648
     1.0879   1.1967   1.3051   1.4072   1.5160   1.5565   1.7717   1.8121
     1.8257   1.9358   1.9896   2.0620   2.1412   2.3399   2.4372   2.4887
     2.5441   2.6601   2.7294   2.7494   2.8846   2.9092   3.0638   3.1190
     3.1600   3.2150   3.3116   3.4322   3.5044   3.5853   3.6550   3.8798
     4.0288   4.2710   4.3476   4.4677   4.5643   4.6577   4.7006   4.8272
     4.8611   4.8869   4.9507   5.0555   5.0731   5.1548   5.3084   5.3659
     5.4076   5.5037   5.5466   5.5717   5.6296   5.6912   5.7871   5.8079
     5.8956   5.9538   5.9963   6.0806   6.1321   6.1526   6.1941   6.2625
     6.3269   6.3962   6.4269   6.4738   6.5881   6.6265   6.6504   6.7204
     6.7828   6.8431   6.8750   6.9314   6.9943   7.0156   7.0968   7.1800
     7.1988   7.3252   7.3600   7.3838   7.4634   7.5086   7.5968   7.6467
     7.7015   7.7481   7.8296   7.8872   7.9415   8.0239   8.0628   8.1207
     8.2082   8.3024   8.3464   8.4467   8.5387   8.6033   8.6229   8.6610
     8.7436   8.8092

     the Fermi energy is     7.1981 ev

!    total energy              =    -501.43908993 Ry
     estimated scf accuracy    <       0.00000038 Ry
     smearing contrib. (-TS)   =      -0.15240652 Ry
     internal energy E=F+TS    =    -501.28668341 Ry

     The total energy is F=E-TS. E is the sum of the following terms:
     one-electron contribution =     192.27502060 Ry
     hartree contribution      =      23.06869499 Ry
     xc contribution           =    -150.90254772 Ry
     ewald contribution        =    -565.72785128 Ry

     convergence has been achieved in  19 iterations

     Forces acting on atoms (cartesian axes, Ry/au):

     atom    1 type  1   force =    -0.01524778    0.02509610    0.00692099
     atom    2 type  1   force =     0.01886302    0.00357396   -0.00172072
     atom    3 type  1   force =     0.01096184    0.00530166    0.02533006
     atom    4 type  1   force =     0.03844370    0.02668102   -0.01030566
     atom    5 type  1   force =    -0.02402000   -0.01749180    0.00267327
     atom    6 type  1   force =    -0.03662635    0.03318459    0.01168389
     atom    7 type  1   force =    -0.00141829   -0.02334256   -0.01889210
     atom    8 type  1   force =    -0.03911425    0.02234574    0.00421405
     atom    9 type  1   force =    -0.01256104    0.02952613    0.07539424
     atom   10 type  1   force =     0.04985453    0.04670589   -0.06021974
     atom   11 type  1   force =     0.00643082   -0.01942261    0.00350402
     atom   12 type  1   force =     0.00014707    0.01393770   -0.01781647
     atom   13 type  1   force =    -0.01301779   -0.00951623    0.00551016
     atom   14 type  1   force =     0.00327503    0.00296491    0.01064209
     atom   15 type  1   force =     0.02371692   -0.00923832    0.02577750
     atom   16 type  1   force =    -0.03363873    0.00223179    0.01712721
     atom   17 type  1   force =     0.00741222    0.01045341    0.02834870
     atom   18 type  1   force =    -0.04308718   -0.04039389    0.01360458
     atom   19 type  1   force =    -0.02149113   -0.08935919   -0.00870948
     atom   20 type  1   force =     0.03228245   -0.01086696    0.00411676
     atom   21 type  1   force =    -0.03167437   -0.04218742   -0.00157084
     atom   22 type  1   force =     0.01177983    0.06563725    0.00847705
     atom   23 type  1   force =     0.00984258   -0.01496076   -0.00091758
     atom   24 type  1   force =    -0.05518874   -0.02488611   -0.07451032
     atom   25 type  1   force =     0.01120639    0.01005581    0.01136251
     atom   26 type  1   force =     0.01341117    0.02252131   -0.01198425
     atom   27 type  1   force =    -0.01991773    0.00133028   -0.00110503
     atom   28 type  1   force =    -0.00801413    0.01063935   -0.02266595
     atom   29 type  1   force =    -0.01743425    0.00492023    0.01102446
     atom   30 type  1   force =    -0.08152880   -0.02662196    0.08894155
     atom   31 type  1   force =    -0.02120279   -0.00478636    0.01216422
     atom   32 type  1   force =    -0.01080278   -0.01438665    0.00049476
     atom   33 type  1   force =    -0.01191059    0.00752262   -0.01820075
     atom   34 type  1   force =    -0.01944145    0.00996860   -0.00629204
     atom   35 type  1   force =     0.00269739    0.01040946   -0.00205515
     atom   36 type  1   force =     0.01960202   -0.01168742    0.00556375
     atom   37 type  1   force =     0.02381794   -0.00599496    0.03000840
     atom   38 type  1   force =    -0.00540599    0.00017382   -0.02687063
     atom   39 type  1   force =     0.08733491    0.04447290   -0.00063802
     atom   40 type  1   force =     0.00272469   -0.00401549   -0.03022692
     atom   41 type  1   force =     0.04808902    0.06501405   -0.04232754
     atom   42 type  1   force =     0.00191881   -0.00047106    0.03225675
     atom   43 type  1   force =    -0.02023719   -0.03211685   -0.00366015
     atom   44 type  1   force =    -0.01912367   -0.00654354    0.01751148
     atom   45 type  1   force =     0.00764452    0.01032054    0.01256781
     atom   46 type  1   force =     0.01749501   -0.04311906   -0.02433794
     atom   47 type  1   force =    -0.01157625   -0.05879602    0.00357693
     atom   48 type  1   force =     0.01029200    0.00274228   -0.00542470
     atom   49 type  1   force =     0.00218710    0.01454598    0.01941413
     atom   50 type  1   force =    -0.01140246   -0.02227440    0.03007849
     atom   51 type  1   force =     0.05858663   -0.00536643    0.01045668
     atom   52 type  1   force =     0.02633618    0.00215895   -0.02734678
     atom   53 type  1   force =     0.02853026    0.00353603   -0.01140228
     atom   54 type  1   force =    -0.00091585    0.01987052   -0.03865629
     atom   55 type  1   force =     0.01249419    0.01194711   -0.01599432
     atom   56 type  1   force =    -0.01688096    0.00464676    0.01788489
     atom   57 type  1   force =    -0.01058848    0.01529650   -0.02284203
     atom   58 type  1   force =     0.01246177   -0.00197548   -0.01808611
     atom   59 type  1   force =    -0.00077795    0.00330293    0.01785026
     atom   60 type  1   force =     0.00139230   -0.03961075    0.00076920
     atom   61 type  1   force =    -0.01542265    0.00172353    0.00324551
     atom   62 type  1   force =    -0.02565775    0.00462848   -0.03871042
     atom   63 type  1   force =     0.01368848    0.00369749    0.01713296
     atom   64 type  1   force =     0.04040659    0.00634657   -0.02213913

     Total force =     0.363902     Total SCF correction =     0.001203


     Computing stress (Cartesian axis) and pressure

          total   stress  (Ry/bohr**3)                   (kbar)     P=      -31.91
  -0.00021224   0.00008046   0.00000545          -31.22       11.84        0.80
   0.00008046  -0.00016775  -0.00002229           11.84      -24.68       -3.28
   0.00000545  -0.00002229  -0.00027076            0.80       -3.28      -39.83

 
     init_run     :      1.08s CPU      4.97s WALL (       1 calls)
     electrons    :      1.98s CPU      2.14s WALL (       1 calls)
     forces       :      0.03s CPU      0.04s WALL (       1 calls)
     stress       :      0.15s CPU      0.15s WALL (       1 calls)

     Called by init_run:
     wfcinit      :      0.54s CPU      4.25s WALL (       1 calls)
                                        4.25s GPU  (       1 calls)
     potinit      :      0.05s CPU      0.15s WALL (       1 calls)
     hinit0       :      0.47s CPU      0.50s WALL (       1 calls)

     Called by electrons:
     c_bands      :      1.17s CPU      1.24s WALL (      20 calls)
     sum_band     :      0.40s CPU      0.45s WALL (      20 calls)
     v_of_rho     :      0.19s CPU      0.30s WALL (      20 calls)
     mix_rho      :      0.18s CPU      0.20s WALL (      20 calls)

     Called by c_bands:
     init_us_2    :      0.07s CPU      0.08s WALL (      41 calls)
     init_us_2:gp :      0.07s CPU      0.08s WALL (      41 calls)
     regterg      :      0.99s CPU      1.05s WALL (      20 calls)

     Called by *egterg:
     rdiaghg      :      0.39s CPU      1.16s WALL (      83 calls)
                                        1.15s GPU  (      83 calls)
     h_psi        :      0.96s CPU      3.94s WALL (      85 calls)
                                        3.94s GPU  (      85 calls)
     g_psi        :      0.00s CPU      0.00s WALL (      64 calls)
                                        0.00s GPU  (      64 calls)

     Called by h_psi:
     h_psi:calbec :      0.52s CPU      3.41s WALL (      85 calls)
                                        3.41s GPU  (      85 calls)
     vloc_psi     :      0.39s CPU      0.47s WALL (      85 calls)
                                        0.46s GPU  (      85 calls)
     add_vuspsi   :      0.03s CPU      0.05s WALL (      85 calls)
                                        0.05s GPU  (      85 calls)

     General routines
     calbec       :      0.52s CPU      3.42s WALL (      90 calls)
     fft          :      0.62s CPU      0.76s WALL (     167 calls)
                                        0.14s GPU  (     106 calls)
     ffts         :      0.05s CPU      0.05s WALL (      20 calls)
     fftw         :      0.49s CPU      0.64s WALL (    2096 calls)
                                        0.55s GPU  (    2096 calls)
 
     Parallel routines
 
     PWSCF        :      3.29s CPU      7.39s WALL

 
   This run was terminated on:  10:39:15  10May2023            

=------------------------------------------------------------------------------=
   JOB DONE.
=------------------------------------------------------------------------------=
