An instance of this daemon is already running
An instance of this daemon is already running

     Program PWSCF v.7.1 starts on 10May2023 at 10:43:29 

     This program is part of the open-source Quantum ESPRESSO suite
     for quantum simulation of materials; please cite
         "P. Giannozzi et al., J. Phys.:Condens. Matter 21 395502 (2009);
         "P. Giannozzi et al., J. Phys.:Condens. Matter 29 465901 (2017);
         "P. Giannozzi et al., J. Chem. Phys. 152 154105 (2020);
          URL http://www.quantum-espresso.org", 
     in publications or presentations arising from this work. More details at
     http://www.quantum-espresso.org/quote

     Parallel version (MPI & OpenMP), running on       4 processor cores
     Number of MPI processes:                 4
     Threads/MPI process:                     1

     MPI processes distributed on     1 nodes
     753575 MiB available memory on the printing compute node when the environment starts
 
     Reading input from pw-si-37.in
Warning: card &CELL ignored
Warning: card / ignored

     Current dimensions of program PWSCF are:
     Max number of different atomic species (ntypx) = 10
     Max number of k-points (npk) =  40000
     Max angular momentum in pseudopotentials (lmaxx) =  4

     IMPORTANT: XC functional enforced from input :
     Exchange-correlation= PBE
                           (   1   4   3   4   0   0   0)
     Any further DFT definition will be discarded
     Please, verify this is what you really want


     gamma-point specific algorithms are used
 
     K-points division:     npool     =       2
     R & G space division:  proc/nbgrp/npool/nimage =       2
     Subspace diagonalization in iterative solution of the eigenvalue problem:
     a serial algorithm will be used

     Message from routine divide_et_impera:
     suboptimal parallelization: some nodes have no k-points
 
     Parallelization info
     --------------------
     sticks:   dense  smooth     PW     G-vecs:    dense   smooth      PW
     Min        1945    1945    516                91383    91383   12416
     Max        1948    1948    517                91388    91388   12421
     Sum        3893    3893   1033               182771   182771   24837
 
     Using Slab Decomposition
 


     bravais-lattice index     =            0
     lattice parameter (alat)  =      20.1904  a.u.
     unit-cell volume          =    8230.6343 (a.u.)^3
     number of atoms/cell      =           64
     number of atomic types    =            1
     number of electrons       =       256.00
     number of Kohn-Sham states=          154
     kinetic-energy cutoff     =      30.0000  Ry
     charge density cutoff     =     120.0000  Ry
     scf convergence threshold =      1.0E-06
     mixing beta               =       0.5000
     number of iterations used =            8  plain     mixing
     Exchange-correlation= PBE
                           (   1   4   3   4   0   0   0)

     GPU acceleration is ACTIVE.
     GPU-aware MPI enabled

     Message from routine print_cuda_info:
     High GPU oversubscription detected. Are you sure this is what you want?

     celldm(1)=  20.190377  celldm(2)=   0.000000  celldm(3)=   0.000000
     celldm(4)=   0.000000  celldm(5)=   0.000000  celldm(6)=   0.000000

     crystal axes: (cart. coord. in units of alat)
               a(1) = (   1.000000   0.000000   0.000000 )  
               a(2) = (   0.000000   1.000000   0.000000 )  
               a(3) = (   0.000000   0.000000   1.000000 )  

     reciprocal axes: (cart. coord. in units 2 pi/alat)
               b(1) = (  1.000000  0.000000  0.000000 )  
               b(2) = (  0.000000  1.000000  0.000000 )  
               b(3) = (  0.000000  0.000000  1.000000 )  


     PseudoPot. # 1 for Si read from file:
     /home/ppiaggi/pseudos/Si_ONCV_PBE_sr.upf
     MD5 check sum: 8553c464762ac42b85b1eed164b4d029
     Pseudo is Norm-conserving, Zval =  4.0
     Generated using ONCVPSP code by D. R. Hamann
     Using radial grid of 1510 points,  4 beta functions with: 
                l(1) =   0
                l(2) =   0
                l(3) =   1
                l(4) =   1

     atomic species   valence    mass     pseudopotential
        Si             4.00    28.08500     Si( 1.00)

     No symmetry found



   Cartesian axes

     site n.     atom                  positions (alat units)
         1           Si  tau(   1) = (   0.9045040   0.4061250   0.0830020  )
         2           Si  tau(   2) = (   0.1186350   0.0035149   0.2497190  )
         3           Si  tau(   3) = (   0.3463250   0.4723200   0.8376040  )
         4           Si  tau(   4) = (   0.8064910   0.7129890   0.8854820  )
         5           Si  tau(   5) = (   0.9843310   0.5997740   0.6845590  )
         6           Si  tau(   6) = (   0.5464070   0.3029640   0.5186880  )
         7           Si  tau(   7) = (   0.2238650   0.1492720   0.7147260  )
         8           Si  tau(   8) = (   0.9163250   0.5297500   0.2989800  )
         9           Si  tau(   9) = (   0.7850620   0.4197840   0.4112310  )
        10           Si  tau(  10) = (   0.5892530   0.5609610   0.4962240  )
        11           Si  tau(  11) = (   0.7104130   0.9037900   0.9118660  )
        12           Si  tau(  12) = (   0.3556010   0.7141150   0.1316640  )
        13           Si  tau(  13) = (   0.8442370   0.0639218   0.2862440  )
        14           Si  tau(  14) = (   0.7037540   0.2775860   0.7075540  )
        15           Si  tau(  15) = (   0.1637570   0.8079510   0.8636890  )
        16           Si  tau(  16) = (   0.9408380   0.8043630   0.5159410  )
        17           Si  tau(  17) = (   0.1303580   0.7459590   0.0717457  )
        18           Si  tau(  18) = (   0.6203930   0.1113340   0.4033110  )
        19           Si  tau(  19) = (   0.4001930   0.7551940   0.4012580  )
        20           Si  tau(  20) = (   0.4941220   0.9081730   0.8196760  )
        21           Si  tau(  21) = (   0.2738940   0.7072100   0.6892290  )
        22           Si  tau(  22) = (   0.3420320   0.3172970   0.4223800  )
        23           Si  tau(  23) = (   0.0385851   0.0092303   0.4994330  )
        24           Si  tau(  24) = (   0.1438920   0.3075670   0.5218810  )
        25           Si  tau(  25) = (   0.8300170   0.2352770   0.9208020  )
        26           Si  tau(  26) = (   0.4875750   0.6611010   0.7779730  )
        27           Si  tau(  27) = (   0.0591651   0.6459670   0.3859340  )
        28           Si  tau(  28) = (   0.6690820   0.9387310   0.1386780  )
        29           Si  tau(  29) = (   0.9625140   0.8350630   0.7597330  )
        30           Si  tau(  30) = (   0.8457180   0.7255810   0.1866180  )
        31           Si  tau(  31) = (   0.4022520   0.8857490   0.5883730  )
        32           Si  tau(  32) = (   0.7525400   0.8728990   0.4154180  )
        33           Si  tau(  33) = (   0.6437590   0.8177390   0.5922110  )
        34           Si  tau(  34) = (   0.3435270   0.5255570   0.3558650  )
        35           Si  tau(  35) = (   0.7007150   0.1615120   0.0792862  )
        36           Si  tau(  36) = (   0.1883790   0.8083660   0.3158520  )
        37           Si  tau(  37) = (   0.7014570   0.5331990   0.0647405  )
        38           Si  tau(  38) = (   0.3168020   0.4183030   0.0497894  )
        39           Si  tau(  39) = (   0.9367460   0.9118420   0.1295160  )
        40           Si  tau(  40) = (   0.4542190   0.9074340   0.2043320  )
        41           Si  tau(  41) = (   0.2025980   0.5429300   0.5540800  )
        42           Si  tau(  42) = (   0.9910940   0.5926720   0.0047465  )
        43           Si  tau(  43) = (   0.6543430   0.6833960   0.2965620  )
        44           Si  tau(  44) = (   0.1674560   0.0575983   0.9113890  )
        45           Si  tau(  45) = (   0.1728780   0.5054790   0.1987850  )
        46           Si  tau(  46) = (   0.3575840   0.9385810   0.9933970  )
        47           Si  tau(  47) = (   0.3967570   0.2876190   0.7197460  )
        48           Si  tau(  48) = (   0.9396500   0.0162083   0.9378620  )
        49           Si  tau(  49) = (   0.8695700   0.4115240   0.6302700  )
        50           Si  tau(  50) = (   0.6436010   0.0596038   0.6313750  )
        51           Si  tau(  51) = (   0.6016760   0.4165300   0.9169560  )
        52           Si  tau(  52) = (   0.0756500   0.3073490   0.2040070  )
        53           Si  tau(  53) = (   0.4707780   0.2376620   0.0549438  )
        54           Si  tau(  54) = (   0.8765640   0.0846309   0.7050760  )
        55           Si  tau(  55) = (   0.2138160   0.1724570   0.1057950  )
        56           Si  tau(  56) = (   0.3697420   0.0990165   0.2885460  )
        57           Si  tau(  57) = (   0.5046290   0.4732770   0.2043670  )
        58           Si  tau(  58) = (   0.0362815   0.2953600   0.7538430  )
        59           Si  tau(  59) = (   0.1257430   0.4980230   0.8219760  )
        60           Si  tau(  60) = (   0.9495570   0.2558040   0.3940880  )
        61           Si  tau(  61) = (   0.6940100   0.5755980   0.7157920  )
        62           Si  tau(  62) = (   0.6703380   0.3180190   0.2498300  )
        63           Si  tau(  63) = (   0.2647530   0.0274496   0.4936630  )
        64           Si  tau(  64) = (   0.5054280   0.1266630   0.8395960  )

     number of k points=     1  Fermi-Dirac smearing, width (Ry)=  0.0100
                       cart. coord. in units 2pi/alat
        k(    1) = (   0.0000000   0.0000000   0.0000000), wk =   2.0000000

     Dense  grid:    91386 G-vectors     FFT dimensions: (  72,  72,  72)

     Estimated max dynamical RAM per process >     146.52 MB

     Estimated total dynamical RAM >     563.75 MB

     Initial potential from superposition of free atoms

     starting charge     255.9608, renormalised to     256.0000
     Starting wfcs are  256 randomized atomic wfcs

     total cpu time spent up to now is        5.0 secs

     Self-consistent Calculation

     iteration #  1     ecut=    30.00 Ry     beta= 0.50
     Davidson diagonalization with overlap
     ethr =  1.00E-02,  avg # of iterations =  3.0

     Threshold (ethr) on eigenvalues was too large:
     Diagonalizing with lowered threshold

     Davidson diagonalization with overlap
     ethr =  3.93E-04,  avg # of iterations =  4.0

     total cpu time spent up to now is        5.3 secs

     total energy              =    -501.36644517 Ry
     estimated scf accuracy    <       1.22134557 Ry

     iteration #  2     ecut=    30.00 Ry     beta= 0.50
     Davidson diagonalization with overlap
     ethr =  4.77E-04,  avg # of iterations =  5.0

     total cpu time spent up to now is        5.4 secs

     total energy              =    -500.86188966 Ry
     estimated scf accuracy    <       5.91479451 Ry

     iteration #  3     ecut=    30.00 Ry     beta= 0.50
     Davidson diagonalization with overlap
     ethr =  4.77E-04,  avg # of iterations =  4.0

     total cpu time spent up to now is        5.5 secs

     total energy              =    -501.41786930 Ry
     estimated scf accuracy    <       1.81907954 Ry

     iteration #  4     ecut=    30.00 Ry     beta= 0.50
     Davidson diagonalization with overlap
     ethr =  4.77E-04,  avg # of iterations =  2.0

     total cpu time spent up to now is        5.6 secs

     total energy              =    -501.53326770 Ry
     estimated scf accuracy    <       0.67900239 Ry

     iteration #  5     ecut=    30.00 Ry     beta= 0.50
     Davidson diagonalization with overlap
     ethr =  2.65E-04,  avg # of iterations =  2.0

     total cpu time spent up to now is        5.7 secs

     total energy              =    -501.56754131 Ry
     estimated scf accuracy    <       0.39328558 Ry

     iteration #  6     ecut=    30.00 Ry     beta= 0.50
     Davidson diagonalization with overlap
     ethr =  1.54E-04,  avg # of iterations =  2.0

     total cpu time spent up to now is        5.8 secs

     total energy              =    -501.60962164 Ry
     estimated scf accuracy    <       0.08083962 Ry

     iteration #  7     ecut=    30.00 Ry     beta= 0.50
     Davidson diagonalization with overlap
     ethr =  3.16E-05,  avg # of iterations = 16.0

     total cpu time spent up to now is        6.0 secs

     total energy              =    -501.61747911 Ry
     estimated scf accuracy    <       0.00657820 Ry

     iteration #  8     ecut=    30.00 Ry     beta= 0.50
     Davidson diagonalization with overlap
     c_bands:  1 eigenvalues not converged
     ethr =  2.57E-06,  avg # of iterations = 20.0

     total cpu time spent up to now is        6.2 secs

     total energy              =    -501.61763193 Ry
     estimated scf accuracy    <       0.02097036 Ry

     iteration #  9     ecut=    30.00 Ry     beta= 0.50
     Davidson diagonalization with overlap
     ethr =  2.57E-06,  avg # of iterations =  9.0

     total cpu time spent up to now is        6.3 secs

     total energy              =    -501.61932913 Ry
     estimated scf accuracy    <       0.00308912 Ry

     iteration # 10     ecut=    30.00 Ry     beta= 0.50
     Davidson diagonalization with overlap
     ethr =  1.21E-06,  avg # of iterations =  2.0

     total cpu time spent up to now is        6.4 secs

     total energy              =    -501.61957193 Ry
     estimated scf accuracy    <       0.00072736 Ry

     iteration # 11     ecut=    30.00 Ry     beta= 0.50
     Davidson diagonalization with overlap
     ethr =  2.84E-07,  avg # of iterations =  3.0

     total cpu time spent up to now is        6.5 secs

     total energy              =    -501.61959763 Ry
     estimated scf accuracy    <       0.00105930 Ry

     iteration # 12     ecut=    30.00 Ry     beta= 0.50
     Davidson diagonalization with overlap
     ethr =  2.84E-07,  avg # of iterations =  2.0

     total cpu time spent up to now is        6.6 secs

     total energy              =    -501.61968202 Ry
     estimated scf accuracy    <       0.00018151 Ry

     iteration # 13     ecut=    30.00 Ry     beta= 0.50
     Davidson diagonalization with overlap
     ethr =  7.09E-08,  avg # of iterations =  2.0

     total cpu time spent up to now is        6.7 secs

     total energy              =    -501.61970035 Ry
     estimated scf accuracy    <       0.00005253 Ry

     iteration # 14     ecut=    30.00 Ry     beta= 0.50
     Davidson diagonalization with overlap
     ethr =  2.05E-08,  avg # of iterations =  2.0

     total cpu time spent up to now is        6.8 secs

     total energy              =    -501.61970383 Ry
     estimated scf accuracy    <       0.00003217 Ry

     iteration # 15     ecut=    30.00 Ry     beta= 0.50
     Davidson diagonalization with overlap
     ethr =  1.26E-08,  avg # of iterations =  2.0

     total cpu time spent up to now is        6.9 secs

     total energy              =    -501.61970596 Ry
     estimated scf accuracy    <       0.00000654 Ry

     iteration # 16     ecut=    30.00 Ry     beta= 0.50
     Davidson diagonalization with overlap
     ethr =  2.55E-09,  avg # of iterations =  3.0

     total cpu time spent up to now is        7.0 secs

     total energy              =    -501.61970684 Ry
     estimated scf accuracy    <       0.00000619 Ry

     iteration # 17     ecut=    30.00 Ry     beta= 0.50
     Davidson diagonalization with overlap
     ethr =  2.42E-09,  avg # of iterations =  2.0

     total cpu time spent up to now is        7.1 secs

     total energy              =    -501.61970733 Ry
     estimated scf accuracy    <       0.00000102 Ry

     iteration # 18     ecut=    30.00 Ry     beta= 0.50
     Davidson diagonalization with overlap
     ethr =  3.99E-10,  avg # of iterations =  4.0

     total cpu time spent up to now is        7.2 secs

     End of self-consistent calculation

          k = 0.0000 0.0000 0.0000 ( 11444 PWs)   bands (ev):

    -5.4397  -4.4852  -4.4098  -4.3566  -4.2118  -4.0579  -3.9036  -3.5170
    -3.3795  -3.3167  -3.2170  -3.1528  -3.1143  -3.0721  -2.9805  -2.9249
    -2.8386  -2.7852  -2.4618  -2.3002  -2.1895  -2.0632  -1.8697  -1.8108
    -1.7100  -1.5954  -1.2018  -1.0268  -0.9010  -0.8768  -0.7277  -0.6364
    -0.5297  -0.3373  -0.2920  -0.1398  -0.0569  -0.0135   0.0366   0.1052
     0.1801   0.2391   0.3627   0.4629   0.6208   0.6927   0.7564   0.7927
     0.8837   1.0119   1.1483   1.2099   1.2661   1.3842   1.4599   1.5807
     1.6980   1.7161   1.7970   1.9239   2.0923   2.2477   2.3241   2.4126
     2.4597   2.5684   2.6253   2.6938   2.7285   2.7640   2.8235   2.8937
     2.9651   3.0470   3.1052   3.1706   3.2421   3.3757   3.4398   3.5578
     3.8803   4.0988   4.1533   4.2415   4.3352   4.3884   4.4450   4.5326
     4.6065   4.6499   4.7032   4.7964   4.8270   4.9396   4.9525   5.0323
     5.1306   5.1932   5.2712   5.3177   5.3539   5.4017   5.4552   5.5135
     5.5193   5.5981   5.6410   5.7515   5.8289   5.9253   5.9413   5.9850
     6.0303   6.0694   6.1471   6.1626   6.2166   6.3479   6.3867   6.4594
     6.5028   6.5160   6.6001   6.7708   6.8171   6.9004   6.9375   7.0100
     7.0507   7.0720   7.1669   7.1933   7.2605   7.3032   7.3422   7.3945
     7.5107   7.6093   7.6811   7.7110   7.8042   7.8152   7.9108   7.9523
     8.0190   8.2074   8.2142   8.2531   8.3756   8.4013   8.4681   8.6031
     8.6612   8.7028

     the Fermi energy is     7.0080 ev

!    total energy              =    -501.61970688 Ry
     estimated scf accuracy    <       0.00000072 Ry
     smearing contrib. (-TS)   =      -0.15047982 Ry
     internal energy E=F+TS    =    -501.46922705 Ry

     The total energy is F=E-TS. E is the sum of the following terms:
     one-electron contribution =     183.98052025 Ry
     hartree contribution      =      24.98248900 Ry
     xc contribution           =    -150.82267689 Ry
     ewald contribution        =    -559.60955941 Ry

     convergence has been achieved in  18 iterations

     Forces acting on atoms (cartesian axes, Ry/au):

     atom    1 type  1   force =    -0.02056796    0.00535093    0.00582663
     atom    2 type  1   force =    -0.01996977   -0.00000778    0.02043124
     atom    3 type  1   force =     0.02670694    0.00566066    0.00636307
     atom    4 type  1   force =     0.02649917   -0.05575733   -0.00864069
     atom    5 type  1   force =     0.00140504    0.01825074   -0.02787387
     atom    6 type  1   force =    -0.01228604    0.01825582    0.02933103
     atom    7 type  1   force =    -0.00538904    0.02385622   -0.04478206
     atom    8 type  1   force =    -0.00525485    0.00164113   -0.09646622
     atom    9 type  1   force =    -0.01919743   -0.02893813    0.05804272
     atom   10 type  1   force =     0.00305800   -0.00591501    0.00073287
     atom   11 type  1   force =    -0.02008473    0.01960098    0.02073192
     atom   12 type  1   force =    -0.03094406    0.00064127    0.00942036
     atom   13 type  1   force =    -0.02562698   -0.00860266    0.01228065
     atom   14 type  1   force =     0.01099463    0.00545320    0.04253819
     atom   15 type  1   force =     0.00225237    0.01108886   -0.02227183
     atom   16 type  1   force =     0.01403503   -0.01690161    0.02376174
     atom   17 type  1   force =     0.01474701    0.01442048    0.02303743
     atom   18 type  1   force =    -0.00372513    0.02330370   -0.01252205
     atom   19 type  1   force =     0.00553217   -0.01276768   -0.03916080
     atom   20 type  1   force =     0.01902201   -0.03521602   -0.00612337
     atom   21 type  1   force =     0.04163849    0.01901948    0.00190815
     atom   22 type  1   force =     0.00527736   -0.02868116   -0.00919705
     atom   23 type  1   force =    -0.00159525    0.01788966   -0.01695683
     atom   24 type  1   force =    -0.02353950    0.01132183    0.03184419
     atom   25 type  1   force =     0.02358678    0.00483042   -0.03712340
     atom   26 type  1   force =    -0.01347957   -0.00500211   -0.01005273
     atom   27 type  1   force =     0.05923221    0.03922911    0.07361354
     atom   28 type  1   force =     0.00824790    0.00876805   -0.01660602
     atom   29 type  1   force =    -0.01230879   -0.01701093   -0.00941612
     atom   30 type  1   force =    -0.01606425   -0.04875071   -0.00039082
     atom   31 type  1   force =     0.03111054   -0.03942730    0.04246244
     atom   32 type  1   force =     0.01142169   -0.00308892   -0.04807357
     atom   33 type  1   force =    -0.04957427    0.00608146    0.02973025
     atom   34 type  1   force =    -0.00225648    0.03372499   -0.00511429
     atom   35 type  1   force =    -0.03404245    0.00024572    0.03177703
     atom   36 type  1   force =     0.03109502   -0.01550881   -0.02270504
     atom   37 type  1   force =     0.02418999    0.02006436    0.02766000
     atom   38 type  1   force =     0.03638484   -0.01598650    0.00865613
     atom   39 type  1   force =     0.04036804    0.01587555    0.01820858
     atom   40 type  1   force =     0.01402490   -0.00865720   -0.00051444
     atom   41 type  1   force =    -0.03516832    0.00474952   -0.01469413
     atom   42 type  1   force =    -0.02292781    0.00021600   -0.02833367
     atom   43 type  1   force =    -0.01866245    0.00608998    0.02560483
     atom   44 type  1   force =     0.00294107   -0.01772342    0.02295855
     atom   45 type  1   force =     0.01364068    0.00479581    0.00337253
     atom   46 type  1   force =    -0.01045171    0.00166088   -0.00349668
     atom   47 type  1   force =     0.01442253   -0.01532624   -0.00830265
     atom   48 type  1   force =    -0.02538288    0.01599452   -0.03584850
     atom   49 type  1   force =    -0.01655275    0.01612291   -0.00835126
     atom   50 type  1   force =     0.00841712   -0.01998138    0.01801025
     atom   51 type  1   force =    -0.03388455   -0.04018045   -0.04671430
     atom   52 type  1   force =    -0.04588239    0.01730996    0.02563955
     atom   53 type  1   force =     0.01530084   -0.00894894   -0.03311664
     atom   54 type  1   force =    -0.00545002   -0.00459191    0.00658509
     atom   55 type  1   force =     0.03607266   -0.01329272    0.00293922
     atom   56 type  1   force =    -0.01251927    0.03318744    0.01478654
     atom   57 type  1   force =     0.02372041    0.00182889   -0.02506120
     atom   58 type  1   force =     0.00541711    0.00787397   -0.01940356
     atom   59 type  1   force =    -0.01481165    0.00019205    0.01023635
     atom   60 type  1   force =     0.03828286   -0.01225305   -0.01616533
     atom   61 type  1   force =    -0.01770663    0.00661687    0.01888186
     atom   62 type  1   force =    -0.01772793   -0.01828139   -0.01039859
     atom   63 type  1   force =    -0.02819438    0.02035833    0.00955995
     atom   64 type  1   force =     0.01218385    0.03522760    0.00694483

     Total force =     0.330530     Total SCF correction =     0.001736


     Computing stress (Cartesian axis) and pressure

          total   stress  (Ry/bohr**3)                   (kbar)     P=      -33.42
  -0.00021545   0.00003021   0.00003881          -31.69        4.44        5.71
   0.00003021  -0.00020589   0.00000523            4.44      -30.29        0.77
   0.00003881   0.00000523  -0.00026028            5.71        0.77      -38.29

 
     init_run     :      1.08s CPU      4.92s WALL (       1 calls)
     electrons    :      2.02s CPU      2.20s WALL (       1 calls)
     forces       :      0.04s CPU      0.04s WALL (       1 calls)
     stress       :      0.16s CPU      0.16s WALL (       1 calls)

     Called by init_run:
     wfcinit      :      0.53s CPU      4.21s WALL (       1 calls)
                                        4.21s GPU  (       1 calls)
     potinit      :      0.06s CPU      0.15s WALL (       1 calls)
     hinit0       :      0.47s CPU      0.50s WALL (       1 calls)

     Called by electrons:
     c_bands      :      1.25s CPU      1.33s WALL (      19 calls)
     sum_band     :      0.37s CPU      0.43s WALL (      19 calls)
     v_of_rho     :      0.19s CPU      0.28s WALL (      19 calls)
     mix_rho      :      0.18s CPU      0.19s WALL (      19 calls)

     Called by c_bands:
     init_us_2    :      0.07s CPU      0.07s WALL (      39 calls)
     init_us_2:gp :      0.07s CPU      0.07s WALL (      39 calls)
     regterg      :      1.09s CPU      1.16s WALL (      19 calls)

     Called by *egterg:
     rdiaghg      :      0.48s CPU      1.23s WALL (     107 calls)
                                        1.21s GPU  (     107 calls)
     h_psi        :      0.95s CPU      3.92s WALL (     109 calls)
                                        3.92s GPU  (     109 calls)
     g_psi        :      0.00s CPU      0.00s WALL (      89 calls)
                                        0.00s GPU  (      89 calls)

     Called by h_psi:
     h_psi:calbec :      0.50s CPU      3.38s WALL (     109 calls)
                                        3.38s GPU  (     109 calls)
     vloc_psi     :      0.39s CPU      0.46s WALL (     109 calls)
                                        0.46s GPU  (     109 calls)
     add_vuspsi   :      0.04s CPU      0.06s WALL (     109 calls)
                                        0.06s GPU  (     109 calls)

     General routines
     calbec       :      0.51s CPU      3.39s WALL (     114 calls)
     fft          :      0.63s CPU      0.75s WALL (     159 calls)
                                        0.13s GPU  (     101 calls)
     ffts         :      0.05s CPU      0.05s WALL (      19 calls)
     fftw         :      0.46s CPU      0.62s WALL (    2047 calls)
                                        0.54s GPU  (    2047 calls)
 
     Parallel routines
 
     PWSCF        :      3.35s CPU      7.41s WALL

 
   This run was terminated on:  10:43:36  10May2023            

=------------------------------------------------------------------------------=
   JOB DONE.
=------------------------------------------------------------------------------=
