An instance of this daemon is already running
An instance of this daemon is already running

     Program PWSCF v.7.1 starts on 10May2023 at 10:47:31 

     This program is part of the open-source Quantum ESPRESSO suite
     for quantum simulation of materials; please cite
         "P. Giannozzi et al., J. Phys.:Condens. Matter 21 395502 (2009);
         "P. Giannozzi et al., J. Phys.:Condens. Matter 29 465901 (2017);
         "P. Giannozzi et al., J. Chem. Phys. 152 154105 (2020);
          URL http://www.quantum-espresso.org", 
     in publications or presentations arising from this work. More details at
     http://www.quantum-espresso.org/quote

     Parallel version (MPI & OpenMP), running on       4 processor cores
     Number of MPI processes:                 4
     Threads/MPI process:                     1

     MPI processes distributed on     1 nodes
     753543 MiB available memory on the printing compute node when the environment starts
 
     Reading input from pw-si-62.in
Warning: card &CELL ignored
Warning: card / ignored

     Current dimensions of program PWSCF are:
     Max number of different atomic species (ntypx) = 10
     Max number of k-points (npk) =  40000
     Max angular momentum in pseudopotentials (lmaxx) =  4

     IMPORTANT: XC functional enforced from input :
     Exchange-correlation= PBE
                           (   1   4   3   4   0   0   0)
     Any further DFT definition will be discarded
     Please, verify this is what you really want


     gamma-point specific algorithms are used
 
     K-points division:     npool     =       2
     R & G space division:  proc/nbgrp/npool/nimage =       2
     Subspace diagonalization in iterative solution of the eigenvalue problem:
     a serial algorithm will be used

     Message from routine divide_et_impera:
     suboptimal parallelization: some nodes have no k-points
 
     Parallelization info
     --------------------
     sticks:   dense  smooth     PW     G-vecs:    dense   smooth      PW
     Min        1879    1879    497                86959    86959   11851
     Max        1882    1882    500                86966    86966   11852
     Sum        3761    3761    997               173925   173925   23703
 
     Using Slab Decomposition
 


     bravais-lattice index     =            0
     lattice parameter (alat)  =      19.8604  a.u.
     unit-cell volume          =    7833.6509 (a.u.)^3
     number of atoms/cell      =           64
     number of atomic types    =            1
     number of electrons       =       256.00
     number of Kohn-Sham states=          154
     kinetic-energy cutoff     =      30.0000  Ry
     charge density cutoff     =     120.0000  Ry
     scf convergence threshold =      1.0E-06
     mixing beta               =       0.5000
     number of iterations used =            8  plain     mixing
     Exchange-correlation= PBE
                           (   1   4   3   4   0   0   0)

     GPU acceleration is ACTIVE.
     GPU-aware MPI enabled

     Message from routine print_cuda_info:
     High GPU oversubscription detected. Are you sure this is what you want?

     celldm(1)=  19.860404  celldm(2)=   0.000000  celldm(3)=   0.000000
     celldm(4)=   0.000000  celldm(5)=   0.000000  celldm(6)=   0.000000

     crystal axes: (cart. coord. in units of alat)
               a(1) = (   1.000000   0.000000   0.000000 )  
               a(2) = (   0.000000   1.000000   0.000000 )  
               a(3) = (   0.000000   0.000000   1.000000 )  

     reciprocal axes: (cart. coord. in units 2 pi/alat)
               b(1) = (  1.000000  0.000000  0.000000 )  
               b(2) = (  0.000000  1.000000  0.000000 )  
               b(3) = (  0.000000  0.000000  1.000000 )  


     PseudoPot. # 1 for Si read from file:
     /home/ppiaggi/pseudos/Si_ONCV_PBE_sr.upf
     MD5 check sum: 8553c464762ac42b85b1eed164b4d029
     Pseudo is Norm-conserving, Zval =  4.0
     Generated using ONCVPSP code by D. R. Hamann
     Using radial grid of 1510 points,  4 beta functions with: 
                l(1) =   0
                l(2) =   0
                l(3) =   1
                l(4) =   1

     atomic species   valence    mass     pseudopotential
        Si             4.00    28.08500     Si( 1.00)

     No symmetry found



   Cartesian axes

     site n.     atom                  positions (alat units)
         1           Si  tau(   1) = (   0.6125710   0.5627630   0.0950607  )
         2           Si  tau(   2) = (   0.5115890   0.5494200   0.4692580  )
         3           Si  tau(   3) = (   0.8233250   0.7243740   0.5404390  )
         4           Si  tau(   4) = (   0.5407650   0.1090520   0.5548150  )
         5           Si  tau(   5) = (   0.8312880   0.7217030   0.0427908  )
         6           Si  tau(   6) = (   0.0397094   0.6275520   0.5883960  )
         7           Si  tau(   7) = (   0.3671070   0.2990540   0.0140794  )
         8           Si  tau(   8) = (   0.8127160   0.9742020   0.3414520  )
         9           Si  tau(   9) = (   0.3520000   0.7610930   0.2903820  )
        10           Si  tau(  10) = (   0.8945610   0.1973200   0.3091500  )
        11           Si  tau(  11) = (   0.4326510   0.7877790   0.0362958  )
        12           Si  tau(  12) = (   0.8473450   0.5241280   0.8437530  )
        13           Si  tau(  13) = (   0.8136650   0.9236530   0.6415620  )
        14           Si  tau(  14) = (   0.6395610   0.6605370   0.8556900  )
        15           Si  tau(  15) = (   0.0770884   0.3977610   0.6142110  )
        16           Si  tau(  16) = (   0.6496920   0.6435330   0.6308850  )
        17           Si  tau(  17) = (   0.8538770   0.7374460   0.2674470  )
        18           Si  tau(  18) = (   0.7000240   0.1493220   0.7021460  )
        19           Si  tau(  19) = (   0.0895720   0.7998080   0.3852670  )
        20           Si  tau(  20) = (   0.1852310   0.6189150   0.9284940  )
        21           Si  tau(  21) = (   0.4105010   0.3695130   0.3084410  )
        22           Si  tau(  22) = (   0.0619390   0.3520250   0.8874720  )
        23           Si  tau(  23) = (   0.9065590   0.8819390   0.8706520  )
        24           Si  tau(  24) = (   0.1724530   0.8969330   0.8848770  )
        25           Si  tau(  25) = (   0.1726670   0.5863030   0.1568130  )
        26           Si  tau(  26) = (   0.4002510   0.5004460   0.1060630  )
        27           Si  tau(  27) = (   0.1410550   0.2332280   0.0977783  )
        28           Si  tau(  28) = (   0.0964270   0.7997800   0.1409350  )
        29           Si  tau(  29) = (   0.6450020   0.8520910   0.0611469  )
        30           Si  tau(  30) = (   0.5056050   0.1509510   0.2462120  )
        31           Si  tau(  31) = (   0.4671460   0.8341060   0.6409970  )
        32           Si  tau(  32) = (   0.2540650   0.2315230   0.7950540  )
        33           Si  tau(  33) = (   0.5827000   0.1565700   0.9209490  )
        34           Si  tau(  34) = (   0.0198499   0.4090820   0.2217780  )
        35           Si  tau(  35) = (   0.9279940   0.0035952   0.0959732  )
        36           Si  tau(  36) = (   0.9991700   0.6756390   0.8100600  )
        37           Si  tau(  37) = (   0.5084930   0.3566530   0.5839030  )
        38           Si  tau(  38) = (   0.0985656   0.1354520   0.4086190  )
        39           Si  tau(  39) = (   0.3216610   0.0379856   0.5632610  )
        40           Si  tau(  40) = (   0.3947050   0.4613140   0.8107310  )
        41           Si  tau(  41) = (   0.9120880   0.2154860   0.7850000  )
        42           Si  tau(  42) = (   0.6243860   0.9138570   0.8093130  )
        43           Si  tau(  43) = (   0.8868060   0.3296320   0.5311450  )
        44           Si  tau(  44) = (   0.5770990   0.7128280   0.2956430  )
        45           Si  tau(  45) = (   0.2843330   0.6296110   0.4719880  )
        46           Si  tau(  46) = (   0.1714970   0.0232220   0.1915240  )
        47           Si  tau(  47) = (   0.6807380   0.0850974   0.1197490  )
        48           Si  tau(  48) = (   0.6120660   0.9126740   0.4430810  )
        49           Si  tau(  49) = (   0.8665540   0.5121570   0.3744890  )
        50           Si  tau(  50) = (   0.8140910   0.4486950   0.0580362  )
        51           Si  tau(  51) = (   0.3766490   0.0125315   0.0644908  )
        52           Si  tau(  52) = (   0.0601879   0.0509973   0.7255880  )
        53           Si  tau(  53) = (   0.4017270   0.9750430   0.3493080  )
        54           Si  tau(  54) = (   0.6669890   0.4515480   0.3055270  )
        55           Si  tau(  55) = (   0.2085540   0.8061590   0.6448980  )
        56           Si  tau(  56) = (   0.3746610   0.7040940   0.8215070  )
        57           Si  tau(  57) = (   0.6724080   0.2410420   0.3923790  )
        58           Si  tau(  58) = (   0.2237470   0.4390710   0.3791760  )
        59           Si  tau(  59) = (   0.5978830   0.3732190   0.8740410  )
        60           Si  tau(  60) = (   0.3822850   0.0368774   0.8164370  )
        61           Si  tau(  61) = (   0.2807050   0.2694000   0.5804380  )
        62           Si  tau(  62) = (   0.0193943   0.9685120   0.5207700  )
        63           Si  tau(  63) = (   0.7236470   0.4165500   0.6892900  )
        64           Si  tau(  64) = (   0.8525830   0.2360710   0.0107879  )

     number of k points=     1  Fermi-Dirac smearing, width (Ry)=  0.0100
                       cart. coord. in units 2pi/alat
        k(    1) = (   0.0000000   0.0000000   0.0000000), wk =   2.0000000

     Dense  grid:    86963 G-vectors     FFT dimensions: (  72,  72,  72)

     Estimated max dynamical RAM per process >     140.22 MB

     Estimated total dynamical RAM >     539.64 MB

     Initial potential from superposition of free atoms

     starting charge     255.9608, renormalised to     256.0000
     Starting wfcs are  256 randomized atomic wfcs

     total cpu time spent up to now is        5.0 secs

     Self-consistent Calculation

     iteration #  1     ecut=    30.00 Ry     beta= 0.50
     Davidson diagonalization with overlap
     ethr =  1.00E-02,  avg # of iterations =  3.0

     Threshold (ethr) on eigenvalues was too large:
     Diagonalizing with lowered threshold

     Davidson diagonalization with overlap
     ethr =  4.31E-04,  avg # of iterations =  4.0

     total cpu time spent up to now is        5.3 secs

     total energy              =    -501.16831165 Ry
     estimated scf accuracy    <       1.29414073 Ry

     iteration #  2     ecut=    30.00 Ry     beta= 0.50
     Davidson diagonalization with overlap
     ethr =  5.06E-04,  avg # of iterations =  5.0

     total cpu time spent up to now is        5.4 secs

     total energy              =    -500.35939621 Ry
     estimated scf accuracy    <      12.33110326 Ry

     iteration #  3     ecut=    30.00 Ry     beta= 0.50
     Davidson diagonalization with overlap
     ethr =  5.06E-04,  avg # of iterations =  4.0

     total cpu time spent up to now is        5.5 secs

     total energy              =    -501.40396620 Ry
     estimated scf accuracy    <       1.00523559 Ry

     iteration #  4     ecut=    30.00 Ry     beta= 0.50
     Davidson diagonalization with overlap
     ethr =  3.93E-04,  avg # of iterations =  2.0

     total cpu time spent up to now is        5.6 secs

     total energy              =    -501.47092202 Ry
     estimated scf accuracy    <       0.42585952 Ry

     iteration #  5     ecut=    30.00 Ry     beta= 0.50
     Davidson diagonalization with overlap
     ethr =  1.66E-04,  avg # of iterations =  2.0

     total cpu time spent up to now is        5.7 secs

     total energy              =    -501.49982968 Ry
     estimated scf accuracy    <       0.14867415 Ry

     iteration #  6     ecut=    30.00 Ry     beta= 0.50
     Davidson diagonalization with overlap
     ethr =  5.81E-05,  avg # of iterations =  3.0

     total cpu time spent up to now is        5.8 secs

     total energy              =    -501.51491948 Ry
     estimated scf accuracy    <       0.14351128 Ry

     iteration #  7     ecut=    30.00 Ry     beta= 0.50
     Davidson diagonalization with overlap
     ethr =  5.61E-05,  avg # of iterations =  1.0

     total cpu time spent up to now is        5.9 secs

     total energy              =    -501.52506434 Ry
     estimated scf accuracy    <       0.00912827 Ry

     iteration #  8     ecut=    30.00 Ry     beta= 0.50
     Davidson diagonalization with overlap
     ethr =  3.57E-06,  avg # of iterations = 15.0

     total cpu time spent up to now is        6.1 secs

     total energy              =    -501.52587645 Ry
     estimated scf accuracy    <       0.02198502 Ry

     iteration #  9     ecut=    30.00 Ry     beta= 0.50
     Davidson diagonalization with overlap
     ethr =  3.57E-06,  avg # of iterations =  3.0

     total cpu time spent up to now is        6.2 secs

     total energy              =    -501.52759990 Ry
     estimated scf accuracy    <       0.00240924 Ry

     iteration # 10     ecut=    30.00 Ry     beta= 0.50
     Davidson diagonalization with overlap
     ethr =  9.41E-07,  avg # of iterations =  2.0

     total cpu time spent up to now is        6.3 secs

     total energy              =    -501.52774291 Ry
     estimated scf accuracy    <       0.00141751 Ry

     iteration # 11     ecut=    30.00 Ry     beta= 0.50
     Davidson diagonalization with overlap
     ethr =  5.54E-07,  avg # of iterations =  2.0

     total cpu time spent up to now is        6.4 secs

     total energy              =    -501.52782765 Ry
     estimated scf accuracy    <       0.00050458 Ry

     iteration # 12     ecut=    30.00 Ry     beta= 0.50
     Davidson diagonalization with overlap
     ethr =  1.97E-07,  avg # of iterations =  2.0

     total cpu time spent up to now is        6.5 secs

     total energy              =    -501.52788337 Ry
     estimated scf accuracy    <       0.00033687 Ry

     iteration # 13     ecut=    30.00 Ry     beta= 0.50
     Davidson diagonalization with overlap
     ethr =  1.32E-07,  avg # of iterations =  1.0

     total cpu time spent up to now is        6.6 secs

     total energy              =    -501.52790722 Ry
     estimated scf accuracy    <       0.00003743 Ry

     iteration # 14     ecut=    30.00 Ry     beta= 0.50
     Davidson diagonalization with overlap
     ethr =  1.46E-08,  avg # of iterations =  3.0

     total cpu time spent up to now is        6.7 secs

     total energy              =    -501.52791168 Ry
     estimated scf accuracy    <       0.00002988 Ry

     iteration # 15     ecut=    30.00 Ry     beta= 0.50
     Davidson diagonalization with overlap
     ethr =  1.17E-08,  avg # of iterations =  2.0

     total cpu time spent up to now is        6.8 secs

     total energy              =    -501.52791299 Ry
     estimated scf accuracy    <       0.00000948 Ry

     iteration # 16     ecut=    30.00 Ry     beta= 0.50
     Davidson diagonalization with overlap
     ethr =  3.70E-09,  avg # of iterations =  3.0

     total cpu time spent up to now is        6.9 secs

     total energy              =    -501.52791440 Ry
     estimated scf accuracy    <       0.00000884 Ry

     iteration # 17     ecut=    30.00 Ry     beta= 0.50
     Davidson diagonalization with overlap
     ethr =  3.45E-09,  avg # of iterations =  1.0

     total cpu time spent up to now is        6.9 secs

     End of self-consistent calculation

          k = 0.0000 0.0000 0.0000 ( 10912 PWs)   bands (ev):

    -5.1064  -4.0512  -3.9627  -3.9416  -3.8406  -3.7271  -3.6930  -2.9320
    -2.9064  -2.8460  -2.7423  -2.7239  -2.6601  -2.5853  -2.5077  -2.4762
    -2.4551  -2.4026  -2.2517  -1.7053  -1.6085  -1.5216  -1.3659  -1.3447
    -1.2973  -1.1429  -1.0841  -0.5642  -0.3959  -0.2844  -0.1549  -0.0793
     0.0694   0.2028   0.3616   0.3978   0.5754   0.6060   0.6694   0.7063
     0.7840   0.8433   0.9942   1.0357   1.1620   1.2839   1.2948   1.3535
     1.4485   1.4566   1.5595   1.7110   1.7542   1.7979   1.9140   2.0530
     2.1220   2.2004   2.2766   2.3304   2.4511   2.5381   2.6834   2.8299
     2.8936   2.9425   3.0069   3.1106   3.1978   3.2282   3.2590   3.3838
     3.4245   3.4592   3.4828   3.5706   3.6941   3.7792   3.9054   3.9838
     4.0758   4.5190   4.7199   4.8296   4.8888   4.9434   5.0519   5.1352
     5.1792   5.2110   5.3190   5.3950   5.4386   5.5241   5.6000   5.6627
     5.7815   5.7911   5.9271   5.9623   5.9927   6.0520   6.0766   6.1263
     6.2294   6.2311   6.3132   6.3606   6.4276   6.4538   6.5144   6.6331
     6.6602   6.6996   6.7672   6.8555   6.9057   6.9539   6.9902   7.0514
     7.1645   7.2375   7.2568   7.2820   7.3291   7.3600   7.4774   7.4961
     7.5524   7.5711   7.7595   7.8008   7.8658   7.9115   7.9651   8.0300
     8.0846   8.1467   8.1857   8.2381   8.3024   8.4392   8.4475   8.5180
     8.6083   8.6765   8.6960   8.8036   8.8926   8.9369   8.9781   9.0273
     9.0727   9.1334

     the Fermi energy is     7.5519 ev

!    total energy              =    -501.52791429 Ry
     estimated scf accuracy    <       0.00000084 Ry
     smearing contrib. (-TS)   =      -0.14685094 Ry
     internal energy E=F+TS    =    -501.38106336 Ry

     The total energy is F=E-TS. E is the sum of the following terms:
     one-electron contribution =     205.76390886 Ry
     hartree contribution      =      19.47454894 Ry
     xc contribution           =    -151.60278514 Ry
     ewald contribution        =    -575.01673601 Ry

     convergence has been achieved in  17 iterations

     Forces acting on atoms (cartesian axes, Ry/au):

     atom    1 type  1   force =     0.02829511   -0.00109132    0.02293704
     atom    2 type  1   force =    -0.00381160    0.00832703   -0.01883222
     atom    3 type  1   force =     0.05127591   -0.00323286   -0.04452607
     atom    4 type  1   force =    -0.00774030    0.02568314   -0.02386513
     atom    5 type  1   force =    -0.01030543   -0.00520709   -0.02604047
     atom    6 type  1   force =    -0.00439336    0.00702188   -0.00319848
     atom    7 type  1   force =    -0.00917283   -0.03877669   -0.01775821
     atom    8 type  1   force =     0.01249108   -0.00207341   -0.02088053
     atom    9 type  1   force =    -0.01582136   -0.00636502   -0.02254553
     atom   10 type  1   force =    -0.00956086    0.00128654    0.00642106
     atom   11 type  1   force =    -0.01574169    0.00376567    0.01522696
     atom   12 type  1   force =    -0.02729081   -0.01481129    0.02530274
     atom   13 type  1   force =     0.01217240    0.02816081    0.01735403
     atom   14 type  1   force =     0.01149513   -0.01888522    0.00373198
     atom   15 type  1   force =     0.03525282    0.02245694    0.01544817
     atom   16 type  1   force =    -0.05408465   -0.04017560    0.01915837
     atom   17 type  1   force =     0.02387267    0.01737063    0.04157950
     atom   18 type  1   force =     0.04070535   -0.01012116    0.04947469
     atom   19 type  1   force =    -0.00758933   -0.01995982    0.00759722
     atom   20 type  1   force =    -0.00883055   -0.00769760   -0.00337278
     atom   21 type  1   force =     0.05859522   -0.01265831   -0.03375028
     atom   22 type  1   force =     0.02594514    0.01479949   -0.00403003
     atom   23 type  1   force =     0.01952577   -0.00463677    0.00085949
     atom   24 type  1   force =    -0.01323992    0.00127440   -0.02959808
     atom   25 type  1   force =     0.03107342   -0.01957056   -0.01374284
     atom   26 type  1   force =    -0.03465228    0.00384520    0.02224434
     atom   27 type  1   force =    -0.01237851    0.04398533   -0.01766532
     atom   28 type  1   force =    -0.01469297    0.01959390    0.00452487
     atom   29 type  1   force =     0.00599031    0.02886073   -0.01421910
     atom   30 type  1   force =    -0.02383248    0.01544672   -0.00371422
     atom   31 type  1   force =     0.00341414   -0.00356564    0.03964667
     atom   32 type  1   force =    -0.01426809   -0.00577149    0.03324912
     atom   33 type  1   force =    -0.02323202   -0.02169371   -0.01559772
     atom   34 type  1   force =     0.01548704    0.00021963   -0.00642970
     atom   35 type  1   force =     0.00110364    0.01394166   -0.00350765
     atom   36 type  1   force =     0.02930662    0.03108026   -0.01924194
     atom   37 type  1   force =     0.00354164   -0.02296303    0.00623782
     atom   38 type  1   force =     0.03241246    0.03134286   -0.04381698
     atom   39 type  1   force =    -0.00120888   -0.00305854   -0.00322643
     atom   40 type  1   force =     0.01191411   -0.00776551   -0.00442681
     atom   41 type  1   force =    -0.03482160   -0.01095186   -0.01937297
     atom   42 type  1   force =    -0.00693846    0.00365450    0.01208834
     atom   43 type  1   force =    -0.05743932   -0.00289047   -0.01234308
     atom   44 type  1   force =     0.01857812   -0.01134884   -0.00721791
     atom   45 type  1   force =     0.00662312    0.03594315    0.00348171
     atom   46 type  1   force =    -0.00393540    0.00893058    0.02237288
     atom   47 type  1   force =     0.00842954   -0.02266227   -0.01490504
     atom   48 type  1   force =    -0.00139392   -0.00910813   -0.01692056
     atom   49 type  1   force =     0.03144205    0.01697409    0.01573398
     atom   50 type  1   force =    -0.00079172    0.01699541    0.00339383
     atom   51 type  1   force =    -0.01901908    0.00596306   -0.00602327
     atom   52 type  1   force =     0.01938485   -0.00616456    0.03431783
     atom   53 type  1   force =     0.00326797    0.00876027    0.02528166
     atom   54 type  1   force =    -0.03897530    0.00727626   -0.01674152
     atom   55 type  1   force =     0.01133059    0.00892013    0.00559740
     atom   56 type  1   force =     0.00647643   -0.01626140    0.01704173
     atom   57 type  1   force =     0.00574167   -0.00415480    0.00760558
     atom   58 type  1   force =    -0.08425163   -0.01349908    0.01500381
     atom   59 type  1   force =     0.00385757    0.01580003    0.00807930
     atom   60 type  1   force =     0.00582189    0.00456051    0.02895313
     atom   61 type  1   force =    -0.00993060    0.00030287   -0.03677473
     atom   62 type  1   force =    -0.02195974   -0.03447818    0.00956909
     atom   63 type  1   force =     0.01026401    0.00709770   -0.02708253
     atom   64 type  1   force =     0.00621691   -0.05804117    0.01185379

     Total force =     0.299817     Total SCF correction =     0.001810


     Computing stress (Cartesian axis) and pressure

          total   stress  (Ry/bohr**3)                   (kbar)     P=      -21.17
  -0.00010414   0.00006465  -0.00000355          -15.32        9.51       -0.52
   0.00006465  -0.00010852  -0.00001237            9.51      -15.96       -1.82
  -0.00000355  -0.00001237  -0.00021903           -0.52       -1.82      -32.22

 
     init_run     :      1.08s CPU      4.93s WALL (       1 calls)
     electrons    :      1.78s CPU      1.93s WALL (       1 calls)
     forces       :      0.03s CPU      0.04s WALL (       1 calls)
     stress       :      0.15s CPU      0.15s WALL (       1 calls)

     Called by init_run:
     wfcinit      :      0.54s CPU      4.22s WALL (       1 calls)
                                        4.22s GPU  (       1 calls)
     potinit      :      0.06s CPU      0.15s WALL (       1 calls)
     hinit0       :      0.47s CPU      0.50s WALL (       1 calls)

     Called by electrons:
     c_bands      :      1.05s CPU      1.12s WALL (      18 calls)
     sum_band     :      0.36s CPU      0.41s WALL (      18 calls)
     v_of_rho     :      0.18s CPU      0.28s WALL (      18 calls)
     mix_rho      :      0.16s CPU      0.17s WALL (      18 calls)

     Called by c_bands:
     init_us_2    :      0.07s CPU      0.07s WALL (      37 calls)
     init_us_2:gp :      0.06s CPU      0.07s WALL (      37 calls)
     regterg      :      0.90s CPU      0.96s WALL (      18 calls)

     Called by *egterg:
     rdiaghg      :      0.38s CPU      1.12s WALL (      75 calls)
                                        1.11s GPU  (      75 calls)
     h_psi        :      0.90s CPU      3.87s WALL (      77 calls)
                                        3.86s GPU  (      77 calls)
     g_psi        :      0.00s CPU      0.00s WALL (      58 calls)
                                        0.00s GPU  (      58 calls)

     Called by h_psi:
     h_psi:calbec :      0.49s CPU      3.38s WALL (      77 calls)
                                        3.38s GPU  (      77 calls)
     vloc_psi     :      0.36s CPU      0.43s WALL (      77 calls)
                                        0.43s GPU  (      77 calls)
     add_vuspsi   :      0.03s CPU      0.05s WALL (      77 calls)
                                        0.05s GPU  (      77 calls)

     General routines
     calbec       :      0.50s CPU      3.39s WALL (      82 calls)
     fft          :      0.62s CPU      0.75s WALL (     151 calls)
                                        0.13s GPU  (      96 calls)
     ffts         :      0.04s CPU      0.05s WALL (      18 calls)
     fftw         :      0.44s CPU      0.58s WALL (    1890 calls)
                                        0.51s GPU  (    1890 calls)
 
     Parallel routines
 
     PWSCF        :      3.10s CPU      7.14s WALL

 
   This run was terminated on:  10:47:39  10May2023            

=------------------------------------------------------------------------------=
   JOB DONE.
=------------------------------------------------------------------------------=
