An instance of this daemon is already running
An instance of this daemon is already running

     Program PWSCF v.7.1 starts on 10May2023 at 10:40:15 

     This program is part of the open-source Quantum ESPRESSO suite
     for quantum simulation of materials; please cite
         "P. Giannozzi et al., J. Phys.:Condens. Matter 21 395502 (2009);
         "P. Giannozzi et al., J. Phys.:Condens. Matter 29 465901 (2017);
         "P. Giannozzi et al., J. Chem. Phys. 152 154105 (2020);
          URL http://www.quantum-espresso.org", 
     in publications or presentations arising from this work. More details at
     http://www.quantum-espresso.org/quote

     Parallel version (MPI & OpenMP), running on       4 processor cores
     Number of MPI processes:                 4
     Threads/MPI process:                     1

     MPI processes distributed on     1 nodes
     753565 MiB available memory on the printing compute node when the environment starts
 
     Reading input from pw-si-17.in
Warning: card &CELL ignored
Warning: card / ignored

     Current dimensions of program PWSCF are:
     Max number of different atomic species (ntypx) = 10
     Max number of k-points (npk) =  40000
     Max angular momentum in pseudopotentials (lmaxx) =  4

     IMPORTANT: XC functional enforced from input :
     Exchange-correlation= PBE
                           (   1   4   3   4   0   0   0)
     Any further DFT definition will be discarded
     Please, verify this is what you really want


     gamma-point specific algorithms are used
 
     K-points division:     npool     =       2
     R & G space division:  proc/nbgrp/npool/nimage =       2
     Subspace diagonalization in iterative solution of the eigenvalue problem:
     a serial algorithm will be used

     Message from routine divide_et_impera:
     suboptimal parallelization: some nodes have no k-points
 
     Parallelization info
     --------------------
     sticks:   dense  smooth     PW     G-vecs:    dense   smooth      PW
     Min        1903    1903    502                88514    88514   12054
     Max        1906    1906    503                88515    88515   12057
     Sum        3809    3809   1005               177029   177029   24111
 
     Using Slab Decomposition
 


     bravais-lattice index     =            0
     lattice parameter (alat)  =      19.9816  a.u.
     unit-cell volume          =    7977.9753 (a.u.)^3
     number of atoms/cell      =           64
     number of atomic types    =            1
     number of electrons       =       256.00
     number of Kohn-Sham states=          154
     kinetic-energy cutoff     =      30.0000  Ry
     charge density cutoff     =     120.0000  Ry
     scf convergence threshold =      1.0E-06
     mixing beta               =       0.5000
     number of iterations used =            8  plain     mixing
     Exchange-correlation= PBE
                           (   1   4   3   4   0   0   0)

     GPU acceleration is ACTIVE.
     GPU-aware MPI enabled

     Message from routine print_cuda_info:
     High GPU oversubscription detected. Are you sure this is what you want?

     celldm(1)=  19.981629  celldm(2)=   0.000000  celldm(3)=   0.000000
     celldm(4)=   0.000000  celldm(5)=   0.000000  celldm(6)=   0.000000

     crystal axes: (cart. coord. in units of alat)
               a(1) = (   1.000000   0.000000   0.000000 )  
               a(2) = (   0.000000   1.000000   0.000000 )  
               a(3) = (   0.000000   0.000000   1.000000 )  

     reciprocal axes: (cart. coord. in units 2 pi/alat)
               b(1) = (  1.000000  0.000000  0.000000 )  
               b(2) = (  0.000000  1.000000  0.000000 )  
               b(3) = (  0.000000  0.000000  1.000000 )  


     PseudoPot. # 1 for Si read from file:
     /home/ppiaggi/pseudos/Si_ONCV_PBE_sr.upf
     MD5 check sum: 8553c464762ac42b85b1eed164b4d029
     Pseudo is Norm-conserving, Zval =  4.0
     Generated using ONCVPSP code by D. R. Hamann
     Using radial grid of 1510 points,  4 beta functions with: 
                l(1) =   0
                l(2) =   0
                l(3) =   1
                l(4) =   1

     atomic species   valence    mass     pseudopotential
        Si             4.00    28.08500     Si( 1.00)

     No symmetry found



   Cartesian axes

     site n.     atom                  positions (alat units)
         1           Si  tau(   1) = (   0.3274000   0.3207180   0.0887895  )
         2           Si  tau(   2) = (   0.1110660   0.9287470   0.9944240  )
         3           Si  tau(   3) = (   0.9431780   0.6811110   0.8835990  )
         4           Si  tau(   4) = (   0.0380523   0.3771620   0.2145140  )
         5           Si  tau(   5) = (   0.9638290   0.8805720   0.7758160  )
         6           Si  tau(   6) = (   0.7103540   0.8573650   0.3697120  )
         7           Si  tau(   7) = (   0.4676090   0.4904700   0.8523480  )
         8           Si  tau(   8) = (   0.7396580   0.9554190   0.0211437  )
         9           Si  tau(   9) = (   0.8583260   0.8215400   0.5635320  )
        10           Si  tau(  10) = (   0.6728890   0.5887960   0.8238020  )
        11           Si  tau(  11) = (   0.9797460   0.1992590   0.6960840  )
        12           Si  tau(  12) = (   0.3979510   0.9269550   0.7751550  )
        13           Si  tau(  13) = (   0.0960041   0.2994830   0.4170920  )
        14           Si  tau(  14) = (   0.9333800   0.1324490   0.3020190  )
        15           Si  tau(  15) = (   0.3932010   0.6645680   0.0181486  )
        16           Si  tau(  16) = (   0.6455690   0.7874470   0.6798610  )
        17           Si  tau(  17) = (   0.1713290   0.1505920   0.9674570  )
        18           Si  tau(  18) = (   0.9997040   0.2882340   0.9943640  )
        19           Si  tau(  19) = (   0.9044450   0.4429870   0.8093410  )
        20           Si  tau(  20) = (   0.2274460   0.1129340   0.2246190  )
        21           Si  tau(  21) = (   0.8360050   0.8230590   0.1776810  )
        22           Si  tau(  22) = (   0.1710160   0.9929420   0.4609380  )
        23           Si  tau(  23) = (   0.1561480   0.6706670   0.7459660  )
        24           Si  tau(  24) = (   0.9867990   0.6418710   0.4398970  )
        25           Si  tau(  25) = (   0.5032800   0.3236050   0.5151590  )
        26           Si  tau(  26) = (   0.5742020   0.0136067   0.3180080  )
        27           Si  tau(  27) = (   0.8097950   0.4385890   0.4735270  )
        28           Si  tau(  28) = (   0.2594570   0.5144770   0.3185350  )
        29           Si  tau(  29) = (   0.1875720   0.9142950   0.6851470  )
        30           Si  tau(  30) = (   0.5883750   0.6844260   0.4608260  )
        31           Si  tau(  31) = (   0.3180010   0.4313360   0.6529540  )
        32           Si  tau(  32) = (   0.6151610   0.0041889   0.7586130  )
        33           Si  tau(  33) = (   0.3218630   0.8913340   0.9845030  )
        34           Si  tau(  34) = (   0.1286120   0.8080670   0.3154010  )
        35           Si  tau(  35) = (   0.8237010   0.0851288   0.8551210  )
        36           Si  tau(  36) = (   0.2106130   0.5075960   0.0365303  )
        37           Si  tau(  37) = (   0.2808100   0.1795940   0.4775930  )
        38           Si  tau(  38) = (   0.4687630   0.2681410   0.9443790  )
        39           Si  tau(  39) = (   0.6148800   0.7265550   0.0203520  )
        40           Si  tau(  40) = (   0.1812510   0.5641880   0.5160990  )
        41           Si  tau(  41) = (   0.9084250   0.5843050   0.2185280  )
        42           Si  tau(  42) = (   0.7262630   0.5439260   0.0932269  )
        43           Si  tau(  43) = (   0.7031450   0.3023610   0.7582970  )
        44           Si  tau(  44) = (   0.0169246   0.9413620   0.2127560  )
        45           Si  tau(  45) = (   0.0699395   0.6852740   0.0623158  )
        46           Si  tau(  46) = (   0.3218970   0.7281050   0.2647280  )
        47           Si  tau(  47) = (   0.2189460   0.1720990   0.7233310  )
        48           Si  tau(  48) = (   0.6024270   0.2248030   0.2045550  )
        49           Si  tau(  49) = (   0.5203000   0.5918880   0.2472440  )
        50           Si  tau(  50) = (   0.9344880   0.0288850   0.5350120  )
        51           Si  tau(  51) = (   0.5245130   0.0511848   0.0082898  )
        52           Si  tau(  52) = (   0.3893180   0.9503730   0.2079830  )
        53           Si  tau(  53) = (   0.6310780   0.4918540   0.6063360  )
        54           Si  tau(  54) = (   0.6865490   0.3439120   0.0065195  )
        55           Si  tau(  55) = (   0.7593720   0.2495170   0.3788570  )
        56           Si  tau(  56) = (   0.3608420   0.7771610   0.4947130  )
        57           Si  tau(  57) = (   0.4503190   0.0076691   0.5186430  )
        58           Si  tau(  58) = (   0.4067910   0.6992740   0.7015960  )
        59           Si  tau(  59) = (   0.4541340   0.3741220   0.2991510  )
        60           Si  tau(  60) = (   0.6894280   0.1039750   0.5623100  )
        61           Si  tau(  61) = (   0.8485320   0.1756990   0.1104970  )
        62           Si  tau(  62) = (   0.4385470   0.1953480   0.7382420  )
        63           Si  tau(  63) = (   0.1603400   0.4451990   0.8282850  )
        64           Si  tau(  64) = (   0.9922660   0.4001480   0.6074290  )

     number of k points=     1  Fermi-Dirac smearing, width (Ry)=  0.0100
                       cart. coord. in units 2pi/alat
        k(    1) = (   0.0000000   0.0000000   0.0000000), wk =   2.0000000

     Dense  grid:    88515 G-vectors     FFT dimensions: (  72,  72,  72)

     Estimated max dynamical RAM per process >     142.50 MB

     Estimated total dynamical RAM >     548.37 MB

     Initial potential from superposition of free atoms

     starting charge     255.9608, renormalised to     256.0000
     Starting wfcs are  256 randomized atomic wfcs

     total cpu time spent up to now is        5.0 secs

     Self-consistent Calculation

     iteration #  1     ecut=    30.00 Ry     beta= 0.50
     Davidson diagonalization with overlap
     ethr =  1.00E-02,  avg # of iterations =  3.0

     Threshold (ethr) on eigenvalues was too large:
     Diagonalizing with lowered threshold

     Davidson diagonalization with overlap
     ethr =  3.88E-04,  avg # of iterations =  4.0

     total cpu time spent up to now is        5.3 secs

     total energy              =    -501.33601322 Ry
     estimated scf accuracy    <       1.19036650 Ry

     iteration #  2     ecut=    30.00 Ry     beta= 0.50
     Davidson diagonalization with overlap
     ethr =  4.65E-04,  avg # of iterations =  4.0

     total cpu time spent up to now is        5.4 secs

     total energy              =    -500.92452565 Ry
     estimated scf accuracy    <       4.24220614 Ry

     iteration #  3     ecut=    30.00 Ry     beta= 0.50
     Davidson diagonalization with overlap
     ethr =  4.65E-04,  avg # of iterations =  5.0

     total cpu time spent up to now is        5.5 secs

     total energy              =    -501.33103045 Ry
     estimated scf accuracy    <       2.53706714 Ry

     iteration #  4     ecut=    30.00 Ry     beta= 0.50
     Davidson diagonalization with overlap
     ethr =  4.65E-04,  avg # of iterations =  2.0

     total cpu time spent up to now is        5.6 secs

     total energy              =    -501.49592946 Ry
     estimated scf accuracy    <       0.51102902 Ry

     iteration #  5     ecut=    30.00 Ry     beta= 0.50
     Davidson diagonalization with overlap
     ethr =  2.00E-04,  avg # of iterations =  2.0

     total cpu time spent up to now is        5.7 secs

     total energy              =    -501.51888752 Ry
     estimated scf accuracy    <       0.41419562 Ry

     iteration #  6     ecut=    30.00 Ry     beta= 0.50
     Davidson diagonalization with overlap
     ethr =  1.62E-04,  avg # of iterations =  2.0

     total cpu time spent up to now is        5.8 secs

     total energy              =    -501.55505357 Ry
     estimated scf accuracy    <       0.12994085 Ry

     iteration #  7     ecut=    30.00 Ry     beta= 0.50
     Davidson diagonalization with overlap
     ethr =  5.08E-05,  avg # of iterations =  2.0

     total cpu time spent up to now is        5.9 secs

     total energy              =    -501.56628288 Ry
     estimated scf accuracy    <       0.01647980 Ry

     iteration #  8     ecut=    30.00 Ry     beta= 0.50
     Davidson diagonalization with overlap
     ethr =  6.44E-06,  avg # of iterations = 12.0

     total cpu time spent up to now is        6.1 secs

     total energy              =    -501.56732271 Ry
     estimated scf accuracy    <       0.04252948 Ry

     iteration #  9     ecut=    30.00 Ry     beta= 0.50
     Davidson diagonalization with overlap
     ethr =  6.44E-06,  avg # of iterations =  2.0

     total cpu time spent up to now is        6.2 secs

     total energy              =    -501.57031898 Ry
     estimated scf accuracy    <       0.00124205 Ry

     iteration # 10     ecut=    30.00 Ry     beta= 0.50
     Davidson diagonalization with overlap
     ethr =  4.85E-07,  avg # of iterations =  8.0

     total cpu time spent up to now is        6.3 secs

     total energy              =    -501.57040657 Ry
     estimated scf accuracy    <       0.00337302 Ry

     iteration # 11     ecut=    30.00 Ry     beta= 0.50
     Davidson diagonalization with overlap
     ethr =  4.85E-07,  avg # of iterations =  3.0

     total cpu time spent up to now is        6.4 secs

     total energy              =    -501.57064580 Ry
     estimated scf accuracy    <       0.00046327 Ry

     iteration # 12     ecut=    30.00 Ry     beta= 0.50
     Davidson diagonalization with overlap
     ethr =  1.81E-07,  avg # of iterations =  2.0

     total cpu time spent up to now is        6.5 secs

     total energy              =    -501.57067663 Ry
     estimated scf accuracy    <       0.00026558 Ry

     iteration # 13     ecut=    30.00 Ry     beta= 0.50
     Davidson diagonalization with overlap
     ethr =  1.04E-07,  avg # of iterations =  2.0

     total cpu time spent up to now is        6.6 secs

     total energy              =    -501.57069474 Ry
     estimated scf accuracy    <       0.00020122 Ry

     iteration # 14     ecut=    30.00 Ry     beta= 0.50
     Davidson diagonalization with overlap
     ethr =  7.86E-08,  avg # of iterations =  1.0

     total cpu time spent up to now is        6.7 secs

     total energy              =    -501.57070821 Ry
     estimated scf accuracy    <       0.00002589 Ry

     iteration # 15     ecut=    30.00 Ry     beta= 0.50
     Davidson diagonalization with overlap
     ethr =  1.01E-08,  avg # of iterations =  3.0

     total cpu time spent up to now is        6.8 secs

     total energy              =    -501.57070964 Ry
     estimated scf accuracy    <       0.00002583 Ry

     iteration # 16     ecut=    30.00 Ry     beta= 0.50
     Davidson diagonalization with overlap
     ethr =  1.01E-08,  avg # of iterations =  3.0

     total cpu time spent up to now is        6.9 secs

     total energy              =    -501.57070898 Ry
     estimated scf accuracy    <       0.00005529 Ry

     iteration # 17     ecut=    30.00 Ry     beta= 0.50
     Davidson diagonalization with overlap
     ethr =  1.01E-08,  avg # of iterations =  2.0

     total cpu time spent up to now is        7.0 secs

     total energy              =    -501.57071249 Ry
     estimated scf accuracy    <       0.00000461 Ry

     iteration # 18     ecut=    30.00 Ry     beta= 0.50
     Davidson diagonalization with overlap
     ethr =  1.80E-09,  avg # of iterations =  2.0

     total cpu time spent up to now is        7.1 secs

     total energy              =    -501.57071313 Ry
     estimated scf accuracy    <       0.00000130 Ry

     iteration # 19     ecut=    30.00 Ry     beta= 0.50
     Davidson diagonalization with overlap
     ethr =  5.08E-10,  avg # of iterations =  2.0

     total cpu time spent up to now is        7.2 secs

     End of self-consistent calculation

          k = 0.0000 0.0000 0.0000 ( 11060 PWs)   bands (ev):

    -5.2289  -4.2317  -4.1401  -4.0792  -4.0339  -3.8404  -3.7745  -3.2019
    -3.0714  -3.0192  -2.9967  -2.9251  -2.8310  -2.7783  -2.7373  -2.6098
    -2.5311  -2.4945  -2.3693  -2.0523  -1.8442  -1.7060  -1.5595  -1.4564
    -1.4010  -1.3514  -1.1790  -0.8475  -0.6601  -0.4977  -0.4336  -0.3312
    -0.2244  -0.0033   0.1034   0.1240   0.3358   0.3763   0.4440   0.4998
     0.5956   0.6577   0.7599   0.8078   0.8405   0.8713   1.0093   1.1437
     1.2501   1.3177   1.4704   1.5235   1.6578   1.7248   1.7741   1.8975
     1.9122   2.0956   2.1624   2.1947   2.3309   2.4024   2.4821   2.6000
     2.6464   2.7081   2.8396   2.8933   2.9206   2.9745   3.1214   3.1390
     3.2132   3.3258   3.4523   3.4949   3.5244   3.6170   3.6857   3.7502
     3.9397   4.2605   4.4012   4.5671   4.5961   4.6089   4.7486   4.8702
     4.9071   4.9869   5.1059   5.1718   5.1828   5.2755   5.3374   5.3914
     5.4179   5.5239   5.5386   5.6729   5.6935   5.8105   5.9047   5.9266
     5.9720   5.9803   6.0271   6.1108   6.2120   6.2361   6.3127   6.3581
     6.4024   6.4537   6.5174   6.5852   6.6257   6.7108   6.7412   6.8708
     6.9015   6.9573   7.0840   7.1331   7.2174   7.2614   7.3184   7.3556
     7.3764   7.4168   7.4723   7.5313   7.5735   7.6032   7.6772   7.7936
     7.8527   7.9403   8.0352   8.0628   8.1321   8.2068   8.2370   8.3315
     8.3627   8.4060   8.4966   8.5499   8.6337   8.6730   8.7092   8.8928
     8.9470   8.9732

     the Fermi energy is     7.3611 ev

!    total energy              =    -501.57071301 Ry
     estimated scf accuracy    <       0.00000037 Ry
     smearing contrib. (-TS)   =      -0.16465738 Ry
     internal energy E=F+TS    =    -501.40605563 Ry

     The total energy is F=E-TS. E is the sum of the following terms:
     one-electron contribution =     197.24098110 Ry
     hartree contribution      =      21.67088014 Ry
     xc contribution           =    -151.47916389 Ry
     ewald contribution        =    -568.83875297 Ry

     convergence has been achieved in  19 iterations

     Forces acting on atoms (cartesian axes, Ry/au):

     atom    1 type  1   force =    -0.05678914   -0.00968673    0.07263004
     atom    2 type  1   force =    -0.05792575    0.00975454    0.00845263
     atom    3 type  1   force =     0.01038603   -0.00696432   -0.02541698
     atom    4 type  1   force =     0.01360911    0.03993870   -0.02295431
     atom    5 type  1   force =     0.00901102    0.01106959    0.02442916
     atom    6 type  1   force =     0.03473467   -0.04491953    0.00605194
     atom    7 type  1   force =    -0.01262246    0.03051185   -0.00315442
     atom    8 type  1   force =    -0.01644013    0.00034442    0.00724723
     atom    9 type  1   force =    -0.01128346   -0.02725972   -0.01818713
     atom   10 type  1   force =    -0.00304608    0.00022232   -0.01003849
     atom   11 type  1   force =    -0.00364604   -0.03597345   -0.00215829
     atom   12 type  1   force =    -0.00362575   -0.00819127    0.00074948
     atom   13 type  1   force =    -0.00782902   -0.01517308   -0.01567166
     atom   14 type  1   force =     0.06108260   -0.00199094    0.07522730
     atom   15 type  1   force =    -0.00829503   -0.01376606    0.00163030
     atom   16 type  1   force =     0.00268660   -0.01322964   -0.01247305
     atom   17 type  1   force =     0.00832837   -0.00072853   -0.00239717
     atom   18 type  1   force =     0.00362305    0.03061715   -0.00809698
     atom   19 type  1   force =    -0.02114401   -0.00172921    0.04221985
     atom   20 type  1   force =    -0.00339476    0.00622486   -0.00204564
     atom   21 type  1   force =    -0.02157411   -0.02136612    0.01877173
     atom   22 type  1   force =    -0.04652161   -0.06719302    0.02257088
     atom   23 type  1   force =    -0.01103879    0.00171000   -0.01856912
     atom   24 type  1   force =    -0.03607534    0.03863288   -0.01713025
     atom   25 type  1   force =    -0.02800333    0.00205715    0.04277947
     atom   26 type  1   force =    -0.02949086    0.04166424    0.00086320
     atom   27 type  1   force =     0.02276725    0.03832992    0.02034291
     atom   28 type  1   force =     0.00527620   -0.03795490   -0.02695887
     atom   29 type  1   force =    -0.02568766   -0.00235764   -0.02153034
     atom   30 type  1   force =    -0.02156774    0.01560224   -0.00332400
     atom   31 type  1   force =     0.02375608   -0.01501432    0.01882439
     atom   32 type  1   force =     0.01318765    0.01112733    0.00380568
     atom   33 type  1   force =     0.05593067   -0.02805184    0.01306659
     atom   34 type  1   force =     0.00723679   -0.05328333    0.08136597
     atom   35 type  1   force =     0.00361345   -0.01544465   -0.02088486
     atom   36 type  1   force =     0.02203606   -0.00265869    0.01437629
     atom   37 type  1   force =     0.02532578    0.02090520    0.00235135
     atom   38 type  1   force =     0.06793440    0.00398945   -0.02374435
     atom   39 type  1   force =     0.01255463    0.00897106   -0.00926683
     atom   40 type  1   force =    -0.01272710    0.00338749    0.06074418
     atom   41 type  1   force =     0.02665106    0.01051512   -0.00155028
     atom   42 type  1   force =    -0.00918343   -0.00240435    0.01867584
     atom   43 type  1   force =     0.02862736   -0.00100237    0.02100385
     atom   44 type  1   force =    -0.00930005    0.07215142   -0.07793746
     atom   45 type  1   force =    -0.01111602    0.00702977    0.03402097
     atom   46 type  1   force =     0.03441690   -0.00007664   -0.00417949
     atom   47 type  1   force =    -0.02948290   -0.00665666    0.01514946
     atom   48 type  1   force =     0.02762280   -0.01882193    0.01308476
     atom   49 type  1   force =     0.01893223   -0.01414048   -0.00872351
     atom   50 type  1   force =     0.02108975    0.02951716   -0.02015219
     atom   51 type  1   force =    -0.00806248    0.00089625    0.02573368
     atom   52 type  1   force =    -0.01290748   -0.00308490   -0.03489704
     atom   53 type  1   force =     0.01132030    0.00270510   -0.02468745
     atom   54 type  1   force =    -0.00683550   -0.02840952   -0.01821868
     atom   55 type  1   force =    -0.03732488   -0.02389287   -0.00238674
     atom   56 type  1   force =     0.02217420    0.01632693   -0.01249613
     atom   57 type  1   force =     0.00188580   -0.01234940   -0.00548596
     atom   58 type  1   force =     0.01405273   -0.00544187    0.01492822
     atom   59 type  1   force =    -0.03359903    0.03703082   -0.03562613
     atom   60 type  1   force =     0.01693912    0.03405719   -0.01665650
     atom   61 type  1   force =    -0.06860864    0.00162323   -0.06392453
     atom   62 type  1   force =     0.03751212    0.00221920   -0.03480329
     atom   63 type  1   force =    -0.00633783   -0.00147978   -0.01711069
     atom   64 type  1   force =     0.00718161    0.01156515   -0.03825857

     Total force =     0.368241     Total SCF correction =     0.001125


     Computing stress (Cartesian axis) and pressure

          total   stress  (Ry/bohr**3)                   (kbar)     P=      -21.00
  -0.00001193  -0.00008742   0.00002487           -1.76      -12.86        3.66
  -0.00008742  -0.00021830   0.00001146          -12.86      -32.11        1.69
   0.00002487   0.00001146  -0.00019806            3.66        1.69      -29.14

 
     init_run     :      1.09s CPU      4.93s WALL (       1 calls)
     electrons    :      2.01s CPU      2.18s WALL (       1 calls)
     forces       :      0.03s CPU      0.04s WALL (       1 calls)
     stress       :      0.15s CPU      0.15s WALL (       1 calls)

     Called by init_run:
     wfcinit      :      0.54s CPU      4.21s WALL (       1 calls)
                                        4.21s GPU  (       1 calls)
     potinit      :      0.06s CPU      0.15s WALL (       1 calls)
     hinit0       :      0.47s CPU      0.50s WALL (       1 calls)

     Called by electrons:
     c_bands      :      1.19s CPU      1.28s WALL (      20 calls)
     sum_band     :      0.40s CPU      0.45s WALL (      20 calls)
     v_of_rho     :      0.20s CPU      0.29s WALL (      20 calls)
     mix_rho      :      0.18s CPU      0.20s WALL (      20 calls)

     Called by c_bands:
     init_us_2    :      0.07s CPU      0.08s WALL (      41 calls)
     init_us_2:gp :      0.07s CPU      0.08s WALL (      41 calls)
     regterg      :      1.02s CPU      1.10s WALL (      20 calls)

     Called by *egterg:
     rdiaghg      :      0.43s CPU      1.19s WALL (      85 calls)
                                        1.17s GPU  (      85 calls)
     h_psi        :      0.96s CPU      3.92s WALL (      87 calls)
                                        3.92s GPU  (      87 calls)
     g_psi        :      0.00s CPU      0.00s WALL (      66 calls)
                                        0.00s GPU  (      66 calls)

     Called by h_psi:
     h_psi:calbec :      0.52s CPU      3.38s WALL (      87 calls)
                                        3.38s GPU  (      87 calls)
     vloc_psi     :      0.40s CPU      0.47s WALL (      87 calls)
                                        0.47s GPU  (      87 calls)
     add_vuspsi   :      0.03s CPU      0.05s WALL (      87 calls)
                                        0.05s GPU  (      87 calls)

     General routines
     calbec       :      0.52s CPU      3.39s WALL (      92 calls)
     fft          :      0.63s CPU      0.76s WALL (     167 calls)
                                        0.14s GPU  (     106 calls)
     ffts         :      0.05s CPU      0.05s WALL (      20 calls)
     fftw         :      0.48s CPU      0.64s WALL (    2100 calls)
                                        0.55s GPU  (    2100 calls)
 
     Parallel routines
 
     PWSCF        :      3.33s CPU      7.52s WALL

 
   This run was terminated on:  10:40:23  10May2023            

=------------------------------------------------------------------------------=
   JOB DONE.
=------------------------------------------------------------------------------=
