An instance of this daemon is already running

     Program PWSCF v.7.1 starts on 10May2023 at 10:47:12 

     This program is part of the open-source Quantum ESPRESSO suite
     for quantum simulation of materials; please cite
         "P. Giannozzi et al., J. Phys.:Condens. Matter 21 395502 (2009);
         "P. Giannozzi et al., J. Phys.:Condens. Matter 29 465901 (2017);
         "P. Giannozzi et al., J. Chem. Phys. 152 154105 (2020);
          URL http://www.quantum-espresso.org", 
     in publications or presentations arising from this work. More details at
     http://www.quantum-espresso.org/quote

     Parallel version (MPI & OpenMP), running on       4 processor cores
     Number of MPI processes:                 4
     Threads/MPI process:                     1

     MPI processes distributed on     1 nodes
     753567 MiB available memory on the printing compute node when the environment starts
 
     Reading input from pw-si-60.in
Warning: card &CELL ignored
Warning: card / ignored

     Current dimensions of program PWSCF are:
     Max number of different atomic species (ntypx) = 10
     Max number of k-points (npk) =  40000
     Max angular momentum in pseudopotentials (lmaxx) =  4

     IMPORTANT: XC functional enforced from input :
     Exchange-correlation= PBE
                           (   1   4   3   4   0   0   0)
     Any further DFT definition will be discarded
     Please, verify this is what you really want


     gamma-point specific algorithms are used
 
     K-points division:     npool     =       2
     R & G space division:  proc/nbgrp/npool/nimage =       2
     Subspace diagonalization in iterative solution of the eigenvalue problem:
     a serial algorithm will be used

     Message from routine divide_et_impera:
     suboptimal parallelization: some nodes have no k-points
 
     Parallelization info
     --------------------
     sticks:   dense  smooth     PW     G-vecs:    dense   smooth      PW
     Min        1896    1896    498                87840    87840   11922
     Max        1897    1897    499                87845    87845   11925
     Sum        3793    3793    997               175685   175685   23847
 
     Using Slab Decomposition
 


     bravais-lattice index     =            0
     lattice parameter (alat)  =      19.9206  a.u.
     unit-cell volume          =    7905.0513 (a.u.)^3
     number of atoms/cell      =           64
     number of atomic types    =            1
     number of electrons       =       256.00
     number of Kohn-Sham states=          154
     kinetic-energy cutoff     =      30.0000  Ry
     charge density cutoff     =     120.0000  Ry
     scf convergence threshold =      1.0E-06
     mixing beta               =       0.5000
     number of iterations used =            8  plain     mixing
     Exchange-correlation= PBE
                           (   1   4   3   4   0   0   0)

     GPU acceleration is ACTIVE.
     GPU-aware MPI enabled

     Message from routine print_cuda_info:
     High GPU oversubscription detected. Are you sure this is what you want?

     celldm(1)=  19.920561  celldm(2)=   0.000000  celldm(3)=   0.000000
     celldm(4)=   0.000000  celldm(5)=   0.000000  celldm(6)=   0.000000

     crystal axes: (cart. coord. in units of alat)
               a(1) = (   1.000000   0.000000   0.000000 )  
               a(2) = (   0.000000   1.000000   0.000000 )  
               a(3) = (   0.000000   0.000000   1.000000 )  

     reciprocal axes: (cart. coord. in units 2 pi/alat)
               b(1) = (  1.000000  0.000000  0.000000 )  
               b(2) = (  0.000000  1.000000  0.000000 )  
               b(3) = (  0.000000  0.000000  1.000000 )  


     PseudoPot. # 1 for Si read from file:
     /home/ppiaggi/pseudos/Si_ONCV_PBE_sr.upf
     MD5 check sum: 8553c464762ac42b85b1eed164b4d029
     Pseudo is Norm-conserving, Zval =  4.0
     Generated using ONCVPSP code by D. R. Hamann
     Using radial grid of 1510 points,  4 beta functions with: 
                l(1) =   0
                l(2) =   0
                l(3) =   1
                l(4) =   1

     atomic species   valence    mass     pseudopotential
        Si             4.00    28.08500     Si( 1.00)

     No symmetry found



   Cartesian axes

     site n.     atom                  positions (alat units)
         1           Si  tau(   1) = (   0.5014850   0.8619310   0.1832350  )
         2           Si  tau(   2) = (   0.9739490   0.5115430   0.1591940  )
         3           Si  tau(   3) = (   0.0290636   0.3688450   0.9456960  )
         4           Si  tau(   4) = (   0.1314020   0.2202870   0.7741850  )
         5           Si  tau(   5) = (   0.8324390   0.0808479   0.3002420  )
         6           Si  tau(   6) = (   0.5629570   0.6206670   0.9190480  )
         7           Si  tau(   7) = (   0.4496980   0.7089860   0.3920900  )
         8           Si  tau(   8) = (   0.2719830   0.9978490   0.7091430  )
         9           Si  tau(   9) = (   0.8852440   0.0045907   0.5267700  )
        10           Si  tau(  10) = (   0.4856510   0.2051950   0.1066780  )
        11           Si  tau(  11) = (   0.4287730   0.6494900   0.1186110  )
        12           Si  tau(  12) = (   0.2799590   0.8749490   0.9239500  )
        13           Si  tau(  13) = (   0.9239790   0.5912720   0.4310350  )
        14           Si  tau(  14) = (   0.6328820   0.5791340   0.5850200  )
        15           Si  tau(  15) = (   0.7768470   0.1677970   0.6785140  )
        16           Si  tau(  16) = (   0.6843770   0.5500290   0.3719850  )
        17           Si  tau(  17) = (   0.0237465   0.8895070   0.7851550  )
        18           Si  tau(  18) = (   0.4087730   0.9050780   0.5409300  )
        19           Si  tau(  19) = (   0.3352980   0.2177500   0.8965410  )
        20           Si  tau(  20) = (   0.2770130   0.6238860   0.6593030  )
        21           Si  tau(  21) = (   0.6835170   0.1393990   0.0028268  )
        22           Si  tau(  22) = (   0.3908940   0.4082230   0.3019400  )
        23           Si  tau(  23) = (   0.1531970   0.4859250   0.3635240  )
        24           Si  tau(  24) = (   0.7310140   0.9557010   0.1230610  )
        25           Si  tau(  25) = (   0.9455240   0.0993113   0.8175050  )
        26           Si  tau(  26) = (   0.5341610   0.8494730   0.9297890  )
        27           Si  tau(  27) = (   0.3528130   0.2128430   0.4212150  )
        28           Si  tau(  28) = (   0.1091970   0.9950960   0.5596660  )
        29           Si  tau(  29) = (   0.4746150   0.3599620   0.7166010  )
        30           Si  tau(  30) = (   0.8392470   0.6987410   0.6329570  )
        31           Si  tau(  31) = (   0.0257239   0.1264600   0.0431786  )
        32           Si  tau(  32) = (   0.5845380   0.4527550   0.1202770  )
        33           Si  tau(  33) = (   0.1847080   0.9636520   0.3317950  )
        34           Si  tau(  34) = (   0.2325240   0.7217800   0.3602240  )
        35           Si  tau(  35) = (   0.4026110   0.5010130   0.5241910  )
        36           Si  tau(  36) = (   0.7014030   0.3932860   0.7352480  )
        37           Si  tau(  37) = (   0.5071000   0.7455290   0.6895120  )
        38           Si  tau(  38) = (   0.2280110   0.0527554   0.0391858  )
        39           Si  tau(  39) = (   0.1256760   0.4061340   0.6365910  )
        40           Si  tau(  40) = (   0.7693390   0.5250310   0.9216400  )
        41           Si  tau(  41) = (   0.5071150   0.0991355   0.7782870  )
        42           Si  tau(  42) = (   0.0640376   0.1494840   0.2907680  )
        43           Si  tau(  43) = (   0.7181320   0.7713100   0.2881000  )
        44           Si  tau(  44) = (   0.3868340   0.0410611   0.2375110  )
        45           Si  tau(  45) = (   0.1648300   0.6602860   0.1102370  )
        46           Si  tau(  46) = (   0.8231810   0.3005610   0.0163557  )
        47           Si  tau(  47) = (   0.9671930   0.5660400   0.7821970  )
        48           Si  tau(  48) = (   0.1329440   0.2231920   0.5009010  )
        49           Si  tau(  49) = (   0.9005580   0.8533190   0.9991530  )
        50           Si  tau(  50) = (   0.2946170   0.4165490   0.0342958  )
        51           Si  tau(  51) = (   0.0993349   0.7503910   0.5601960  )
        52           Si  tau(  52) = (   0.5393860   0.1442310   0.5441790  )
        53           Si  tau(  53) = (   0.0637075   0.8571530   0.1473400  )
        54           Si  tau(  54) = (   0.7592390   0.2605940   0.4493390  )
        55           Si  tau(  55) = (   0.1029400   0.3211980   0.1947730  )
        56           Si  tau(  56) = (   0.3810830   0.5086970   0.8571650  )
        57           Si  tau(  57) = (   0.7302540   0.9729740   0.8471630  )
        58           Si  tau(  58) = (   0.1551090   0.6836560   0.8676700  )
        59           Si  tau(  59) = (   0.8962100   0.4080210   0.5696140  )
        60           Si  tau(  60) = (   0.7130250   0.8830950   0.6078100  )
        61           Si  tau(  61) = (   0.7942160   0.3699580   0.2282810  )
        62           Si  tau(  62) = (   0.6189970   0.9943370   0.3941990  )
        63           Si  tau(  63) = (   0.8126570   0.6602090   0.0964852  )
        64           Si  tau(  64) = (   0.9352970   0.8407640   0.3376210  )

     number of k points=     1  Fermi-Dirac smearing, width (Ry)=  0.0100
                       cart. coord. in units 2pi/alat
        k(    1) = (   0.0000000   0.0000000   0.0000000), wk =   2.0000000

     Dense  grid:    87843 G-vectors     FFT dimensions: (  72,  72,  72)

     Estimated max dynamical RAM per process >     141.36 MB

     Estimated total dynamical RAM >     543.99 MB

     Initial potential from superposition of free atoms

     starting charge     255.9608, renormalised to     256.0000
     Starting wfcs are  256 randomized atomic wfcs

     total cpu time spent up to now is        5.0 secs

     Self-consistent Calculation

     iteration #  1     ecut=    30.00 Ry     beta= 0.50
     Davidson diagonalization with overlap
     ethr =  1.00E-02,  avg # of iterations =  3.0

     Threshold (ethr) on eigenvalues was too large:
     Diagonalizing with lowered threshold

     Davidson diagonalization with overlap
     ethr =  4.06E-04,  avg # of iterations =  5.0

     total cpu time spent up to now is        5.3 secs

     total energy              =    -501.24730045 Ry
     estimated scf accuracy    <       1.24668481 Ry

     iteration #  2     ecut=    30.00 Ry     beta= 0.50
     Davidson diagonalization with overlap
     ethr =  4.87E-04,  avg # of iterations =  4.0

     total cpu time spent up to now is        5.4 secs

     total energy              =    -500.70215641 Ry
     estimated scf accuracy    <       7.15012237 Ry

     iteration #  3     ecut=    30.00 Ry     beta= 0.50
     Davidson diagonalization with overlap
     ethr =  4.87E-04,  avg # of iterations =  4.0

     total cpu time spent up to now is        5.5 secs

     total energy              =    -501.33825778 Ry
     estimated scf accuracy    <       1.88152820 Ry

     iteration #  4     ecut=    30.00 Ry     beta= 0.50
     Davidson diagonalization with overlap
     ethr =  4.87E-04,  avg # of iterations =  2.0

     total cpu time spent up to now is        5.6 secs

     total energy              =    -501.47747722 Ry
     estimated scf accuracy    <       0.66335697 Ry

     iteration #  5     ecut=    30.00 Ry     beta= 0.50
     Davidson diagonalization with overlap
     ethr =  2.59E-04,  avg # of iterations =  2.0

     total cpu time spent up to now is        5.7 secs

     total energy              =    -501.50206078 Ry
     estimated scf accuracy    <       0.45025119 Ry

     iteration #  6     ecut=    30.00 Ry     beta= 0.50
     Davidson diagonalization with overlap
     ethr =  1.76E-04,  avg # of iterations =  2.0

     total cpu time spent up to now is        5.8 secs

     total energy              =    -501.54699511 Ry
     estimated scf accuracy    <       0.08816898 Ry

     iteration #  7     ecut=    30.00 Ry     beta= 0.50
     Davidson diagonalization with overlap
     ethr =  3.44E-05,  avg # of iterations =  2.0

     total cpu time spent up to now is        5.9 secs

     total energy              =    -501.55444657 Ry
     estimated scf accuracy    <       0.02285702 Ry

     iteration #  8     ecut=    30.00 Ry     beta= 0.50
     Davidson diagonalization with overlap
     ethr =  8.93E-06,  avg # of iterations =  3.0

     total cpu time spent up to now is        6.0 secs

     total energy              =    -501.55704102 Ry
     estimated scf accuracy    <       0.01621250 Ry

     iteration #  9     ecut=    30.00 Ry     beta= 0.50
     Davidson diagonalization with overlap
     ethr =  6.33E-06,  avg # of iterations =  2.0

     total cpu time spent up to now is        6.1 secs

     total energy              =    -501.55827770 Ry
     estimated scf accuracy    <       0.00181335 Ry

     iteration # 10     ecut=    30.00 Ry     beta= 0.50
     Davidson diagonalization with overlap
     ethr =  7.08E-07,  avg # of iterations = 10.0

     total cpu time spent up to now is        6.2 secs

     total energy              =    -501.55847796 Ry
     estimated scf accuracy    <       0.00174623 Ry

     iteration # 11     ecut=    30.00 Ry     beta= 0.50
     Davidson diagonalization with overlap
     ethr =  6.82E-07,  avg # of iterations =  3.0

     total cpu time spent up to now is        6.3 secs

     total energy              =    -501.55862725 Ry
     estimated scf accuracy    <       0.00040336 Ry

     iteration # 12     ecut=    30.00 Ry     beta= 0.50
     Davidson diagonalization with overlap
     ethr =  1.58E-07,  avg # of iterations =  2.0

     total cpu time spent up to now is        6.4 secs

     total energy              =    -501.55866318 Ry
     estimated scf accuracy    <       0.00024068 Ry

     iteration # 13     ecut=    30.00 Ry     beta= 0.50
     Davidson diagonalization with overlap
     ethr =  9.40E-08,  avg # of iterations =  2.0

     total cpu time spent up to now is        6.5 secs

     total energy              =    -501.55868275 Ry
     estimated scf accuracy    <       0.00016770 Ry

     iteration # 14     ecut=    30.00 Ry     beta= 0.50
     Davidson diagonalization with overlap
     ethr =  6.55E-08,  avg # of iterations =  1.0

     total cpu time spent up to now is        6.6 secs

     total energy              =    -501.55869307 Ry
     estimated scf accuracy    <       0.00002623 Ry

     iteration # 15     ecut=    30.00 Ry     beta= 0.50
     Davidson diagonalization with overlap
     ethr =  1.02E-08,  avg # of iterations =  3.0

     total cpu time spent up to now is        6.7 secs

     total energy              =    -501.55869658 Ry
     estimated scf accuracy    <       0.00002155 Ry

     iteration # 16     ecut=    30.00 Ry     beta= 0.50
     Davidson diagonalization with overlap
     ethr =  8.42E-09,  avg # of iterations =  2.0

     total cpu time spent up to now is        6.8 secs

     total energy              =    -501.55869814 Ry
     estimated scf accuracy    <       0.00000661 Ry

     iteration # 17     ecut=    30.00 Ry     beta= 0.50
     Davidson diagonalization with overlap
     ethr =  2.58E-09,  avg # of iterations =  2.0

     total cpu time spent up to now is        6.9 secs

     total energy              =    -501.55869877 Ry
     estimated scf accuracy    <       0.00000116 Ry

     iteration # 18     ecut=    30.00 Ry     beta= 0.50
     Davidson diagonalization with overlap
     ethr =  4.54E-10,  avg # of iterations =  3.0

     total cpu time spent up to now is        7.0 secs

     total energy              =    -501.55869886 Ry
     estimated scf accuracy    <       0.00000131 Ry

     iteration # 19     ecut=    30.00 Ry     beta= 0.50
     Davidson diagonalization with overlap
     ethr =  4.54E-10,  avg # of iterations =  2.0

     total cpu time spent up to now is        7.1 secs

     End of self-consistent calculation

          k = 0.0000 0.0000 0.0000 ( 10988 PWs)   bands (ev):

    -5.1890  -4.1794  -4.1423  -4.0314  -3.9301  -3.8802  -3.6102  -3.1098
    -3.0076  -2.9332  -2.8933  -2.8121  -2.7274  -2.6763  -2.5713  -2.5591
    -2.5372  -2.3548  -2.2285  -1.8528  -1.7298  -1.6435  -1.5847  -1.3946
    -1.3600  -1.0145  -0.9687  -0.6660  -0.5783  -0.4711  -0.2839  -0.2668
    -0.1124   0.2469   0.3323   0.3639   0.4263   0.4921   0.5230   0.6105
     0.7172   0.7884   0.8533   0.9022   0.9617   1.0181   1.1273   1.2255
     1.2622   1.3014   1.4582   1.5637   1.7533   1.7920   1.9461   1.9717
     1.9804   2.1722   2.2340   2.3467   2.4065   2.5132   2.6049   2.7174
     2.7537   2.8816   2.9206   3.0334   3.0657   3.1320   3.1421   3.2322
     3.2920   3.3892   3.4546   3.5408   3.5777   3.6878   3.7708   3.8468
     4.1087   4.4835   4.5920   4.6958   4.7538   4.8355   4.9466   4.9992
     5.0701   5.0945   5.1707   5.3276   5.4352   5.4705   5.5319   5.6581
     5.6888   5.7077   5.7553   5.8104   5.8752   5.9222   5.9360   5.9717
     6.0446   6.1470   6.2049   6.2337   6.2888   6.3663   6.3873   6.4560
     6.5146   6.5831   6.6028   6.7211   6.7571   6.7862   6.8644   6.9157
     7.0336   7.0646   7.0929   7.1664   7.2860   7.3833   7.4303   7.4994
     7.5384   7.5848   7.6386   7.6879   7.7490   7.7923   7.8625   7.8992
     7.9594   8.0292   8.1096   8.1834   8.2515   8.2648   8.3331   8.4528
     8.5193   8.5216   8.5756   8.6629   8.6886   8.7509   8.8315   8.9253
     8.9732   9.0058

     the Fermi energy is     7.4937 ev

!    total energy              =    -501.55869877 Ry
     estimated scf accuracy    <       0.00000028 Ry
     smearing contrib. (-TS)   =      -0.14887779 Ry
     internal energy E=F+TS    =    -501.40982097 Ry

     The total energy is F=E-TS. E is the sum of the following terms:
     one-electron contribution =     200.89573261 Ry
     hartree contribution      =      20.91574246 Ry
     xc contribution           =    -151.50471198 Ry
     ewald contribution        =    -571.71658407 Ry

     convergence has been achieved in  19 iterations

     Forces acting on atoms (cartesian axes, Ry/au):

     atom    1 type  1   force =     0.05477340   -0.02028330    0.00389881
     atom    2 type  1   force =     0.02501848    0.00094196    0.00897118
     atom    3 type  1   force =     0.00730913   -0.00882456    0.01691158
     atom    4 type  1   force =     0.02538721    0.02355334    0.01447306
     atom    5 type  1   force =     0.02817241   -0.00082822    0.03397586
     atom    6 type  1   force =     0.00031247    0.01790468   -0.00243612
     atom    7 type  1   force =     0.00895529    0.01081682    0.01030714
     atom    8 type  1   force =     0.03115411   -0.01925562    0.02560490
     atom    9 type  1   force =     0.01135761    0.01028273   -0.03527354
     atom   10 type  1   force =    -0.00001296    0.02571193   -0.02905390
     atom   11 type  1   force =    -0.01866852   -0.01503237   -0.00699256
     atom   12 type  1   force =     0.02198113   -0.02318152   -0.06608724
     atom   13 type  1   force =     0.00763469    0.01041609    0.00111960
     atom   14 type  1   force =    -0.02058252   -0.01949782    0.02326116
     atom   15 type  1   force =    -0.00496347    0.00999429   -0.00821087
     atom   16 type  1   force =     0.01626361    0.00412415   -0.02835254
     atom   17 type  1   force =    -0.00932471   -0.04114672    0.00368052
     atom   18 type  1   force =     0.01516190   -0.01292707    0.00780629
     atom   19 type  1   force =    -0.00241156    0.01394622    0.01609303
     atom   20 type  1   force =     0.00419199    0.00713363    0.03822039
     atom   21 type  1   force =    -0.05933097   -0.03152000   -0.01772648
     atom   22 type  1   force =    -0.01351714   -0.01174089    0.01050022
     atom   23 type  1   force =    -0.00879074    0.02302081   -0.01642462
     atom   24 type  1   force =     0.00737803   -0.00820425    0.01826435
     atom   25 type  1   force =    -0.00728715    0.00190096    0.01776938
     atom   26 type  1   force =    -0.00001987   -0.00566407   -0.01384768
     atom   27 type  1   force =    -0.00187018    0.00837915   -0.01293870
     atom   28 type  1   force =    -0.01275180   -0.01792844   -0.01714697
     atom   29 type  1   force =     0.00777252   -0.01924486   -0.01470812
     atom   30 type  1   force =     0.04290839   -0.02135394   -0.00213990
     atom   31 type  1   force =    -0.05204570    0.02002697    0.00059825
     atom   32 type  1   force =    -0.00333214    0.00075148    0.03012183
     atom   33 type  1   force =     0.00499511   -0.01653436   -0.01761567
     atom   34 type  1   force =    -0.02004330   -0.01486659    0.00258389
     atom   35 type  1   force =     0.03004541    0.00141591   -0.00970988
     atom   36 type  1   force =     0.01307947    0.00579085   -0.00963827
     atom   37 type  1   force =    -0.00807871    0.00334719    0.01083050
     atom   38 type  1   force =     0.04542539    0.00145248    0.04367938
     atom   39 type  1   force =    -0.01710231    0.00129058   -0.01020010
     atom   40 type  1   force =     0.00046596   -0.03681777   -0.03466329
     atom   41 type  1   force =     0.00395462    0.01641691   -0.02071262
     atom   42 type  1   force =    -0.07066849   -0.08304703    0.04686110
     atom   43 type  1   force =    -0.00698606   -0.01886324   -0.01813062
     atom   44 type  1   force =    -0.03933976    0.03446206   -0.00453437
     atom   45 type  1   force =     0.02187921   -0.03321784    0.00854060
     atom   46 type  1   force =     0.03057943    0.04178050   -0.02151002
     atom   47 type  1   force =    -0.02585397   -0.00941788    0.01664280
     atom   48 type  1   force =     0.03360586    0.00265562   -0.01405925
     atom   49 type  1   force =    -0.03577270   -0.00506058   -0.02682067
     atom   50 type  1   force =    -0.02601011   -0.02448235    0.02318477
     atom   51 type  1   force =    -0.01348918    0.01363121   -0.02498646
     atom   52 type  1   force =    -0.00865470   -0.00136265    0.01601776
     atom   53 type  1   force =     0.02660260    0.02997014    0.04142615
     atom   54 type  1   force =    -0.00516055   -0.00470643   -0.00564906
     atom   55 type  1   force =     0.03838194    0.11125455   -0.07540774
     atom   56 type  1   force =    -0.00194081    0.01985265   -0.02545919
     atom   57 type  1   force =    -0.02092646    0.00635689   -0.01287369
     atom   58 type  1   force =    -0.00317154    0.01831996   -0.00473479
     atom   59 type  1   force =     0.00861020    0.00452798    0.01276528
     atom   60 type  1   force =    -0.01977479    0.00283131    0.02013989
     atom   61 type  1   force =    -0.01837777    0.01955677    0.02683741
     atom   62 type  1   force =    -0.01013277   -0.02594345    0.02712121
     atom   63 type  1   force =     0.00900803    0.02917878    0.01463023
     atom   64 type  1   force =    -0.01597220   -0.00204376    0.01520638

     Total force =     0.335668     Total SCF correction =     0.001068


     Computing stress (Cartesian axis) and pressure

          total   stress  (Ry/bohr**3)                   (kbar)     P=      -23.52
  -0.00023266   0.00002736   0.00003267          -34.23        4.03        4.81
   0.00002736  -0.00004973   0.00000443            4.03       -7.32        0.65
   0.00003267   0.00000443  -0.00019725            4.81        0.65      -29.02

 
     init_run     :      1.08s CPU      4.94s WALL (       1 calls)
     electrons    :      1.91s CPU      2.08s WALL (       1 calls)
     forces       :      0.03s CPU      0.04s WALL (       1 calls)
     stress       :      0.15s CPU      0.15s WALL (       1 calls)

     Called by init_run:
     wfcinit      :      0.54s CPU      4.22s WALL (       1 calls)
                                        4.22s GPU  (       1 calls)
     potinit      :      0.05s CPU      0.15s WALL (       1 calls)
     hinit0       :      0.47s CPU      0.50s WALL (       1 calls)

     Called by electrons:
     c_bands      :      1.10s CPU      1.19s WALL (      20 calls)
     sum_band     :      0.40s CPU      0.45s WALL (      20 calls)
     v_of_rho     :      0.19s CPU      0.30s WALL (      20 calls)
     mix_rho      :      0.18s CPU      0.20s WALL (      20 calls)

     Called by c_bands:
     init_us_2    :      0.07s CPU      0.08s WALL (      41 calls)
     init_us_2:gp :      0.07s CPU      0.07s WALL (      41 calls)
     regterg      :      0.93s CPU      1.00s WALL (      20 calls)

     Called by *egterg:
     rdiaghg      :      0.37s CPU      1.14s WALL (      78 calls)
                                        1.12s GPU  (      78 calls)
     h_psi        :      0.94s CPU      3.89s WALL (      80 calls)
                                        3.89s GPU  (      80 calls)
     g_psi        :      0.00s CPU      0.00s WALL (      59 calls)
                                        0.00s GPU  (      59 calls)

     Called by h_psi:
     h_psi:calbec :      0.51s CPU      3.39s WALL (      80 calls)
                                        3.38s GPU  (      80 calls)
     vloc_psi     :      0.38s CPU      0.45s WALL (      80 calls)
                                        0.45s GPU  (      80 calls)
     add_vuspsi   :      0.03s CPU      0.05s WALL (      80 calls)
                                        0.04s GPU  (      80 calls)

     General routines
     calbec       :      0.52s CPU      3.39s WALL (      85 calls)
     fft          :      0.62s CPU      0.76s WALL (     167 calls)
                                        0.14s GPU  (     106 calls)
     ffts         :      0.05s CPU      0.05s WALL (      20 calls)
     fftw         :      0.47s CPU      0.62s WALL (    2080 calls)
                                        0.54s GPU  (    2080 calls)
 
     Parallel routines
 
     PWSCF        :      3.22s CPU      7.30s WALL

 
   This run was terminated on:  10:47:19  10May2023            

=------------------------------------------------------------------------------=
   JOB DONE.
=------------------------------------------------------------------------------=
