An instance of this daemon is already running
An instance of this daemon is already running

     Program PWSCF v.7.1 starts on 10May2023 at 10:52:44 

     This program is part of the open-source Quantum ESPRESSO suite
     for quantum simulation of materials; please cite
         "P. Giannozzi et al., J. Phys.:Condens. Matter 21 395502 (2009);
         "P. Giannozzi et al., J. Phys.:Condens. Matter 29 465901 (2017);
         "P. Giannozzi et al., J. Chem. Phys. 152 154105 (2020);
          URL http://www.quantum-espresso.org", 
     in publications or presentations arising from this work. More details at
     http://www.quantum-espresso.org/quote

     Parallel version (MPI & OpenMP), running on       4 processor cores
     Number of MPI processes:                 4
     Threads/MPI process:                     1

     MPI processes distributed on     1 nodes
     753546 MiB available memory on the printing compute node when the environment starts
 
     Reading input from pw-si-94.in
Warning: card &CELL ignored
Warning: card / ignored

     Current dimensions of program PWSCF are:
     Max number of different atomic species (ntypx) = 10
     Max number of k-points (npk) =  40000
     Max angular momentum in pseudopotentials (lmaxx) =  4

     IMPORTANT: XC functional enforced from input :
     Exchange-correlation= PBE
                           (   1   4   3   4   0   0   0)
     Any further DFT definition will be discarded
     Please, verify this is what you really want


     gamma-point specific algorithms are used
 
     K-points division:     npool     =       2
     R & G space division:  proc/nbgrp/npool/nimage =       2
     Subspace diagonalization in iterative solution of the eigenvalue problem:
     a serial algorithm will be used

     Message from routine divide_et_impera:
     suboptimal parallelization: some nodes have no k-points
 
     Parallelization info
     --------------------
     sticks:   dense  smooth     PW     G-vecs:    dense   smooth      PW
     Min        1880    1880    493                86576    86576   11791
     Max        1881    1881    496                86581    86581   11792
     Sum        3761    3761    989               173157   173157   23583
 
     Using Slab Decomposition
 


     bravais-lattice index     =            0
     lattice parameter (alat)  =      19.8198  a.u.
     unit-cell volume          =    7785.6489 (a.u.)^3
     number of atoms/cell      =           64
     number of atomic types    =            1
     number of electrons       =       256.00
     number of Kohn-Sham states=          154
     kinetic-energy cutoff     =      30.0000  Ry
     charge density cutoff     =     120.0000  Ry
     scf convergence threshold =      1.0E-06
     mixing beta               =       0.5000
     number of iterations used =            8  plain     mixing
     Exchange-correlation= PBE
                           (   1   4   3   4   0   0   0)

     GPU acceleration is ACTIVE.
     GPU-aware MPI enabled

     Message from routine print_cuda_info:
     High GPU oversubscription detected. Are you sure this is what you want?

     celldm(1)=  19.819755  celldm(2)=   0.000000  celldm(3)=   0.000000
     celldm(4)=   0.000000  celldm(5)=   0.000000  celldm(6)=   0.000000

     crystal axes: (cart. coord. in units of alat)
               a(1) = (   1.000000   0.000000   0.000000 )  
               a(2) = (   0.000000   1.000000   0.000000 )  
               a(3) = (   0.000000   0.000000   1.000000 )  

     reciprocal axes: (cart. coord. in units 2 pi/alat)
               b(1) = (  1.000000  0.000000  0.000000 )  
               b(2) = (  0.000000  1.000000  0.000000 )  
               b(3) = (  0.000000  0.000000  1.000000 )  


     PseudoPot. # 1 for Si read from file:
     /home/ppiaggi/pseudos/Si_ONCV_PBE_sr.upf
     MD5 check sum: 8553c464762ac42b85b1eed164b4d029
     Pseudo is Norm-conserving, Zval =  4.0
     Generated using ONCVPSP code by D. R. Hamann
     Using radial grid of 1510 points,  4 beta functions with: 
                l(1) =   0
                l(2) =   0
                l(3) =   1
                l(4) =   1

     atomic species   valence    mass     pseudopotential
        Si             4.00    28.08500     Si( 1.00)

     No symmetry found



   Cartesian axes

     site n.     atom                  positions (alat units)
         1           Si  tau(   1) = (   0.2249780   0.7792650   0.0811801  )
         2           Si  tau(   2) = (   0.7559050   0.6478050   0.6828240  )
         3           Si  tau(   3) = (   0.3263190   0.7594340   0.6541890  )
         4           Si  tau(   4) = (   0.2600260   0.5933540   0.7854650  )
         5           Si  tau(   5) = (   0.6011670   0.5079590   0.1689730  )
         6           Si  tau(   6) = (   0.0588336   0.3942780   0.1503300  )
         7           Si  tau(   7) = (   0.5124900   0.2780970   0.0183834  )
         8           Si  tau(   8) = (   0.0364362   0.6148400   0.2455700  )
         9           Si  tau(   9) = (   0.1456810   0.1800380   0.2345180  )
        10           Si  tau(  10) = (   0.2921160   0.4152590   0.3164070  )
        11           Si  tau(  11) = (   0.6776320   0.3848760   0.3647400  )
        12           Si  tau(  12) = (   0.7947270   0.9954050   0.3252150  )
        13           Si  tau(  13) = (   0.0376213   0.0583258   0.3824790  )
        14           Si  tau(  14) = (   0.8659170   0.4366130   0.7101720  )
        15           Si  tau(  15) = (   0.9372200   0.7939540   0.5052080  )
        16           Si  tau(  16) = (   0.6020030   0.4081980   0.5868900  )
        17           Si  tau(  17) = (   0.1799370   0.3857280   0.7039600  )
        18           Si  tau(  18) = (   0.2210960   0.2744270   0.9230410  )
        19           Si  tau(  19) = (   0.4780040   0.7065330   0.0294210  )
        20           Si  tau(  20) = (   0.6997730   0.0650650   0.8734160  )
        21           Si  tau(  21) = (   0.2665190   0.7877720   0.4396820  )
        22           Si  tau(  22) = (   0.7507170   0.3271170   0.0401061  )
        23           Si  tau(  23) = (   0.6548490   0.1509220   0.5791130  )
        24           Si  tau(  24) = (   0.6767990   0.1330690   0.1702030  )
        25           Si  tau(  25) = (   0.3967420   0.2842560   0.5816350  )
        26           Si  tau(  26) = (   0.0817694   0.8537410   0.3248380  )
        27           Si  tau(  27) = (   0.3535880   0.1296350   0.7739850  )
        28           Si  tau(  28) = (   0.5163070   0.8347290   0.8108030  )
        29           Si  tau(  29) = (   0.9746810   0.8567260   0.0961595  )
        30           Si  tau(  30) = (   0.8888370   0.2866990   0.3165050  )
        31           Si  tau(  31) = (   0.9826930   0.3472100   0.9328020  )
        32           Si  tau(  32) = (   0.9030940   0.0861400   0.0557678  )
        33           Si  tau(  33) = (   0.1655350   0.5752440   0.9976100  )
        34           Si  tau(  34) = (   0.5216680   0.6352420   0.5803180  )
        35           Si  tau(  35) = (   0.2255900   0.0161877   0.5638700  )
        36           Si  tau(  36) = (   0.9443270   0.6321080   0.8882030  )
        37           Si  tau(  37) = (   0.7643180   0.7874400   0.2129170  )
        38           Si  tau(  38) = (   0.2905840   0.9821320   0.1518940  )
        39           Si  tau(  39) = (   0.4912980   0.9971760   0.5960060  )
        40           Si  tau(  40) = (   0.8632120   0.0842682   0.5830520  )
        41           Si  tau(  41) = (   0.6473010   0.6082940   0.8777140  )
        42           Si  tau(  42) = (   0.4663520   0.4761840   0.8113420  )
        43           Si  tau(  43) = (   0.1349470   0.0914025   0.9989420  )
        44           Si  tau(  44) = (   0.5690600   0.8836070   0.1217470  )
        45           Si  tau(  45) = (   0.6752380   0.8690110   0.4854320  )
        46           Si  tau(  46) = (   0.1343590   0.5402390   0.4723130  )
        47           Si  tau(  47) = (   0.6670280   0.2921510   0.8101340  )
        48           Si  tau(  48) = (   0.9442650   0.1633390   0.7859170  )
        49           Si  tau(  49) = (   0.5891150   0.6579510   0.3804750  )
        50           Si  tau(  50) = (   0.7401650   0.8827130   0.7122300  )
        51           Si  tau(  51) = (   0.0876585   0.2199130   0.5911780  )
        52           Si  tau(  52) = (   0.0397200   0.6361930   0.6669030  )
        53           Si  tau(  53) = (   0.4370350   0.9541240   0.3487030  )
        54           Si  tau(  54) = (   0.5608200   0.1886890   0.3484610  )
        55           Si  tau(  55) = (   0.3060710   0.1830790   0.4020720  )
        56           Si  tau(  56) = (   0.9596460   0.3819990   0.5114650  )
        57           Si  tau(  57) = (   0.8259010   0.5822290   0.0705002  )
        58           Si  tau(  58) = (   0.0647988   0.9327610   0.7141830  )
        59           Si  tau(  59) = (   0.4562030   0.0207094   0.9719900  )
        60           Si  tau(  60) = (   0.3567630   0.6458050   0.2691100  )
        61           Si  tau(  61) = (   0.3610090   0.4318710   0.0752565  )
        62           Si  tau(  62) = (   0.9224210   0.8544230   0.8810620  )
        63           Si  tau(  63) = (   0.8244660   0.6096950   0.4092690  )
        64           Si  tau(  64) = (   0.2408760   0.8852690   0.8636470  )

     number of k points=     1  Fermi-Dirac smearing, width (Ry)=  0.0100
                       cart. coord. in units 2pi/alat
        k(    1) = (   0.0000000   0.0000000   0.0000000), wk =   2.0000000

     Dense  grid:    86579 G-vectors     FFT dimensions: (  72,  72,  72)

     Estimated max dynamical RAM per process >     139.49 MB

     Estimated total dynamical RAM >     536.83 MB

     Initial potential from superposition of free atoms

     starting charge     255.9608, renormalised to     256.0000
     Starting wfcs are  256 randomized atomic wfcs

     total cpu time spent up to now is        5.0 secs

     Self-consistent Calculation

     iteration #  1     ecut=    30.00 Ry     beta= 0.50
     Davidson diagonalization with overlap
     ethr =  1.00E-02,  avg # of iterations =  3.0

     Threshold (ethr) on eigenvalues was too large:
     Diagonalizing with lowered threshold

     Davidson diagonalization with overlap
     ethr =  3.21E-04,  avg # of iterations =  4.0

     total cpu time spent up to now is        5.3 secs

     total energy              =    -501.17643462 Ry
     estimated scf accuracy    <       0.98425510 Ry

     iteration #  2     ecut=    30.00 Ry     beta= 0.50
     Davidson diagonalization with overlap
     ethr =  3.84E-04,  avg # of iterations =  5.0

     total cpu time spent up to now is        5.4 secs

     total energy              =    -500.86277431 Ry
     estimated scf accuracy    <       3.27235125 Ry

     iteration #  3     ecut=    30.00 Ry     beta= 0.50
     Davidson diagonalization with overlap
     ethr =  3.84E-04,  avg # of iterations =  5.0

     total cpu time spent up to now is        5.5 secs

     total energy              =    -501.16286618 Ry
     estimated scf accuracy    <       2.13932825 Ry

     iteration #  4     ecut=    30.00 Ry     beta= 0.50
     Davidson diagonalization with overlap
     ethr =  3.84E-04,  avg # of iterations =  3.0

     total cpu time spent up to now is        5.6 secs

     total energy              =    -501.30447648 Ry
     estimated scf accuracy    <       0.47374187 Ry

     iteration #  5     ecut=    30.00 Ry     beta= 0.50
     Davidson diagonalization with overlap
     ethr =  1.85E-04,  avg # of iterations =  2.0

     total cpu time spent up to now is        5.7 secs

     total energy              =    -501.33698709 Ry
     estimated scf accuracy    <       0.19481364 Ry

     iteration #  6     ecut=    30.00 Ry     beta= 0.50
     Davidson diagonalization with overlap
     ethr =  7.61E-05,  avg # of iterations =  2.0

     total cpu time spent up to now is        5.8 secs

     total energy              =    -501.35447901 Ry
     estimated scf accuracy    <       0.18418012 Ry

     iteration #  7     ecut=    30.00 Ry     beta= 0.50
     Davidson diagonalization with overlap
     ethr =  7.19E-05,  avg # of iterations =  1.0

     total cpu time spent up to now is        5.9 secs

     total energy              =    -501.36772389 Ry
     estimated scf accuracy    <       0.00757533 Ry

     iteration #  8     ecut=    30.00 Ry     beta= 0.50
     Davidson diagonalization with overlap
     c_bands:  1 eigenvalues not converged
     ethr =  2.96E-06,  avg # of iterations = 20.0

     total cpu time spent up to now is        6.1 secs

     total energy              =    -501.36861266 Ry
     estimated scf accuracy    <       0.01492932 Ry

     iteration #  9     ecut=    30.00 Ry     beta= 0.50
     Davidson diagonalization with overlap
     ethr =  2.96E-06,  avg # of iterations =  3.0

     total cpu time spent up to now is        6.2 secs

     total energy              =    -501.36994024 Ry
     estimated scf accuracy    <       0.00398912 Ry

     iteration # 10     ecut=    30.00 Ry     beta= 0.50
     Davidson diagonalization with overlap
     ethr =  1.56E-06,  avg # of iterations =  2.0

     total cpu time spent up to now is        6.3 secs

     total energy              =    -501.37020608 Ry
     estimated scf accuracy    <       0.00062086 Ry

     iteration # 11     ecut=    30.00 Ry     beta= 0.50
     Davidson diagonalization with overlap
     ethr =  2.43E-07,  avg # of iterations =  2.0

     total cpu time spent up to now is        6.4 secs

     total energy              =    -501.37025490 Ry
     estimated scf accuracy    <       0.00034299 Ry

     iteration # 12     ecut=    30.00 Ry     beta= 0.50
     Davidson diagonalization with overlap
     ethr =  1.34E-07,  avg # of iterations =  3.0

     total cpu time spent up to now is        6.5 secs

     total energy              =    -501.37028452 Ry
     estimated scf accuracy    <       0.00030942 Ry

     iteration # 13     ecut=    30.00 Ry     beta= 0.50
     Davidson diagonalization with overlap
     ethr =  1.21E-07,  avg # of iterations =  2.0

     total cpu time spent up to now is        6.6 secs

     total energy              =    -501.37030476 Ry
     estimated scf accuracy    <       0.00007532 Ry

     iteration # 14     ecut=    30.00 Ry     beta= 0.50
     Davidson diagonalization with overlap
     ethr =  2.94E-08,  avg # of iterations =  2.0

     total cpu time spent up to now is        6.7 secs

     total energy              =    -501.37031231 Ry
     estimated scf accuracy    <       0.00002884 Ry

     iteration # 15     ecut=    30.00 Ry     beta= 0.50
     Davidson diagonalization with overlap
     ethr =  1.13E-08,  avg # of iterations =  2.0

     total cpu time spent up to now is        6.8 secs

     total energy              =    -501.37031337 Ry
     estimated scf accuracy    <       0.00000656 Ry

     iteration # 16     ecut=    30.00 Ry     beta= 0.50
     Davidson diagonalization with overlap
     ethr =  2.56E-09,  avg # of iterations =  4.0

     total cpu time spent up to now is        6.9 secs

     total energy              =    -501.37031443 Ry
     estimated scf accuracy    <       0.00000660 Ry

     iteration # 17     ecut=    30.00 Ry     beta= 0.50
     Davidson diagonalization with overlap
     ethr =  2.56E-09,  avg # of iterations =  2.0

     total cpu time spent up to now is        7.0 secs

     total energy              =    -501.37031463 Ry
     estimated scf accuracy    <       0.00000317 Ry

     iteration # 18     ecut=    30.00 Ry     beta= 0.50
     Davidson diagonalization with overlap
     ethr =  1.24E-09,  avg # of iterations =  2.0

     total cpu time spent up to now is        7.1 secs

     End of self-consistent calculation

          k = 0.0000 0.0000 0.0000 ( 10816 PWs)   bands (ev):

    -5.0220  -3.9482  -3.9189  -3.8360  -3.7447  -3.6103  -3.5423  -2.9058
    -2.8201  -2.7601  -2.7173  -2.6419  -2.5248  -2.5095  -2.3894  -2.3195
    -2.2471  -2.0975  -2.0197  -1.5927  -1.5733  -1.4852  -1.2896  -1.2577
    -1.0463  -0.9381  -0.7837  -0.4070  -0.3891  -0.1591  -0.1319   0.0320
     0.2027   0.5067   0.5242   0.6078   0.6588   0.7540   0.8124   0.8379
     0.9036   0.9491   0.9801   1.0227   1.1138   1.2730   1.3942   1.4627
     1.5281   1.6279   1.7367   1.7669   1.9438   2.0723   2.0937   2.1533
     2.2122   2.2680   2.3615   2.4367   2.5179   2.6028   2.7540   2.7946
     2.8941   2.9221   3.0033   3.1225   3.2228   3.2528   3.2877   3.3863
     3.4374   3.4901   3.5802   3.6848   3.7658   3.8391   3.9318   4.0931
     4.3709   4.6497   4.8201   4.9451   5.0432   5.0938   5.1461   5.2349
     5.3437   5.4307   5.5190   5.6195   5.6435   5.7242   5.8308   5.9389
     5.9780   6.0031   6.0350   6.1266   6.1571   6.2081   6.3114   6.3327
     6.3873   6.4333   6.4955   6.5285   6.5627   6.5904   6.6404   6.6951
     6.7738   6.8036   6.8569   6.9069   6.9946   7.0317   7.0497   7.1270
     7.1493   7.2087   7.3147   7.3378   7.3751   7.4681   7.5455   7.5676
     7.6079   7.6999   7.7173   7.8349   7.8468   7.9344   8.0038   8.0933
     8.1658   8.1907   8.2257   8.3090   8.3772   8.4405   8.5250   8.5723
     8.6998   8.7078   8.7340   8.7855   8.9430   8.9995   9.0222   9.0777
     9.1252   9.1970

     the Fermi energy is     7.6054 ev

!    total energy              =    -501.37031440 Ry
     estimated scf accuracy    <       0.00000063 Ry
     smearing contrib. (-TS)   =      -0.15244315 Ry
     internal energy E=F+TS    =    -501.21787125 Ry

     The total energy is F=E-TS. E is the sum of the following terms:
     one-electron contribution =     212.12408428 Ry
     hartree contribution      =      17.10939293 Ry
     xc contribution           =    -151.23222452 Ry
     ewald contribution        =    -579.21912394 Ry

     convergence has been achieved in  18 iterations

     Forces acting on atoms (cartesian axes, Ry/au):

     atom    1 type  1   force =    -0.00113912   -0.00786401   -0.01699976
     atom    2 type  1   force =    -0.01678508   -0.00333746   -0.01634224
     atom    3 type  1   force =     0.05321779    0.00742853    0.01416957
     atom    4 type  1   force =    -0.01948015   -0.04581490    0.01264182
     atom    5 type  1   force =    -0.00061679   -0.00467989    0.01265318
     atom    6 type  1   force =    -0.00241784   -0.00324606    0.03812467
     atom    7 type  1   force =     0.02435603   -0.01326972   -0.02729127
     atom    8 type  1   force =    -0.01057708   -0.00023869    0.01354888
     atom    9 type  1   force =     0.01038415    0.02640747   -0.04122410
     atom   10 type  1   force =    -0.01291485    0.01899380   -0.02533028
     atom   11 type  1   force =     0.00916682    0.02263300   -0.00370142
     atom   12 type  1   force =     0.02380104   -0.01084381    0.00789149
     atom   13 type  1   force =    -0.05478722    0.01212154    0.04046824
     atom   14 type  1   force =    -0.01715038    0.02396912    0.03117456
     atom   15 type  1   force =    -0.01078256   -0.02062490    0.01185174
     atom   16 type  1   force =    -0.02217301   -0.00526150    0.01067356
     atom   17 type  1   force =     0.05048804    0.01739039    0.02852581
     atom   18 type  1   force =     0.01392348    0.05028054   -0.03589057
     atom   19 type  1   force =    -0.02076539   -0.03324036   -0.01345665
     atom   20 type  1   force =     0.02430505    0.01828906   -0.00408594
     atom   21 type  1   force =     0.00695971    0.01701050   -0.01651717
     atom   22 type  1   force =    -0.00039544    0.00648833   -0.00706196
     atom   23 type  1   force =    -0.03789752    0.03255831   -0.02315723
     atom   24 type  1   force =     0.02289291   -0.00846037   -0.02757312
     atom   25 type  1   force =    -0.01248934   -0.00195164    0.02983555
     atom   26 type  1   force =    -0.00906022   -0.04717347    0.00889550
     atom   27 type  1   force =    -0.00010793    0.00837298   -0.01178007
     atom   28 type  1   force =    -0.00883506    0.00335003   -0.01419699
     atom   29 type  1   force =     0.00852090    0.01438044    0.03191493
     atom   30 type  1   force =    -0.01200759    0.01308396   -0.02961695
     atom   31 type  1   force =     0.00115505   -0.00110033   -0.02520170
     atom   32 type  1   force =     0.00080474   -0.01952365   -0.02033154
     atom   33 type  1   force =     0.00654751    0.00170099   -0.01234491
     atom   34 type  1   force =     0.00129716   -0.00587765    0.07269469
     atom   35 type  1   force =    -0.00072941    0.00667156   -0.01883846
     atom   36 type  1   force =     0.03602387   -0.02707519   -0.01312544
     atom   37 type  1   force =     0.01589562   -0.01505850    0.00133035
     atom   38 type  1   force =     0.02557878    0.01780842    0.00821321
     atom   39 type  1   force =    -0.00848915   -0.02071256   -0.00212704
     atom   40 type  1   force =     0.02606331   -0.02881278    0.00336084
     atom   41 type  1   force =    -0.01888136    0.00484509    0.02428143
     atom   42 type  1   force =     0.01753172   -0.02036217    0.00947725
     atom   43 type  1   force =    -0.02668389   -0.03999656    0.02751543
     atom   44 type  1   force =     0.01382281    0.02943943    0.05474408
     atom   45 type  1   force =    -0.00295090   -0.01529725   -0.00311843
     atom   46 type  1   force =    -0.00784956   -0.00838642   -0.02514990
     atom   47 type  1   force =     0.00540643    0.01323598    0.00949711
     atom   48 type  1   force =     0.00693448   -0.01721233    0.00296244
     atom   49 type  1   force =     0.01825159    0.02857620   -0.06746456
     atom   50 type  1   force =    -0.00126053    0.00180110    0.01271260
     atom   51 type  1   force =    -0.01439229   -0.03852993    0.01313792
     atom   52 type  1   force =     0.01301934    0.01032178   -0.00620929
     atom   53 type  1   force =    -0.00996031    0.01234595   -0.01427231
     atom   54 type  1   force =    -0.05047331   -0.01258661    0.04271392
     atom   55 type  1   force =     0.04631303   -0.00674894   -0.00258662
     atom   56 type  1   force =     0.00932147    0.03266978   -0.03439171
     atom   57 type  1   force =    -0.04486073   -0.01787102    0.02632624
     atom   58 type  1   force =    -0.00335495    0.00208270    0.00892085
     atom   59 type  1   force =    -0.00344798    0.01333082   -0.02987416
     atom   60 type  1   force =     0.02661884   -0.01002529   -0.00599006
     atom   61 type  1   force =    -0.03395472    0.01364643    0.00462269
     atom   62 type  1   force =    -0.01850844    0.00869071   -0.02873740
     atom   63 type  1   force =    -0.00083736    0.00154263   -0.00916770
     atom   64 type  1   force =    -0.00158419    0.01971634    0.01827641

     Total force =     0.307614     Total SCF correction =     0.001639


     Computing stress (Cartesian axis) and pressure

          total   stress  (Ry/bohr**3)                   (kbar)     P=      -31.31
  -0.00023443   0.00002724  -0.00002250          -34.49        4.01       -3.31
   0.00002724  -0.00013297   0.00001532            4.01      -19.56        2.25
  -0.00002250   0.00001532  -0.00027116           -3.31        2.25      -39.89

 
     init_run     :      1.07s CPU      4.92s WALL (       1 calls)
     electrons    :      1.91s CPU      2.06s WALL (       1 calls)
     forces       :      0.03s CPU      0.04s WALL (       1 calls)
     stress       :      0.15s CPU      0.15s WALL (       1 calls)

     Called by init_run:
     wfcinit      :      0.54s CPU      4.20s WALL (       1 calls)
                                        4.20s GPU  (       1 calls)
     potinit      :      0.05s CPU      0.15s WALL (       1 calls)
     hinit0       :      0.47s CPU      0.50s WALL (       1 calls)

     Called by electrons:
     c_bands      :      1.15s CPU      1.22s WALL (      19 calls)
     sum_band     :      0.38s CPU      0.42s WALL (      19 calls)
     v_of_rho     :      0.19s CPU      0.29s WALL (      19 calls)
     mix_rho      :      0.17s CPU      0.19s WALL (      19 calls)

     Called by c_bands:
     init_us_2    :      0.07s CPU      0.07s WALL (      39 calls)
     init_us_2:gp :      0.07s CPU      0.07s WALL (      39 calls)
     regterg      :      0.98s CPU      1.05s WALL (      19 calls)

     Called by *egterg:
     rdiaghg      :      0.42s CPU      1.17s WALL (      87 calls)
                                        1.16s GPU  (      87 calls)
     h_psi        :      0.92s CPU      3.88s WALL (      89 calls)
                                        3.88s GPU  (      89 calls)
     g_psi        :      0.00s CPU      0.00s WALL (      69 calls)
                                        0.00s GPU  (      69 calls)

     Called by h_psi:
     h_psi:calbec :      0.50s CPU      3.38s WALL (      89 calls)
                                        3.37s GPU  (      89 calls)
     vloc_psi     :      0.37s CPU      0.44s WALL (      89 calls)
                                        0.44s GPU  (      89 calls)
     add_vuspsi   :      0.04s CPU      0.05s WALL (      89 calls)
                                        0.05s GPU  (      89 calls)

     General routines
     calbec       :      0.50s CPU      3.38s WALL (      94 calls)
     fft          :      0.62s CPU      0.76s WALL (     159 calls)
                                        0.14s GPU  (     101 calls)
     ffts         :      0.05s CPU      0.05s WALL (      19 calls)
     fftw         :      0.44s CPU      0.59s WALL (    2005 calls)
                                        0.52s GPU  (    2005 calls)
 
     Parallel routines
 
     PWSCF        :      3.22s CPU      7.26s WALL

 
   This run was terminated on:  10:52:51  10May2023            

=------------------------------------------------------------------------------=
   JOB DONE.
=------------------------------------------------------------------------------=
