An instance of this daemon is already running
An instance of this daemon is already running

     Program PWSCF v.7.1 starts on 10May2023 at 10:46:34 

     This program is part of the open-source Quantum ESPRESSO suite
     for quantum simulation of materials; please cite
         "P. Giannozzi et al., J. Phys.:Condens. Matter 21 395502 (2009);
         "P. Giannozzi et al., J. Phys.:Condens. Matter 29 465901 (2017);
         "P. Giannozzi et al., J. Chem. Phys. 152 154105 (2020);
          URL http://www.quantum-espresso.org", 
     in publications or presentations arising from this work. More details at
     http://www.quantum-espresso.org/quote

     Parallel version (MPI & OpenMP), running on       4 processor cores
     Number of MPI processes:                 4
     Threads/MPI process:                     1

     MPI processes distributed on     1 nodes
     753554 MiB available memory on the printing compute node when the environment starts
 
     Reading input from pw-si-56.in
Warning: card &CELL ignored
Warning: card / ignored

     Current dimensions of program PWSCF are:
     Max number of different atomic species (ntypx) = 10
     Max number of k-points (npk) =  40000
     Max angular momentum in pseudopotentials (lmaxx) =  4

     IMPORTANT: XC functional enforced from input :
     Exchange-correlation= PBE
                           (   1   4   3   4   0   0   0)
     Any further DFT definition will be discarded
     Please, verify this is what you really want


     gamma-point specific algorithms are used
 
     K-points division:     npool     =       2
     R & G space division:  proc/nbgrp/npool/nimage =       2
     Subspace diagonalization in iterative solution of the eigenvalue problem:
     a serial algorithm will be used

     Message from routine divide_et_impera:
     suboptimal parallelization: some nodes have no k-points
 
     Parallelization info
     --------------------
     sticks:   dense  smooth     PW     G-vecs:    dense   smooth      PW
     Min        1903    1903    502                88514    88514   12054
     Max        1906    1906    503                88515    88515   12057
     Sum        3809    3809   1005               177029   177029   24111
 
     Using Slab Decomposition
 


     bravais-lattice index     =            0
     lattice parameter (alat)  =      19.9798  a.u.
     unit-cell volume          =    7975.7663 (a.u.)^3
     number of atoms/cell      =           64
     number of atomic types    =            1
     number of electrons       =       256.00
     number of Kohn-Sham states=          154
     kinetic-energy cutoff     =      30.0000  Ry
     charge density cutoff     =     120.0000  Ry
     scf convergence threshold =      1.0E-06
     mixing beta               =       0.5000
     number of iterations used =            8  plain     mixing
     Exchange-correlation= PBE
                           (   1   4   3   4   0   0   0)

     GPU acceleration is ACTIVE.
     GPU-aware MPI enabled

     Message from routine print_cuda_info:
     High GPU oversubscription detected. Are you sure this is what you want?

     celldm(1)=  19.979785  celldm(2)=   0.000000  celldm(3)=   0.000000
     celldm(4)=   0.000000  celldm(5)=   0.000000  celldm(6)=   0.000000

     crystal axes: (cart. coord. in units of alat)
               a(1) = (   1.000000   0.000000   0.000000 )  
               a(2) = (   0.000000   1.000000   0.000000 )  
               a(3) = (   0.000000   0.000000   1.000000 )  

     reciprocal axes: (cart. coord. in units 2 pi/alat)
               b(1) = (  1.000000  0.000000  0.000000 )  
               b(2) = (  0.000000  1.000000  0.000000 )  
               b(3) = (  0.000000  0.000000  1.000000 )  


     PseudoPot. # 1 for Si read from file:
     /home/ppiaggi/pseudos/Si_ONCV_PBE_sr.upf
     MD5 check sum: 8553c464762ac42b85b1eed164b4d029
     Pseudo is Norm-conserving, Zval =  4.0
     Generated using ONCVPSP code by D. R. Hamann
     Using radial grid of 1510 points,  4 beta functions with: 
                l(1) =   0
                l(2) =   0
                l(3) =   1
                l(4) =   1

     atomic species   valence    mass     pseudopotential
        Si             4.00    28.08500     Si( 1.00)

     No symmetry found



   Cartesian axes

     site n.     atom                  positions (alat units)
         1           Si  tau(   1) = (   0.7153240   0.8184270   0.7563550  )
         2           Si  tau(   2) = (   0.6957080   0.2581300   0.2214000  )
         3           Si  tau(   3) = (   0.1593240   0.2856480   0.8278690  )
         4           Si  tau(   4) = (   0.1282920   0.5614920   0.7429590  )
         5           Si  tau(   5) = (   0.0977129   0.3915080   0.0671051  )
         6           Si  tau(   6) = (   0.4877490   0.9704620   0.1061210  )
         7           Si  tau(   7) = (   0.6530840   0.4040770   0.6137540  )
         8           Si  tau(   8) = (   0.4694480   0.3850940   0.0581367  )
         9           Si  tau(   9) = (   0.2676330   0.9471180   0.7560630  )
        10           Si  tau(  10) = (   0.7109480   0.6857100   0.4671880  )
        11           Si  tau(  11) = (   0.4584670   0.5863910   0.1584270  )
        12           Si  tau(  12) = (   0.2093990   0.7856640   0.4988360  )
        13           Si  tau(  13) = (   0.2549390   0.9124110   0.9854530  )
        14           Si  tau(  14) = (   0.8085000   0.2250410   0.7052610  )
        15           Si  tau(  15) = (   0.4560870   0.7149100   0.8893030  )
        16           Si  tau(  16) = (   0.2542620   0.6657560   0.0413515  )
        17           Si  tau(  17) = (   0.3987330   0.4579540   0.6794010  )
        18           Si  tau(  18) = (   0.4885720   0.6175220   0.5095120  )
        19           Si  tau(  19) = (   0.0658095   0.0215244   0.4361300  )
        20           Si  tau(  20) = (   0.9367720   0.6277410   0.0216899  )
        21           Si  tau(  21) = (   0.3153670   0.4704650   0.8750310  )
        22           Si  tau(  22) = (   0.5990040   0.9834590   0.6257320  )
        23           Si  tau(  23) = (   0.0483936   0.2290680   0.2712830  )
        24           Si  tau(  24) = (   0.8023100   0.9536760   0.1448960  )
        25           Si  tau(  25) = (   0.9763300   0.5496820   0.4988330  )
        26           Si  tau(  26) = (   0.2131600   0.4005780   0.3445660  )
        27           Si  tau(  27) = (   0.2806380   0.2003680   0.0964841  )
        28           Si  tau(  28) = (   0.3404700   0.1530540   0.8313210  )
        29           Si  tau(  29) = (   0.7397030   0.9053020   0.4492770  )
        30           Si  tau(  30) = (   0.7062960   0.3810150   0.9861480  )
        31           Si  tau(  31) = (   0.6122050   0.7976300   0.0437221  )
        32           Si  tau(  32) = (   0.6319490   0.0488364   0.2853070  )
        33           Si  tau(  33) = (   0.7725160   0.9616840   0.9147530  )
        34           Si  tau(  34) = (   0.9887070   0.8007190   0.1793990  )
        35           Si  tau(  35) = (   0.8760840   0.0890028   0.5293620  )
        36           Si  tau(  36) = (   0.0270285   0.7982720   0.8878650  )
        37           Si  tau(  37) = (   0.3815610   0.7368490   0.3474170  )
        38           Si  tau(  38) = (   0.6613450   0.1210200   0.8385750  )
        39           Si  tau(  39) = (   0.4106620   0.2559680   0.6268290  )
        40           Si  tau(  40) = (   0.8912880   0.1954430   0.0983650  )
        41           Si  tau(  41) = (   0.4173810   0.2546920   0.2790440  )
        42           Si  tau(  42) = (   0.9274980   0.5071840   0.8334600  )
        43           Si  tau(  43) = (   0.3340500   0.9633020   0.2865380  )
        44           Si  tau(  44) = (   0.9394940   0.8248740   0.6578190  )
        45           Si  tau(  45) = (   0.1570090   0.6206800   0.2514060  )
        46           Si  tau(  46) = (   0.0729496   0.0634295   0.7003700  )
        47           Si  tau(  47) = (   0.4456100   0.8071180   0.6722060  )
        48           Si  tau(  48) = (   0.1261750   0.0011904   0.1558480  )
        49           Si  tau(  49) = (   0.5919260   0.5194830   0.8260480  )
        50           Si  tau(  50) = (   0.2290540   0.5513190   0.5332390  )
        51           Si  tau(  51) = (   0.7883820   0.5840030   0.6660960  )
        52           Si  tau(  52) = (   0.5251560   0.4444060   0.3515590  )
        53           Si  tau(  53) = (   0.9280150   0.2760890   0.8539290  )
        54           Si  tau(  54) = (   0.9926840   0.0434691   0.9441730  )
        55           Si  tau(  55) = (   0.3267190   0.0091743   0.5183840  )
        56           Si  tau(  56) = (   0.7160650   0.5980400   0.1154360  )
        57           Si  tau(  57) = (   0.9546380   0.5076830   0.2583420  )
        58           Si  tau(  58) = (   0.5887960   0.1872570   0.4827060  )
        59           Si  tau(  59) = (   0.0286455   0.3422820   0.5846030  )
        60           Si  tau(  60) = (   0.5338640   0.1440510   0.9941210  )
        61           Si  tau(  61) = (   0.7402730   0.5401300   0.3067530  )
        62           Si  tau(  62) = (   0.9904740   0.7916440   0.4066340  )
        63           Si  tau(  63) = (   0.8529500   0.3075420   0.4002440  )
        64           Si  tau(  64) = (   0.2326390   0.2152020   0.5214590  )

     number of k points=     1  Fermi-Dirac smearing, width (Ry)=  0.0100
                       cart. coord. in units 2pi/alat
        k(    1) = (   0.0000000   0.0000000   0.0000000), wk =   2.0000000

     Dense  grid:    88515 G-vectors     FFT dimensions: (  72,  72,  72)

     Estimated max dynamical RAM per process >     142.48 MB

     Estimated total dynamical RAM >     548.30 MB

     Initial potential from superposition of free atoms

     starting charge     255.9608, renormalised to     256.0000
     Starting wfcs are  256 randomized atomic wfcs

     total cpu time spent up to now is        5.1 secs

     Self-consistent Calculation

     iteration #  1     ecut=    30.00 Ry     beta= 0.50
     Davidson diagonalization with overlap
     ethr =  1.00E-02,  avg # of iterations =  3.0

     Threshold (ethr) on eigenvalues was too large:
     Diagonalizing with lowered threshold

     Davidson diagonalization with overlap
     ethr =  4.11E-04,  avg # of iterations =  4.0

     total cpu time spent up to now is        5.3 secs

     total energy              =    -501.04208062 Ry
     estimated scf accuracy    <       1.26446917 Ry

     iteration #  2     ecut=    30.00 Ry     beta= 0.50
     Davidson diagonalization with overlap
     ethr =  4.94E-04,  avg # of iterations =  4.0

     total cpu time spent up to now is        5.4 secs

     total energy              =    -500.60600133 Ry
     estimated scf accuracy    <       5.11571198 Ry

     iteration #  3     ecut=    30.00 Ry     beta= 0.50
     Davidson diagonalization with overlap
     ethr =  4.94E-04,  avg # of iterations =  4.0

     total cpu time spent up to now is        5.6 secs

     total energy              =    -501.09345482 Ry
     estimated scf accuracy    <       2.37457527 Ry

     iteration #  4     ecut=    30.00 Ry     beta= 0.50
     Davidson diagonalization with overlap
     ethr =  4.94E-04,  avg # of iterations =  2.0

     total cpu time spent up to now is        5.7 secs

     total energy              =    -501.27116007 Ry
     estimated scf accuracy    <       0.53695598 Ry

     iteration #  5     ecut=    30.00 Ry     beta= 0.50
     Davidson diagonalization with overlap
     ethr =  2.10E-04,  avg # of iterations =  2.0

     total cpu time spent up to now is        5.7 secs

     total energy              =    -501.30754629 Ry
     estimated scf accuracy    <       0.16541558 Ry

     iteration #  6     ecut=    30.00 Ry     beta= 0.50
     Davidson diagonalization with overlap
     ethr =  6.46E-05,  avg # of iterations =  2.0

     total cpu time spent up to now is        5.8 secs

     total energy              =    -501.32350876 Ry
     estimated scf accuracy    <       0.19394766 Ry

     iteration #  7     ecut=    30.00 Ry     beta= 0.50
     Davidson diagonalization with overlap
     ethr =  6.46E-05,  avg # of iterations =  2.0

     total cpu time spent up to now is        5.9 secs

     total energy              =    -501.33799278 Ry
     estimated scf accuracy    <       0.00928277 Ry

     iteration #  8     ecut=    30.00 Ry     beta= 0.50
     Davidson diagonalization with overlap
     ethr =  3.63E-06,  avg # of iterations = 12.0

     total cpu time spent up to now is        6.1 secs

     total energy              =    -501.33948495 Ry
     estimated scf accuracy    <       0.01440513 Ry

     iteration #  9     ecut=    30.00 Ry     beta= 0.50
     Davidson diagonalization with overlap
     ethr =  3.63E-06,  avg # of iterations =  3.0

     total cpu time spent up to now is        6.2 secs

     total energy              =    -501.34060275 Ry
     estimated scf accuracy    <       0.00653815 Ry

     iteration # 10     ecut=    30.00 Ry     beta= 0.50
     Davidson diagonalization with overlap
     ethr =  2.55E-06,  avg # of iterations =  1.0

     total cpu time spent up to now is        6.3 secs

     total energy              =    -501.34105335 Ry
     estimated scf accuracy    <       0.00075214 Ry

     iteration # 11     ecut=    30.00 Ry     beta= 0.50
     Davidson diagonalization with overlap
     ethr =  2.94E-07,  avg # of iterations =  3.0

     total cpu time spent up to now is        6.4 secs

     total energy              =    -501.34109438 Ry
     estimated scf accuracy    <       0.00050470 Ry

     iteration # 12     ecut=    30.00 Ry     beta= 0.50
     Davidson diagonalization with overlap
     ethr =  1.97E-07,  avg # of iterations =  3.0

     total cpu time spent up to now is        6.5 secs

     total energy              =    -501.34114633 Ry
     estimated scf accuracy    <       0.00049931 Ry

     iteration # 13     ecut=    30.00 Ry     beta= 0.50
     Davidson diagonalization with overlap
     ethr =  1.95E-07,  avg # of iterations =  1.0

     total cpu time spent up to now is        6.6 secs

     total energy              =    -501.34117865 Ry
     estimated scf accuracy    <       0.00004919 Ry

     iteration # 14     ecut=    30.00 Ry     beta= 0.50
     Davidson diagonalization with overlap
     ethr =  1.92E-08,  avg # of iterations =  4.0

     total cpu time spent up to now is        6.7 secs

     total energy              =    -501.34118301 Ry
     estimated scf accuracy    <       0.00004405 Ry

     iteration # 15     ecut=    30.00 Ry     beta= 0.50
     Davidson diagonalization with overlap
     ethr =  1.72E-08,  avg # of iterations =  2.0

     total cpu time spent up to now is        6.8 secs

     total energy              =    -501.34118538 Ry
     estimated scf accuracy    <       0.00001162 Ry

     iteration # 16     ecut=    30.00 Ry     beta= 0.50
     Davidson diagonalization with overlap
     ethr =  4.54E-09,  avg # of iterations =  3.0

     total cpu time spent up to now is        6.9 secs

     total energy              =    -501.34118722 Ry
     estimated scf accuracy    <       0.00000579 Ry

     iteration # 17     ecut=    30.00 Ry     beta= 0.50
     Davidson diagonalization with overlap
     ethr =  2.26E-09,  avg # of iterations =  2.0

     total cpu time spent up to now is        7.0 secs

     total energy              =    -501.34118742 Ry
     estimated scf accuracy    <       0.00000407 Ry

     iteration # 18     ecut=    30.00 Ry     beta= 0.50
     Davidson diagonalization with overlap
     ethr =  1.59E-09,  avg # of iterations =  1.0

     total cpu time spent up to now is        7.0 secs

     End of self-consistent calculation

          k = 0.0000 0.0000 0.0000 ( 11060 PWs)   bands (ev):

    -5.2113  -4.3038  -4.1766  -4.0504  -3.9810  -3.8202  -3.7193  -3.2674
    -3.0654  -2.9961  -2.9678  -2.8502  -2.7616  -2.6824  -2.6020  -2.6007
    -2.5307  -2.4878  -2.3058  -1.9857  -1.8339  -1.6558  -1.5477  -1.4222
    -1.3099  -1.2697  -1.0018  -0.7650  -0.5447  -0.4201  -0.3283  -0.2085
    -0.0979   0.1022   0.1408   0.2356   0.3816   0.4238   0.5378   0.5874
     0.6196   0.7019   0.7688   0.8014   0.8384   0.8813   1.0048   1.0735
     1.3270   1.3810   1.4992   1.6358   1.7054   1.7295   1.8649   1.9161
     1.9730   2.0827   2.1729   2.1826   2.2333   2.4283   2.4920   2.5762
     2.7240   2.8025   2.8356   2.9097   2.9793   3.0049   3.0629   3.1874
     3.2593   3.2909   3.3506   3.4310   3.5307   3.6265   3.7420   3.8426
     4.1237   4.4272   4.5126   4.5543   4.6602   4.7073   4.8186   4.9220
     5.0207   5.0789   5.1067   5.1926   5.2818   5.3470   5.4318   5.5082
     5.5498   5.6308   5.6805   5.7735   5.8135   5.8455   5.8998   5.9432
     6.0325   6.0545   6.1412   6.1938   6.2095   6.3279   6.3935   6.4412
     6.5349   6.5545   6.6246   6.6633   6.6747   6.7571   6.8298   6.8573
     6.9156   6.9783   7.0495   7.0701   7.1745   7.2167   7.2655   7.3432
     7.4263   7.4916   7.5158   7.5369   7.6329   7.6725   7.7133   7.8530
     7.8962   7.9248   7.9873   8.0231   8.0623   8.1483   8.1998   8.3088
     8.3357   8.3844   8.4450   8.5240   8.5439   8.6847   8.7741   8.7882
     8.9175   8.9610

     the Fermi energy is     7.3692 ev

!    total energy              =    -501.34118704 Ry
     estimated scf accuracy    <       0.00000084 Ry
     smearing contrib. (-TS)   =      -0.15227783 Ry
     internal energy E=F+TS    =    -501.18890921 Ry

     The total energy is F=E-TS. E is the sum of the following terms:
     one-electron contribution =     199.33303712 Ry
     hartree contribution      =      20.83300463 Ry
     xc contribution           =    -151.12936102 Ry
     ewald contribution        =    -570.22558994 Ry

     convergence has been achieved in  18 iterations

     Forces acting on atoms (cartesian axes, Ry/au):

     atom    1 type  1   force =     0.01092680   -0.02644066   -0.02894864
     atom    2 type  1   force =     0.00880995    0.01107676   -0.00455755
     atom    3 type  1   force =    -0.01314207    0.02939720   -0.01245488
     atom    4 type  1   force =     0.01828744   -0.00958716   -0.01122593
     atom    5 type  1   force =     0.00088167   -0.01018700    0.01012071
     atom    6 type  1   force =    -0.02488343   -0.02353747    0.06253487
     atom    7 type  1   force =     0.01610394   -0.02884090    0.00299634
     atom    8 type  1   force =    -0.00963940   -0.03071376   -0.02134538
     atom    9 type  1   force =     0.00671476    0.01140568   -0.00085995
     atom   10 type  1   force =    -0.01658833   -0.00401987    0.02907278
     atom   11 type  1   force =    -0.00554539    0.01876986    0.01602112
     atom   12 type  1   force =    -0.00799910   -0.01541672   -0.01433381
     atom   13 type  1   force =    -0.01753654   -0.05591608   -0.00373696
     atom   14 type  1   force =    -0.09534570   -0.01945251   -0.12660952
     atom   15 type  1   force =     0.02531989   -0.01984248   -0.00962440
     atom   16 type  1   force =     0.02095717   -0.00362171   -0.02246247
     atom   17 type  1   force =     0.03717519    0.07037298   -0.04455690
     atom   18 type  1   force =     0.02206476    0.01010235    0.02383469
     atom   19 type  1   force =     0.03822562   -0.01261320   -0.02039704
     atom   20 type  1   force =    -0.00775143    0.00812565    0.03156464
     atom   21 type  1   force =    -0.02816105    0.01854846    0.06466601
     atom   22 type  1   force =    -0.01286843   -0.00848002    0.00972297
     atom   23 type  1   force =     0.01149837    0.01083593   -0.00751915
     atom   24 type  1   force =     0.00328886   -0.00832665   -0.02591457
     atom   25 type  1   force =     0.00371968   -0.00392326   -0.01295542
     atom   26 type  1   force =    -0.00259993   -0.03084664    0.00389855
     atom   27 type  1   force =    -0.00574473    0.01054484    0.00583521
     atom   28 type  1   force =     0.03892384   -0.01688379   -0.00835201
     atom   29 type  1   force =    -0.00550105    0.03980870    0.01242571
     atom   30 type  1   force =    -0.02530377    0.01745066    0.01452416
     atom   31 type  1   force =     0.01020382   -0.02900665   -0.01700942
     atom   32 type  1   force =     0.00467582   -0.00429512    0.00586282
     atom   33 type  1   force =     0.05925480   -0.04130638    0.05773001
     atom   34 type  1   force =    -0.01081110    0.02153172   -0.00131450
     atom   35 type  1   force =    -0.02898467    0.00943612    0.02459483
     atom   36 type  1   force =     0.02415548    0.01585612    0.00137548
     atom   37 type  1   force =    -0.04135608   -0.00510293   -0.03447316
     atom   38 type  1   force =     0.01586844    0.00516779   -0.11290756
     atom   39 type  1   force =     0.05459395   -0.05628333    0.03077111
     atom   40 type  1   force =    -0.00186179   -0.00556888   -0.02297477
     atom   41 type  1   force =     0.00026203    0.01776604    0.00752939
     atom   42 type  1   force =    -0.01645698   -0.02784524   -0.00884684
     atom   43 type  1   force =     0.00456611   -0.00656991   -0.00473696
     atom   44 type  1   force =    -0.00692103    0.00737840    0.01265339
     atom   45 type  1   force =     0.02154623    0.01917369    0.00954188
     atom   46 type  1   force =     0.01128195   -0.01119149   -0.00362115
     atom   47 type  1   force =     0.01029443    0.01789537    0.01285251
     atom   48 type  1   force =     0.02823844   -0.00100539   -0.00095064
     atom   49 type  1   force =    -0.01819293    0.00021536    0.00530358
     atom   50 type  1   force =    -0.03721900    0.00221274    0.01950974
     atom   51 type  1   force =     0.00125811    0.02558692   -0.01359687
     atom   52 type  1   force =     0.02293096    0.00351626   -0.01348563
     atom   53 type  1   force =     0.09233789    0.07058281    0.12965818
     atom   54 type  1   force =    -0.01748121   -0.02628526    0.00584139
     atom   55 type  1   force =    -0.00955837   -0.01076763   -0.02315591
     atom   56 type  1   force =    -0.01471812    0.04213577   -0.12367320
     atom   57 type  1   force =     0.02205326   -0.01905901    0.02355908
     atom   58 type  1   force =    -0.03044096    0.00761854   -0.00113987
     atom   59 type  1   force =     0.02092873   -0.00175437    0.02380022
     atom   60 type  1   force =    -0.08993534    0.08151234    0.01818368
     atom   61 type  1   force =    -0.00218470   -0.04254238    0.09344702
     atom   62 type  1   force =     0.01308633    0.00429033    0.02180629
     atom   63 type  1   force =     0.00310001    0.00576251   -0.00486639
     atom   64 type  1   force =    -0.07880212    0.00315599   -0.02863093

     Total force =     0.448533     Total SCF correction =     0.001873


     Computing stress (Cartesian axis) and pressure

          total   stress  (Ry/bohr**3)                   (kbar)     P=      -26.71
  -0.00015912   0.00003749  -0.00001954          -23.41        5.51       -2.87
   0.00003749  -0.00027167  -0.00002279            5.51      -39.96       -3.35
  -0.00001954  -0.00002279  -0.00011387           -2.87       -3.35      -16.75

 
     init_run     :      1.13s CPU      4.98s WALL (       1 calls)
     electrons    :      1.85s CPU      1.99s WALL (       1 calls)
     forces       :      0.03s CPU      0.04s WALL (       1 calls)
     stress       :      0.15s CPU      0.16s WALL (       1 calls)

     Called by init_run:
     wfcinit      :      0.59s CPU      4.27s WALL (       1 calls)
                                        4.27s GPU  (       1 calls)
     potinit      :      0.05s CPU      0.14s WALL (       1 calls)
     hinit0       :      0.47s CPU      0.50s WALL (       1 calls)

     Called by electrons:
     c_bands      :      1.08s CPU      1.14s WALL (      19 calls)
     sum_band     :      0.39s CPU      0.43s WALL (      19 calls)
     v_of_rho     :      0.18s CPU      0.29s WALL (      19 calls)
     mix_rho      :      0.17s CPU      0.19s WALL (      19 calls)

     Called by c_bands:
     init_us_2    :      0.07s CPU      0.07s WALL (      39 calls)
     init_us_2:gp :      0.07s CPU      0.07s WALL (      39 calls)
     regterg      :      0.91s CPU      0.96s WALL (      19 calls)

     Called by *egterg:
     rdiaghg      :      0.36s CPU      1.12s WALL (      76 calls)
                                        1.10s GPU  (      76 calls)
     h_psi        :      0.97s CPU      3.93s WALL (      78 calls)
                                        3.92s GPU  (      78 calls)
     g_psi        :      0.00s CPU      0.00s WALL (      58 calls)
                                        0.00s GPU  (      58 calls)

     Called by h_psi:
     h_psi:calbec :      0.55s CPU      3.44s WALL (      78 calls)
                                        3.44s GPU  (      78 calls)
     vloc_psi     :      0.37s CPU      0.43s WALL (      78 calls)
                                        0.43s GPU  (      78 calls)
     add_vuspsi   :      0.03s CPU      0.05s WALL (      78 calls)
                                        0.04s GPU  (      78 calls)

     General routines
     calbec       :      0.56s CPU      3.44s WALL (      83 calls)
     fft          :      0.61s CPU      0.75s WALL (     159 calls)
                                        0.13s GPU  (     101 calls)
     ffts         :      0.05s CPU      0.05s WALL (      19 calls)
     fftw         :      0.46s CPU      0.60s WALL (    1981 calls)
                                        0.52s GPU  (    1981 calls)
 
     Parallel routines
 
     PWSCF        :      3.21s CPU      7.26s WALL

 
   This run was terminated on:  10:46:41  10May2023            

=------------------------------------------------------------------------------=
   JOB DONE.
=------------------------------------------------------------------------------=
