An instance of this daemon is already running

     Program PWSCF v.7.1 starts on 10May2023 at 10:48:21 

     This program is part of the open-source Quantum ESPRESSO suite
     for quantum simulation of materials; please cite
         "P. Giannozzi et al., J. Phys.:Condens. Matter 21 395502 (2009);
         "P. Giannozzi et al., J. Phys.:Condens. Matter 29 465901 (2017);
         "P. Giannozzi et al., J. Chem. Phys. 152 154105 (2020);
          URL http://www.quantum-espresso.org", 
     in publications or presentations arising from this work. More details at
     http://www.quantum-espresso.org/quote

     Parallel version (MPI & OpenMP), running on       4 processor cores
     Number of MPI processes:                 4
     Threads/MPI process:                     1

     MPI processes distributed on     1 nodes
     753537 MiB available memory on the printing compute node when the environment starts
 
     Reading input from pw-si-67.in
Warning: card &CELL ignored
Warning: card / ignored

     Current dimensions of program PWSCF are:
     Max number of different atomic species (ntypx) = 10
     Max number of k-points (npk) =  40000
     Max angular momentum in pseudopotentials (lmaxx) =  4

     IMPORTANT: XC functional enforced from input :
     Exchange-correlation= PBE
                           (   1   4   3   4   0   0   0)
     Any further DFT definition will be discarded
     Please, verify this is what you really want


     gamma-point specific algorithms are used
 
     K-points division:     npool     =       2
     R & G space division:  proc/nbgrp/npool/nimage =       2
     Subspace diagonalization in iterative solution of the eigenvalue problem:
     a serial algorithm will be used

     Message from routine divide_et_impera:
     suboptimal parallelization: some nodes have no k-points
 
     Parallelization info
     --------------------
     sticks:   dense  smooth     PW     G-vecs:    dense   smooth      PW
     Min        1887    1887    498                87350    87350   11922
     Max        1890    1890    499                87351    87351   11925
     Sum        3777    3777    997               174701   174701   23847
 
     Using Slab Decomposition
 


     bravais-lattice index     =            0
     lattice parameter (alat)  =      19.9104  a.u.
     unit-cell volume          =    7892.9249 (a.u.)^3
     number of atoms/cell      =           64
     number of atomic types    =            1
     number of electrons       =       256.00
     number of Kohn-Sham states=          154
     kinetic-energy cutoff     =      30.0000  Ry
     charge density cutoff     =     120.0000  Ry
     scf convergence threshold =      1.0E-06
     mixing beta               =       0.5000
     number of iterations used =            8  plain     mixing
     Exchange-correlation= PBE
                           (   1   4   3   4   0   0   0)

     GPU acceleration is ACTIVE.
     GPU-aware MPI enabled

     Message from routine print_cuda_info:
     High GPU oversubscription detected. Are you sure this is what you want?

     celldm(1)=  19.910370  celldm(2)=   0.000000  celldm(3)=   0.000000
     celldm(4)=   0.000000  celldm(5)=   0.000000  celldm(6)=   0.000000

     crystal axes: (cart. coord. in units of alat)
               a(1) = (   1.000000   0.000000   0.000000 )  
               a(2) = (   0.000000   1.000000   0.000000 )  
               a(3) = (   0.000000   0.000000   1.000000 )  

     reciprocal axes: (cart. coord. in units 2 pi/alat)
               b(1) = (  1.000000  0.000000  0.000000 )  
               b(2) = (  0.000000  1.000000  0.000000 )  
               b(3) = (  0.000000  0.000000  1.000000 )  


     PseudoPot. # 1 for Si read from file:
     /home/ppiaggi/pseudos/Si_ONCV_PBE_sr.upf
     MD5 check sum: 8553c464762ac42b85b1eed164b4d029
     Pseudo is Norm-conserving, Zval =  4.0
     Generated using ONCVPSP code by D. R. Hamann
     Using radial grid of 1510 points,  4 beta functions with: 
                l(1) =   0
                l(2) =   0
                l(3) =   1
                l(4) =   1

     atomic species   valence    mass     pseudopotential
        Si             4.00    28.08500     Si( 1.00)

     No symmetry found



   Cartesian axes

     site n.     atom                  positions (alat units)
         1           Si  tau(   1) = (   0.0395535   0.1182950   0.9734660  )
         2           Si  tau(   2) = (   0.9868930   0.5422200   0.7273670  )
         3           Si  tau(   3) = (   0.6509200   0.9402930   0.4305790  )
         4           Si  tau(   4) = (   0.3926900   0.8248290   0.9355880  )
         5           Si  tau(   5) = (   0.4328550   0.2499340   0.5125690  )
         6           Si  tau(   6) = (   0.3829520   0.4445570   0.8009890  )
         7           Si  tau(   7) = (   0.3028450   0.9650070   0.6342500  )
         8           Si  tau(   8) = (   0.2987590   0.3453810   0.2275090  )
         9           Si  tau(   9) = (   0.9393770   0.1171070   0.6536280  )
        10           Si  tau(  10) = (   0.5495610   0.4570530   0.5898390  )
        11           Si  tau(  11) = (   0.1490610   0.5140850   0.5596110  )
        12           Si  tau(  12) = (   0.2225750   0.9782100   0.1711580  )
        13           Si  tau(  13) = (   0.1596130   0.7904240   0.5939580  )
        14           Si  tau(  14) = (   0.4076580   0.9779460   0.4140120  )
        15           Si  tau(  15) = (   0.8189800   0.7024510   0.2208090  )
        16           Si  tau(  16) = (   0.8907870   0.8073920   0.8650740  )
        17           Si  tau(  17) = (   0.4630900   0.0251493   0.7670480  )
        18           Si  tau(  18) = (   0.4975540   0.5868250   0.0837476  )
        19           Si  tau(  19) = (   0.8998580   0.7632840   0.6364440  )
        20           Si  tau(  20) = (   0.7413300   0.3046820   0.4792800  )
        21           Si  tau(  21) = (   0.2884340   0.6255460   0.7217820  )
        22           Si  tau(  22) = (   0.1663170   0.8567600   0.8747750  )
        23           Si  tau(  23) = (   0.0503445   0.3691750   0.9811650  )
        24           Si  tau(  24) = (   0.1677430   0.5542020   0.0747471  )
        25           Si  tau(  25) = (   0.1408830   0.0592628   0.4215340  )
        26           Si  tau(  26) = (   0.8992760   0.3280490   0.7723670  )
        27           Si  tau(  27) = (   0.3404750   0.4954590   0.3869110  )
        28           Si  tau(  28) = (   0.4220140   0.0615772   0.0827641  )
        29           Si  tau(  29) = (   0.4300940   0.1804520   0.2903720  )
        30           Si  tau(  30) = (   0.7612620   0.6906650   0.9970950  )
        31           Si  tau(  31) = (   0.8040820   0.1022170   0.3332190  )
        32           Si  tau(  32) = (   0.1265960   0.0834483   0.7589490  )
        33           Si  tau(  33) = (   0.6070350   0.9203480   0.0190404  )
        34           Si  tau(  34) = (   0.5652340   0.6175040   0.8551370  )
        35           Si  tau(  35) = (   0.1072290   0.1982560   0.2049390  )
        36           Si  tau(  36) = (   0.4355440   0.3922140   0.0365004  )
        37           Si  tau(  37) = (   0.6175470   0.8363730   0.7659760  )
        38           Si  tau(  38) = (   0.8979750   0.3163360   0.2008150  )
        39           Si  tau(  39) = (   0.1067690   0.6441940   0.8800960  )
        40           Si  tau(  40) = (   0.7010630   0.7400210   0.5298300  )
        41           Si  tau(  41) = (   0.6341330   0.2889990   0.2716450  )
        42           Si  tau(  42) = (   0.9276720   0.9512680   0.4779000  )
        43           Si  tau(  43) = (   0.0305403   0.6912280   0.2160610  )
        44           Si  tau(  44) = (   0.0207129   0.8931400   0.0589083  )
        45           Si  tau(  45) = (   0.7785810   0.0078304   0.7846470  )
        46           Si  tau(  46) = (   0.3284400   0.7089870   0.1201740  )
        47           Si  tau(  47) = (   0.3738700   0.7594660   0.3467290  )
        48           Si  tau(  48) = (   0.5732700   0.5040930   0.3139720  )
        49           Si  tau(  49) = (   0.5932040   0.7837930   0.2442420  )
        50           Si  tau(  50) = (   0.0064376   0.2929570   0.4545910  )
        51           Si  tau(  51) = (   0.6397680   0.1230180   0.6034210  )
        52           Si  tau(  52) = (   0.0062446   0.5137840   0.3529530  )
        53           Si  tau(  53) = (   0.8047950   0.9499160   0.1650210  )
        54           Si  tau(  54) = (   0.1530520   0.8063700   0.3693010  )
        55           Si  tau(  55) = (   0.6368580   0.2927800   0.7855430  )
        56           Si  tau(  56) = (   0.4634510   0.6840910   0.5371370  )
        57           Si  tau(  57) = (   0.7947950   0.5481480   0.4384990  )
        58           Si  tau(  58) = (   0.8078890   0.4504380   0.0148241  )
        59           Si  tau(  59) = (   0.2139450   0.2547270   0.5675280  )
        60           Si  tau(  60) = (   0.6477120   0.2970010   0.0260830  )
        61           Si  tau(  61) = (   0.1938430   0.2905050   0.8132780  )
        62           Si  tau(  62) = (   0.4091330   0.1919420   0.9013190  )
        63           Si  tau(  63) = (   0.7382530   0.5282450   0.7111010  )
        64           Si  tau(  64) = (   0.7928000   0.1190090   0.9780790  )

     number of k points=     1  Fermi-Dirac smearing, width (Ry)=  0.0100
                       cart. coord. in units 2pi/alat
        k(    1) = (   0.0000000   0.0000000   0.0000000), wk =   2.0000000

     Dense  grid:    87351 G-vectors     FFT dimensions: (  72,  72,  72)

     Estimated max dynamical RAM per process >     141.10 MB

     Estimated total dynamical RAM >     543.07 MB

     Initial potential from superposition of free atoms

     starting charge     255.9608, renormalised to     256.0000
     Starting wfcs are  256 randomized atomic wfcs

     total cpu time spent up to now is        5.0 secs

     Self-consistent Calculation

     iteration #  1     ecut=    30.00 Ry     beta= 0.50
     Davidson diagonalization with overlap
     ethr =  1.00E-02,  avg # of iterations =  3.0

     Threshold (ethr) on eigenvalues was too large:
     Diagonalizing with lowered threshold

     Davidson diagonalization with overlap
     ethr =  3.89E-04,  avg # of iterations =  4.0

     total cpu time spent up to now is        5.3 secs

     total energy              =    -501.32769683 Ry
     estimated scf accuracy    <       1.16996613 Ry

     iteration #  2     ecut=    30.00 Ry     beta= 0.50
     Davidson diagonalization with overlap
     ethr =  4.57E-04,  avg # of iterations =  5.0

     total cpu time spent up to now is        5.4 secs

     total energy              =    -500.86560479 Ry
     estimated scf accuracy    <       5.31657154 Ry

     iteration #  3     ecut=    30.00 Ry     beta= 0.50
     Davidson diagonalization with overlap
     ethr =  4.57E-04,  avg # of iterations =  4.0

     total cpu time spent up to now is        5.5 secs

     total energy              =    -501.36214721 Ry
     estimated scf accuracy    <       2.11135974 Ry

     iteration #  4     ecut=    30.00 Ry     beta= 0.50
     Davidson diagonalization with overlap
     ethr =  4.57E-04,  avg # of iterations =  2.0

     total cpu time spent up to now is        5.6 secs

     total energy              =    -501.50443062 Ry
     estimated scf accuracy    <       0.56658555 Ry

     iteration #  5     ecut=    30.00 Ry     beta= 0.50
     Davidson diagonalization with overlap
     ethr =  2.21E-04,  avg # of iterations =  2.0

     total cpu time spent up to now is        5.7 secs

     total energy              =    -501.54082996 Ry
     estimated scf accuracy    <       0.23787121 Ry

     iteration #  6     ecut=    30.00 Ry     beta= 0.50
     Davidson diagonalization with overlap
     ethr =  9.29E-05,  avg # of iterations =  2.0

     total cpu time spent up to now is        5.8 secs

     total energy              =    -501.56726418 Ry
     estimated scf accuracy    <       0.11520957 Ry

     iteration #  7     ecut=    30.00 Ry     beta= 0.50
     Davidson diagonalization with overlap
     ethr =  4.50E-05,  avg # of iterations =  1.0

     total cpu time spent up to now is        5.9 secs

     total energy              =    -501.57675902 Ry
     estimated scf accuracy    <       0.00650939 Ry

     iteration #  8     ecut=    30.00 Ry     beta= 0.50
     Davidson diagonalization with overlap
     ethr =  2.54E-06,  avg # of iterations = 15.0

     total cpu time spent up to now is        6.0 secs

     total energy              =    -501.57707007 Ry
     estimated scf accuracy    <       0.02355404 Ry

     iteration #  9     ecut=    30.00 Ry     beta= 0.50
     Davidson diagonalization with overlap
     ethr =  2.54E-06,  avg # of iterations =  3.0

     total cpu time spent up to now is        6.1 secs

     total energy              =    -501.57887510 Ry
     estimated scf accuracy    <       0.00234330 Ry

     iteration # 10     ecut=    30.00 Ry     beta= 0.50
     Davidson diagonalization with overlap
     ethr =  9.15E-07,  avg # of iterations =  2.0

     total cpu time spent up to now is        6.2 secs

     total energy              =    -501.57904139 Ry
     estimated scf accuracy    <       0.00093093 Ry

     iteration # 11     ecut=    30.00 Ry     beta= 0.50
     Davidson diagonalization with overlap
     ethr =  3.64E-07,  avg # of iterations =  2.0

     total cpu time spent up to now is        6.3 secs

     total energy              =    -501.57909480 Ry
     estimated scf accuracy    <       0.00056253 Ry

     iteration # 12     ecut=    30.00 Ry     beta= 0.50
     Davidson diagonalization with overlap
     ethr =  2.20E-07,  avg # of iterations =  2.0

     total cpu time spent up to now is        6.4 secs

     total energy              =    -501.57914589 Ry
     estimated scf accuracy    <       0.00024420 Ry

     iteration # 13     ecut=    30.00 Ry     beta= 0.50
     Davidson diagonalization with overlap
     ethr =  9.54E-08,  avg # of iterations =  2.0

     total cpu time spent up to now is        6.5 secs

     total energy              =    -501.57916317 Ry
     estimated scf accuracy    <       0.00007868 Ry

     iteration # 14     ecut=    30.00 Ry     beta= 0.50
     Davidson diagonalization with overlap
     ethr =  3.07E-08,  avg # of iterations =  2.0

     total cpu time spent up to now is        6.6 secs

     total energy              =    -501.57917047 Ry
     estimated scf accuracy    <       0.00002396 Ry

     iteration # 15     ecut=    30.00 Ry     beta= 0.50
     Davidson diagonalization with overlap
     ethr =  9.36E-09,  avg # of iterations =  2.0

     total cpu time spent up to now is        6.7 secs

     total energy              =    -501.57917158 Ry
     estimated scf accuracy    <       0.00000475 Ry

     iteration # 16     ecut=    30.00 Ry     beta= 0.50
     Davidson diagonalization with overlap
     ethr =  1.86E-09,  avg # of iterations =  4.0

     total cpu time spent up to now is        6.8 secs

     total energy              =    -501.57917233 Ry
     estimated scf accuracy    <       0.00000991 Ry

     iteration # 17     ecut=    30.00 Ry     beta= 0.50
     Davidson diagonalization with overlap
     ethr =  1.86E-09,  avg # of iterations =  2.0

     total cpu time spent up to now is        6.9 secs

     total energy              =    -501.57917286 Ry
     estimated scf accuracy    <       0.00000302 Ry

     iteration # 18     ecut=    30.00 Ry     beta= 0.50
     Davidson diagonalization with overlap
     ethr =  1.18E-09,  avg # of iterations =  2.0

     total cpu time spent up to now is        7.0 secs

     End of self-consistent calculation

          k = 0.0000 0.0000 0.0000 ( 10988 PWs)   bands (ev):

    -5.1054  -4.0910  -4.0048  -3.9685  -3.8786  -3.7544  -3.6887  -3.1053
    -2.9271  -2.9133  -2.7974  -2.7731  -2.6598  -2.6339  -2.5746  -2.5045
    -2.4822  -2.4150  -2.2460  -1.8180  -1.6702  -1.6032  -1.5122  -1.4042
    -1.2943  -1.1899  -0.9967  -0.5686  -0.4766  -0.4134  -0.2807  -0.2075
    -0.0280   0.1740   0.2818   0.3032   0.4588   0.5263   0.6177   0.7314
     0.7750   0.8625   0.8966   0.9565   1.0179   1.1020   1.1872   1.2367
     1.2872   1.4393   1.4507   1.6454   1.6546   1.7304   1.8112   1.8967
     2.0117   2.2247   2.2799   2.4401   2.4996   2.5845   2.6435   2.7546
     2.8229   2.8513   2.8890   2.9591   3.0367   3.1331   3.2894   3.2925
     3.3684   3.4144   3.4481   3.5994   3.6104   3.7176   3.8025   3.8045
     3.8733   4.4038   4.6417   4.6814   4.7751   4.8068   4.8801   4.9788
     5.0700   5.0868   5.2067   5.2672   5.3507   5.5405   5.5843   5.6217
     5.7120   5.7375   5.8251   5.8669   5.8777   5.9033   5.9949   6.0403
     6.1159   6.2083   6.2403   6.2555   6.3469   6.3984   6.4756   6.5169
     6.6087   6.6357   6.7290   6.7449   6.7968   6.8599   6.9385   6.9739
     6.9907   7.1141   7.1548   7.2221   7.2242   7.2503   7.3613   7.3966
     7.4766   7.5383   7.5573   7.6565   7.7232   7.8153   7.8471   7.8925
     8.0026   8.0360   8.0850   8.2002   8.2521   8.2736   8.4731   8.5275
     8.5587   8.6027   8.6481   8.7625   8.7868   8.8541   8.9416   8.9629
     9.0444   9.1350

     the Fermi energy is     7.4469 ev

!    total energy              =    -501.57917280 Ry
     estimated scf accuracy    <       0.00000042 Ry
     smearing contrib. (-TS)   =      -0.15174892 Ry
     internal energy E=F+TS    =    -501.42742388 Ry

     The total energy is F=E-TS. E is the sum of the following terms:
     one-electron contribution =     206.16561116 Ry
     hartree contribution      =      18.48969811 Ry
     xc contribution           =    -151.46993546 Ry
     ewald contribution        =    -574.61279769 Ry

     convergence has been achieved in  18 iterations

     Forces acting on atoms (cartesian axes, Ry/au):

     atom    1 type  1   force =    -0.03919951    0.00637853    0.03368775
     atom    2 type  1   force =    -0.03073254   -0.01593911   -0.03067229
     atom    3 type  1   force =    -0.01094603    0.00878308   -0.01064679
     atom    4 type  1   force =    -0.00610825    0.00485783   -0.01100153
     atom    5 type  1   force =     0.03085608    0.01757201    0.01677420
     atom    6 type  1   force =     0.02372753   -0.03315817    0.00742197
     atom    7 type  1   force =    -0.02934014   -0.00269514   -0.04306572
     atom    8 type  1   force =    -0.03988131   -0.00635040   -0.04873134
     atom    9 type  1   force =    -0.01937270   -0.00079788   -0.03215329
     atom   10 type  1   force =    -0.02784310   -0.01455215    0.02152000
     atom   11 type  1   force =     0.01953106   -0.03676561   -0.01693466
     atom   12 type  1   force =    -0.03210767    0.00038972    0.01962381
     atom   13 type  1   force =    -0.01106642   -0.01495864    0.01935794
     atom   14 type  1   force =    -0.00015610   -0.00269989    0.01826338
     atom   15 type  1   force =    -0.06133755    0.02386117   -0.01077728
     atom   16 type  1   force =     0.03390631    0.03910480   -0.01476577
     atom   17 type  1   force =     0.05494657   -0.03970907   -0.01023670
     atom   18 type  1   force =     0.07525418    0.03039367    0.01837443
     atom   19 type  1   force =     0.04414406    0.00083234    0.01011628
     atom   20 type  1   force =     0.02385367   -0.00313411   -0.01340134
     atom   21 type  1   force =    -0.01803506    0.03439653   -0.02868210
     atom   22 type  1   force =     0.00953212    0.02954066   -0.00300462
     atom   23 type  1   force =    -0.03377809   -0.01698520   -0.01107921
     atom   24 type  1   force =    -0.01225230    0.01181031    0.01871876
     atom   25 type  1   force =    -0.00598476    0.01317980   -0.02819556
     atom   26 type  1   force =    -0.01147168    0.02064865    0.02007597
     atom   27 type  1   force =    -0.00853976    0.01652998    0.02491137
     atom   28 type  1   force =     0.01398054   -0.02261715    0.01180011
     atom   29 type  1   force =     0.02988961   -0.02222901   -0.00939625
     atom   30 type  1   force =    -0.03192386   -0.05499256    0.01671354
     atom   31 type  1   force =     0.00688045   -0.00285927    0.00149223
     atom   32 type  1   force =     0.03933605   -0.02877070    0.00054762
     atom   33 type  1   force =    -0.02104109    0.00441138    0.03330101
     atom   34 type  1   force =     0.02142498    0.02432917    0.02505942
     atom   35 type  1   force =     0.01100010   -0.00324267    0.00411182
     atom   36 type  1   force =    -0.02935354   -0.04786682   -0.01257972
     atom   37 type  1   force =    -0.02179349    0.01659297    0.00784774
     atom   38 type  1   force =     0.01312219    0.01589214    0.01283712
     atom   39 type  1   force =     0.02144733   -0.00359807   -0.01446772
     atom   40 type  1   force =    -0.02729696    0.00611868    0.02378288
     atom   41 type  1   force =     0.00106353   -0.01039792   -0.01232566
     atom   42 type  1   force =     0.00901040    0.03578228    0.01217643
     atom   43 type  1   force =     0.05224292   -0.01022512   -0.02374720
     atom   44 type  1   force =    -0.00593235    0.01562203   -0.00338234
     atom   45 type  1   force =     0.00659397   -0.00144804    0.00299301
     atom   46 type  1   force =    -0.02139628    0.01347104    0.01149930
     atom   47 type  1   force =    -0.01288290    0.00376471   -0.02518928
     atom   48 type  1   force =     0.01901160    0.01502624   -0.01051765
     atom   49 type  1   force =     0.00919256    0.00739370   -0.01778028
     atom   50 type  1   force =    -0.02072252   -0.01063919   -0.00769179
     atom   51 type  1   force =    -0.02939944    0.00348720    0.02537816
     atom   52 type  1   force =    -0.02094157   -0.03467783    0.01406441
     atom   53 type  1   force =     0.00420967   -0.00982099   -0.01888920
     atom   54 type  1   force =     0.01309641    0.02375584   -0.01434864
     atom   55 type  1   force =     0.01132503    0.01399843   -0.00173771
     atom   56 type  1   force =     0.01912114   -0.03499702    0.03842822
     atom   57 type  1   force =    -0.02987575   -0.00170598   -0.01460938
     atom   58 type  1   force =     0.04179388    0.02071181   -0.00546143
     atom   59 type  1   force =    -0.01810049    0.02299073    0.02565550
     atom   60 type  1   force =    -0.00421952   -0.01995806   -0.00006123
     atom   61 type  1   force =     0.05328488    0.00654533   -0.00348885
     atom   62 type  1   force =    -0.02174615    0.03000454    0.00405963
     atom   63 type  1   force =    -0.00457012   -0.02877509   -0.00134096
     atom   64 type  1   force =     0.00657017   -0.00161045    0.00976945

     Total force =     0.315689     Total SCF correction =     0.001300


     Computing stress (Cartesian axis) and pressure

          total   stress  (Ry/bohr**3)                   (kbar)     P=      -23.73
  -0.00014917   0.00001290   0.00000630          -21.94        1.90        0.93
   0.00001290  -0.00015804   0.00004317            1.90      -23.25        6.35
   0.00000630   0.00004317  -0.00017674            0.93        6.35      -26.00

 
     init_run     :      1.08s CPU      4.93s WALL (       1 calls)
     electrons    :      1.85s CPU      2.00s WALL (       1 calls)
     forces       :      0.04s CPU      0.04s WALL (       1 calls)
     stress       :      0.15s CPU      0.15s WALL (       1 calls)

     Called by init_run:
     wfcinit      :      0.53s CPU      4.21s WALL (       1 calls)
                                        4.21s GPU  (       1 calls)
     potinit      :      0.05s CPU      0.15s WALL (       1 calls)
     hinit0       :      0.47s CPU      0.49s WALL (       1 calls)

     Called by electrons:
     c_bands      :      1.09s CPU      1.16s WALL (      19 calls)
     sum_band     :      0.37s CPU      0.41s WALL (      19 calls)
     v_of_rho     :      0.18s CPU      0.29s WALL (      19 calls)
     mix_rho      :      0.18s CPU      0.19s WALL (      19 calls)

     Called by c_bands:
     init_us_2    :      0.07s CPU      0.07s WALL (      39 calls)
     init_us_2:gp :      0.07s CPU      0.07s WALL (      39 calls)
     regterg      :      0.92s CPU      0.99s WALL (      19 calls)

     Called by *egterg:
     rdiaghg      :      0.38s CPU      1.13s WALL (      79 calls)
                                        1.12s GPU  (      79 calls)
     h_psi        :      0.91s CPU      3.88s WALL (      81 calls)
                                        3.88s GPU  (      81 calls)
     g_psi        :      0.00s CPU      0.00s WALL (      61 calls)
                                        0.00s GPU  (      61 calls)

     Called by h_psi:
     h_psi:calbec :      0.50s CPU      3.38s WALL (      81 calls)
                                        3.38s GPU  (      81 calls)
     vloc_psi     :      0.37s CPU      0.44s WALL (      81 calls)
                                        0.44s GPU  (      81 calls)
     add_vuspsi   :      0.03s CPU      0.05s WALL (      81 calls)
                                        0.05s GPU  (      81 calls)

     General routines
     calbec       :      0.50s CPU      3.39s WALL (      86 calls)
     fft          :      0.62s CPU      0.75s WALL (     159 calls)
                                        0.14s GPU  (     101 calls)
     ffts         :      0.04s CPU      0.05s WALL (      19 calls)
     fftw         :      0.45s CPU      0.59s WALL (    1993 calls)
                                        0.52s GPU  (    1993 calls)
 
     Parallel routines
 
     PWSCF        :      3.16s CPU      7.21s WALL

 
   This run was terminated on:  10:48:28  10May2023            

=------------------------------------------------------------------------------=
   JOB DONE.
=------------------------------------------------------------------------------=
