An instance of this daemon is already running

     Program PWSCF v.7.1 starts on 10May2023 at 10:47:22 

     This program is part of the open-source Quantum ESPRESSO suite
     for quantum simulation of materials; please cite
         "P. Giannozzi et al., J. Phys.:Condens. Matter 21 395502 (2009);
         "P. Giannozzi et al., J. Phys.:Condens. Matter 29 465901 (2017);
         "P. Giannozzi et al., J. Chem. Phys. 152 154105 (2020);
          URL http://www.quantum-espresso.org", 
     in publications or presentations arising from this work. More details at
     http://www.quantum-espresso.org/quote

     Parallel version (MPI & OpenMP), running on       4 processor cores
     Number of MPI processes:                 4
     Threads/MPI process:                     1

     MPI processes distributed on     1 nodes
     753542 MiB available memory on the printing compute node when the environment starts
 
     Reading input from pw-si-61.in
Warning: card &CELL ignored
Warning: card / ignored

     Current dimensions of program PWSCF are:
     Max number of different atomic species (ntypx) = 10
     Max number of k-points (npk) =  40000
     Max angular momentum in pseudopotentials (lmaxx) =  4

     IMPORTANT: XC functional enforced from input :
     Exchange-correlation= PBE
                           (   1   4   3   4   0   0   0)
     Any further DFT definition will be discarded
     Please, verify this is what you really want


     gamma-point specific algorithms are used
 
     K-points division:     npool     =       2
     R & G space division:  proc/nbgrp/npool/nimage =       2
     Subspace diagonalization in iterative solution of the eigenvalue problem:
     a serial algorithm will be used

     Message from routine divide_et_impera:
     suboptimal parallelization: some nodes have no k-points
 
     Parallelization info
     --------------------
     sticks:   dense  smooth     PW     G-vecs:    dense   smooth      PW
     Min        1930    1930    504                90041    90041   12201
     Max        1931    1931    505                90042    90042   12204
     Sum        3861    3861   1009               180083   180083   24405
 
     Using Slab Decomposition
 


     bravais-lattice index     =            0
     lattice parameter (alat)  =      20.0883  a.u.
     unit-cell volume          =    8106.4042 (a.u.)^3
     number of atoms/cell      =           64
     number of atomic types    =            1
     number of electrons       =       256.00
     number of Kohn-Sham states=          154
     kinetic-energy cutoff     =      30.0000  Ry
     charge density cutoff     =     120.0000  Ry
     scf convergence threshold =      1.0E-06
     mixing beta               =       0.5000
     number of iterations used =            8  plain     mixing
     Exchange-correlation= PBE
                           (   1   4   3   4   0   0   0)

     GPU acceleration is ACTIVE.
     GPU-aware MPI enabled

     Message from routine print_cuda_info:
     High GPU oversubscription detected. Are you sure this is what you want?

     celldm(1)=  20.088280  celldm(2)=   0.000000  celldm(3)=   0.000000
     celldm(4)=   0.000000  celldm(5)=   0.000000  celldm(6)=   0.000000

     crystal axes: (cart. coord. in units of alat)
               a(1) = (   1.000000   0.000000   0.000000 )  
               a(2) = (   0.000000   1.000000   0.000000 )  
               a(3) = (   0.000000   0.000000   1.000000 )  

     reciprocal axes: (cart. coord. in units 2 pi/alat)
               b(1) = (  1.000000  0.000000  0.000000 )  
               b(2) = (  0.000000  1.000000  0.000000 )  
               b(3) = (  0.000000  0.000000  1.000000 )  


     PseudoPot. # 1 for Si read from file:
     /home/ppiaggi/pseudos/Si_ONCV_PBE_sr.upf
     MD5 check sum: 8553c464762ac42b85b1eed164b4d029
     Pseudo is Norm-conserving, Zval =  4.0
     Generated using ONCVPSP code by D. R. Hamann
     Using radial grid of 1510 points,  4 beta functions with: 
                l(1) =   0
                l(2) =   0
                l(3) =   1
                l(4) =   1

     atomic species   valence    mass     pseudopotential
        Si             4.00    28.08500     Si( 1.00)

     No symmetry found



   Cartesian axes

     site n.     atom                  positions (alat units)
         1           Si  tau(   1) = (   0.7957210   0.0471434   0.2838630  )
         2           Si  tau(   2) = (   0.9726490   0.5489980   0.2328140  )
         3           Si  tau(   3) = (   0.1243140   0.3482460   0.4214500  )
         4           Si  tau(   4) = (   0.8067700   0.0064968   0.8945480  )
         5           Si  tau(   5) = (   0.2622700   0.5612860   0.7805870  )
         6           Si  tau(   6) = (   0.9619770   0.6642800   0.9910650  )
         7           Si  tau(   7) = (   0.5608150   0.6975280   0.5862040  )
         8           Si  tau(   8) = (   0.7286080   0.2962090   0.3644360  )
         9           Si  tau(   9) = (   0.7735150   0.6356410   0.2546920  )
        10           Si  tau(  10) = (   0.7773290   0.1120370   0.6139630  )
        11           Si  tau(  11) = (   0.5001900   0.9504690   0.3267770  )
        12           Si  tau(  12) = (   0.9555510   0.2754610   0.6274600  )
        13           Si  tau(  13) = (   0.9665760   0.9146290   0.2556120  )
        14           Si  tau(  14) = (   0.4761590   0.0088256   0.9870960  )
        15           Si  tau(  15) = (   0.6686080   0.3590190   0.9874450  )
        16           Si  tau(  16) = (   0.7917290   0.6950320   0.4802770  )
        17           Si  tau(  17) = (   0.4336420   0.6975130   0.3553730  )
        18           Si  tau(  18) = (   0.6744680   0.8497650   0.1645300  )
        19           Si  tau(  19) = (   0.0885740   0.5772910   0.4458560  )
        20           Si  tau(  20) = (   0.8140890   0.5197100   0.7572090  )
        21           Si  tau(  21) = (   0.7497210   0.5773200   0.0002384  )
        22           Si  tau(  22) = (   0.3537130   0.2584170   0.8404970  )
        23           Si  tau(  23) = (   0.6579580   0.2979340   0.6611310  )
        24           Si  tau(  24) = (   0.1565790   0.7947590   0.7766350  )
        25           Si  tau(  25) = (   0.9013150   0.8603400   0.0552606  )
        26           Si  tau(  26) = (   0.2747860   0.6293190   0.5469990  )
        27           Si  tau(  27) = (   0.2714450   0.0257264   0.8366220  )
        28           Si  tau(  28) = (   0.9483800   0.9686140   0.6760980  )
        29           Si  tau(  29) = (   0.8534330   0.2553780   0.9024610  )
        30           Si  tau(  30) = (   0.9884940   0.2579720   0.0721044  )
        31           Si  tau(  31) = (   0.1117580   0.9819820   0.9927270  )
        32           Si  tau(  32) = (   0.6607480   0.1027220   0.0686797  )
        33           Si  tau(  33) = (   0.5817750   0.7379140   0.9179550  )
        34           Si  tau(  34) = (   0.1123630   0.4510010   0.0022976  )
        35           Si  tau(  35) = (   0.4382100   0.4510140   0.5031640  )
        36           Si  tau(  36) = (   0.2047290   0.0745013   0.4060950  )
        37           Si  tau(  37) = (   0.3176510   0.3790240   0.2888990  )
        38           Si  tau(  38) = (   0.2483090   0.3360600   0.6521550  )
        39           Si  tau(  39) = (   0.4211940   0.5572910   0.0772339  )
        40           Si  tau(  40) = (   0.4583410   0.6225710   0.7763030  )
        41           Si  tau(  41) = (   0.1611930   0.1223530   0.6507080  )
        42           Si  tau(  42) = (   0.9090160   0.7574990   0.7668020  )
        43           Si  tau(  43) = (   0.0126478   0.4066170   0.7891320  )
        44           Si  tau(  44) = (   0.7033740   0.9443680   0.4620360  )
        45           Si  tau(  45) = (   0.4084000   0.1639820   0.3419290  )
        46           Si  tau(  46) = (   0.5275570   0.3867630   0.8201200  )
        47           Si  tau(  47) = (   0.5804190   0.2920120   0.1817900  )
        48           Si  tau(  48) = (   0.6879110   0.8555840   0.7409810  )
        49           Si  tau(  49) = (   0.2369070   0.5956460   0.2423970  )
        50           Si  tau(  50) = (   0.2415640   0.8505480   0.2412580  )
        51           Si  tau(  51) = (   0.2223120   0.8561670   0.5470940  )
        52           Si  tau(  52) = (   0.9199660   0.3346250   0.2743120  )
        53           Si  tau(  53) = (   0.9828920   0.8001140   0.4557030  )
        54           Si  tau(  54) = (   0.8842670   0.4503660   0.5297420  )
        55           Si  tau(  55) = (   0.4450440   0.8082490   0.1050920  )
        56           Si  tau(  56) = (   0.5737080   0.5131830   0.2377150  )
        57           Si  tau(  57) = (   0.4483630   0.2207690   0.5741620  )
        58           Si  tau(  58) = (   0.4575660   0.9108230   0.5584390  )
        59           Si  tau(  59) = (   0.6452410   0.4777230   0.5007170  )
        60           Si  tau(  60) = (   0.5570650   0.0460983   0.7438930  )
        61           Si  tau(  61) = (   0.3603520   0.1308950   0.1089520  )
        62           Si  tau(  62) = (   0.1152050   0.0769600   0.2166300  )
        63           Si  tau(  63) = (   0.2025600   0.7216690   0.0280020  )
        64           Si  tau(  64) = (   0.3042420   0.3504640   0.0354763  )

     number of k points=     1  Fermi-Dirac smearing, width (Ry)=  0.0100
                       cart. coord. in units 2pi/alat
        k(    1) = (   0.0000000   0.0000000   0.0000000), wk =   2.0000000

     Dense  grid:    90042 G-vectors     FFT dimensions: (  72,  72,  72)

     Estimated max dynamical RAM per process >     144.55 MB

     Estimated total dynamical RAM >     556.23 MB

     Initial potential from superposition of free atoms

     starting charge     255.9608, renormalised to     256.0000
     Starting wfcs are  256 randomized atomic wfcs

     total cpu time spent up to now is        5.0 secs

     Self-consistent Calculation

     iteration #  1     ecut=    30.00 Ry     beta= 0.50
     Davidson diagonalization with overlap
     ethr =  1.00E-02,  avg # of iterations =  3.0

     Threshold (ethr) on eigenvalues was too large:
     Diagonalizing with lowered threshold

     Davidson diagonalization with overlap
     ethr =  4.30E-04,  avg # of iterations =  4.0

     total cpu time spent up to now is        5.3 secs

     total energy              =    -501.09328595 Ry
     estimated scf accuracy    <       1.30950104 Ry

     iteration #  2     ecut=    30.00 Ry     beta= 0.50
     Davidson diagonalization with overlap
     ethr =  5.12E-04,  avg # of iterations =  4.0

     total cpu time spent up to now is        5.4 secs

     total energy              =    -500.34801748 Ry
     estimated scf accuracy    <      10.19650488 Ry

     iteration #  3     ecut=    30.00 Ry     beta= 0.50
     Davidson diagonalization with overlap
     ethr =  5.12E-04,  avg # of iterations =  5.0

     total cpu time spent up to now is        5.5 secs

     total energy              =    -501.26642236 Ry
     estimated scf accuracy    <       1.46009367 Ry

     iteration #  4     ecut=    30.00 Ry     beta= 0.50
     Davidson diagonalization with overlap
     ethr =  5.12E-04,  avg # of iterations =  2.0

     total cpu time spent up to now is        5.6 secs

     total energy              =    -501.30863642 Ry
     estimated scf accuracy    <       0.84912153 Ry

     iteration #  5     ecut=    30.00 Ry     beta= 0.50
     Davidson diagonalization with overlap
     ethr =  3.32E-04,  avg # of iterations =  2.0

     total cpu time spent up to now is        5.7 secs

     total energy              =    -501.35800621 Ry
     estimated scf accuracy    <       0.64135585 Ry

     iteration #  6     ecut=    30.00 Ry     beta= 0.50
     Davidson diagonalization with overlap
     ethr =  2.51E-04,  avg # of iterations =  2.0

     total cpu time spent up to now is        5.8 secs

     total energy              =    -501.41169190 Ry
     estimated scf accuracy    <       0.05126789 Ry

     iteration #  7     ecut=    30.00 Ry     beta= 0.50
     Davidson diagonalization with overlap
     ethr =  2.00E-05,  avg # of iterations = 11.0

     total cpu time spent up to now is        6.0 secs

     total energy              =    -501.41764803 Ry
     estimated scf accuracy    <       0.03247985 Ry

     iteration #  8     ecut=    30.00 Ry     beta= 0.50
     Davidson diagonalization with overlap
     ethr =  1.27E-05,  avg # of iterations =  3.0

     total cpu time spent up to now is        6.1 secs

     total energy              =    -501.42098821 Ry
     estimated scf accuracy    <       0.01987002 Ry

     iteration #  9     ecut=    30.00 Ry     beta= 0.50
     Davidson diagonalization with overlap
     ethr =  7.76E-06,  avg # of iterations =  2.0

     total cpu time spent up to now is        6.2 secs

     total energy              =    -501.42215436 Ry
     estimated scf accuracy    <       0.00474956 Ry

     iteration # 10     ecut=    30.00 Ry     beta= 0.50
     Davidson diagonalization with overlap
     ethr =  1.86E-06,  avg # of iterations = 19.0

     total cpu time spent up to now is        6.4 secs

     total energy              =    -501.42262883 Ry
     estimated scf accuracy    <       0.00345245 Ry

     iteration # 11     ecut=    30.00 Ry     beta= 0.50
     Davidson diagonalization with overlap
     ethr =  1.35E-06,  avg # of iterations =  2.0

     total cpu time spent up to now is        6.5 secs

     total energy              =    -501.42284045 Ry
     estimated scf accuracy    <       0.00041112 Ry

     iteration # 12     ecut=    30.00 Ry     beta= 0.50
     Davidson diagonalization with overlap
     ethr =  1.61E-07,  avg # of iterations =  4.0

     total cpu time spent up to now is        6.6 secs

     total energy              =    -501.42285856 Ry
     estimated scf accuracy    <       0.00110771 Ry

     iteration # 13     ecut=    30.00 Ry     beta= 0.50
     Davidson diagonalization with overlap
     ethr =  1.61E-07,  avg # of iterations =  3.0

     total cpu time spent up to now is        6.7 secs

     total energy              =    -501.42292114 Ry
     estimated scf accuracy    <       0.00045510 Ry

     iteration # 14     ecut=    30.00 Ry     beta= 0.50
     Davidson diagonalization with overlap
     ethr =  1.61E-07,  avg # of iterations =  2.0

     total cpu time spent up to now is        6.8 secs

     total energy              =    -501.42295476 Ry
     estimated scf accuracy    <       0.00005775 Ry

     iteration # 15     ecut=    30.00 Ry     beta= 0.50
     Davidson diagonalization with overlap
     ethr =  2.26E-08,  avg # of iterations =  2.0

     total cpu time spent up to now is        6.9 secs

     total energy              =    -501.42296136 Ry
     estimated scf accuracy    <       0.00001841 Ry

     iteration # 16     ecut=    30.00 Ry     beta= 0.50
     Davidson diagonalization with overlap
     ethr =  7.19E-09,  avg # of iterations =  2.0

     total cpu time spent up to now is        7.0 secs

     total energy              =    -501.42296283 Ry
     estimated scf accuracy    <       0.00001687 Ry

     iteration # 17     ecut=    30.00 Ry     beta= 0.50
     Davidson diagonalization with overlap
     ethr =  6.59E-09,  avg # of iterations =  2.0

     total cpu time spent up to now is        7.1 secs

     total energy              =    -501.42296410 Ry
     estimated scf accuracy    <       0.00000228 Ry

     iteration # 18     ecut=    30.00 Ry     beta= 0.50
     Davidson diagonalization with overlap
     ethr =  8.91E-10,  avg # of iterations =  3.0

     total cpu time spent up to now is        7.2 secs

     total energy              =    -501.42296432 Ry
     estimated scf accuracy    <       0.00000171 Ry

     iteration # 19     ecut=    30.00 Ry     beta= 0.50
     Davidson diagonalization with overlap
     ethr =  6.69E-10,  avg # of iterations =  2.0

     total cpu time spent up to now is        7.2 secs

     End of self-consistent calculation

          k = 0.0000 0.0000 0.0000 ( 11288 PWs)   bands (ev):

    -5.3348  -4.4345  -4.2606  -4.1873  -4.0730  -3.9734  -3.8872  -3.4782
    -3.2554  -3.1862  -3.1029  -3.0102  -2.9270  -2.8968  -2.8243  -2.7296
    -2.6834  -2.6286  -2.4496  -2.1126  -1.9066  -1.7825  -1.7016  -1.6728
    -1.5466  -1.4179  -1.0559  -0.9185  -0.8359  -0.6460  -0.4671  -0.4084
    -0.3164  -0.1121   0.0039   0.0376   0.1590   0.2137   0.3203   0.3785
     0.3843   0.4744   0.5780   0.7115   0.7438   0.8900   0.9233   0.9670
     1.0937   1.2805   1.2971   1.3714   1.4127   1.5297   1.6653   1.7741
     1.8125   1.8933   1.9731   2.0476   2.1917   2.2934   2.3755   2.4179
     2.5088   2.5850   2.6582   2.7441   2.7771   2.8162   2.9947   3.0474
     3.1002   3.1361   3.1850   3.4204   3.4369   3.5203   3.6666   3.8367
     3.9565   4.2849   4.3221   4.4325   4.5362   4.5726   4.6350   4.8038
     4.8517   4.9010   4.9652   5.0313   5.1455   5.2316   5.2564   5.2848
     5.3659   5.3893   5.5295   5.5666   5.6077   5.6881   5.6921   5.7126
     5.8074   5.8674   5.8837   5.9944   6.0448   6.0539   6.1162   6.1316
     6.2031   6.3128   6.3408   6.3771   6.4739   6.5116   6.5362   6.5905
     6.6327   6.7135   6.7961   6.9009   6.9890   7.0062   7.0402   7.0942
     7.1592   7.1755   7.2525   7.3033   7.3710   7.4413   7.4965   7.5475
     7.6595   7.7346   7.7590   7.8043   7.9057   7.9932   8.0299   8.0887
     8.1450   8.2115   8.3030   8.3790   8.3882   8.4628   8.5365   8.5997
     8.6554   8.7618

     the Fermi energy is     7.1255 ev

!    total energy              =    -501.42296392 Ry
     estimated scf accuracy    <       0.00000067 Ry
     smearing contrib. (-TS)   =      -0.15656408 Ry
     internal energy E=F+TS    =    -501.26639984 Ry

     The total energy is F=E-TS. E is the sum of the following terms:
     one-electron contribution =     190.49817896 Ry
     hartree contribution      =      23.40707880 Ry
     xc contribution           =    -150.86817299 Ry
     ewald contribution        =    -564.30348461 Ry

     convergence has been achieved in  19 iterations

     Forces acting on atoms (cartesian axes, Ry/au):

     atom    1 type  1   force =    -0.04543085    0.02841031   -0.01937088
     atom    2 type  1   force =     0.04851260   -0.01615154   -0.00911835
     atom    3 type  1   force =    -0.03223885   -0.01351772    0.00447550
     atom    4 type  1   force =     0.01180890    0.01960842   -0.00268409
     atom    5 type  1   force =    -0.08979070   -0.00944531   -0.02572870
     atom    6 type  1   force =     0.02550599   -0.02840080   -0.02080868
     atom    7 type  1   force =     0.01281762    0.01815100   -0.00418155
     atom    8 type  1   force =    -0.01682679   -0.03117009    0.01229629
     atom    9 type  1   force =    -0.07378538    0.04103839    0.00110079
     atom   10 type  1   force =    -0.00742258    0.00588706   -0.00994427
     atom   11 type  1   force =     0.00920697   -0.03344645    0.01620092
     atom   12 type  1   force =     0.04539115   -0.07167569   -0.02138059
     atom   13 type  1   force =     0.02062688    0.00518596    0.02684041
     atom   14 type  1   force =     0.01543893   -0.05882351   -0.07078392
     atom   15 type  1   force =     0.03203362    0.02320930   -0.00476985
     atom   16 type  1   force =    -0.05179556    0.00565091   -0.00646926
     atom   17 type  1   force =    -0.00798331    0.03041059    0.00964416
     atom   18 type  1   force =     0.00895473   -0.00885819    0.01304378
     atom   19 type  1   force =    -0.04768119   -0.00831066   -0.04011095
     atom   20 type  1   force =     0.03210438    0.00930722   -0.00280429
     atom   21 type  1   force =    -0.03309963    0.00007930   -0.02201630
     atom   22 type  1   force =    -0.01442320   -0.02089282   -0.00329464
     atom   23 type  1   force =    -0.02645003    0.00480540   -0.01942348
     atom   24 type  1   force =    -0.00370103   -0.00348768    0.00246512
     atom   25 type  1   force =    -0.01114293    0.03610205   -0.02618323
     atom   26 type  1   force =     0.03798018   -0.00764385    0.02016655
     atom   27 type  1   force =     0.00863467    0.00865033    0.01091013
     atom   28 type  1   force =     0.02329316    0.01056507    0.00343134
     atom   29 type  1   force =    -0.01619150   -0.02789991   -0.01543492
     atom   30 type  1   force =     0.03097653   -0.00918787    0.03840778
     atom   31 type  1   force =    -0.01661174   -0.00972991    0.01925093
     atom   32 type  1   force =     0.03584429   -0.00852884    0.02485591
     atom   33 type  1   force =     0.02744925   -0.00719342    0.01695923
     atom   34 type  1   force =    -0.03171514    0.00349544   -0.01122202
     atom   35 type  1   force =    -0.08635264   -0.00691525   -0.02329609
     atom   36 type  1   force =     0.04685964    0.00738969    0.06997839
     atom   37 type  1   force =    -0.00346072    0.00354155    0.01858217
     atom   38 type  1   force =     0.00215136    0.00792690    0.00253015
     atom   39 type  1   force =    -0.02040047   -0.00100605   -0.00064977
     atom   40 type  1   force =     0.07898146   -0.02874718   -0.00931121
     atom   41 type  1   force =    -0.05327601   -0.00512388   -0.01942325
     atom   42 type  1   force =     0.00794766   -0.01328075    0.02337220
     atom   43 type  1   force =    -0.00457312    0.02455640    0.04241156
     atom   44 type  1   force =    -0.01393943   -0.01060334    0.00763092
     atom   45 type  1   force =    -0.00793318   -0.00658673    0.00596701
     atom   46 type  1   force =     0.00866916    0.02942282    0.00291757
     atom   47 type  1   force =    -0.01113389   -0.02783101    0.01061766
     atom   48 type  1   force =     0.00897592   -0.01702366    0.02792867
     atom   49 type  1   force =    -0.00208599    0.01155165   -0.00712038
     atom   50 type  1   force =     0.02064763   -0.01606514   -0.01781756
     atom   51 type  1   force =     0.00438315    0.00646525    0.00674815
     atom   52 type  1   force =     0.05392678   -0.00115939   -0.01035690
     atom   53 type  1   force =     0.03923648    0.00321334    0.00017749
     atom   54 type  1   force =    -0.01715289    0.05619271   -0.01039949
     atom   55 type  1   force =     0.01164954    0.00749745   -0.00810000
     atom   56 type  1   force =    -0.00203029    0.01552448    0.02681478
     atom   57 type  1   force =     0.00891699    0.01104966   -0.00685697
     atom   58 type  1   force =     0.00842118   -0.01780658   -0.01635498
     atom   59 type  1   force =     0.06854643   -0.00540263   -0.00891935
     atom   60 type  1   force =    -0.00577666    0.01304576    0.00386589
     atom   61 type  1   force =    -0.04303675    0.08291428    0.05681032
     atom   62 type  1   force =    -0.01932259    0.00320444   -0.09258915
     atom   63 type  1   force =    -0.00555863   -0.00529336    0.00677219
     atom   64 type  1   force =     0.02643045    0.00315604    0.03375113

     Total force =     0.383768     Total SCF correction =     0.001648


     Computing stress (Cartesian axis) and pressure

          total   stress  (Ry/bohr**3)                   (kbar)     P=      -31.66
  -0.00008523   0.00000031  -0.00001065          -12.54        0.05       -1.57
   0.00000031  -0.00031545   0.00004169            0.05      -46.40        6.13
  -0.00001065   0.00004169  -0.00024490           -1.57        6.13      -36.03

 
     init_run     :      1.07s CPU      4.94s WALL (       1 calls)
     electrons    :      2.05s CPU      2.22s WALL (       1 calls)
     forces       :      0.04s CPU      0.04s WALL (       1 calls)
     stress       :      0.15s CPU      0.16s WALL (       1 calls)

     Called by init_run:
     wfcinit      :      0.53s CPU      4.22s WALL (       1 calls)
                                        4.22s GPU  (       1 calls)
     potinit      :      0.06s CPU      0.15s WALL (       1 calls)
     hinit0       :      0.47s CPU      0.50s WALL (       1 calls)

     Called by electrons:
     c_bands      :      1.24s CPU      1.32s WALL (      20 calls)
     sum_band     :      0.40s CPU      0.45s WALL (      20 calls)
     v_of_rho     :      0.20s CPU      0.30s WALL (      20 calls)
     mix_rho      :      0.19s CPU      0.20s WALL (      20 calls)

     Called by c_bands:
     init_us_2    :      0.07s CPU      0.08s WALL (      41 calls)
     init_us_2:gp :      0.07s CPU      0.07s WALL (      41 calls)
     regterg      :      1.06s CPU      1.14s WALL (      20 calls)

     Called by *egterg:
     rdiaghg      :      0.44s CPU      1.21s WALL (      98 calls)
                                        1.19s GPU  (      98 calls)
     h_psi        :      0.95s CPU      3.93s WALL (     100 calls)
                                        3.93s GPU  (     100 calls)
     g_psi        :      0.00s CPU      0.00s WALL (      79 calls)
                                        0.00s GPU  (      79 calls)

     Called by h_psi:
     h_psi:calbec :      0.50s CPU      3.39s WALL (     100 calls)
                                        3.39s GPU  (     100 calls)
     vloc_psi     :      0.39s CPU      0.47s WALL (     100 calls)
                                        0.47s GPU  (     100 calls)
     add_vuspsi   :      0.04s CPU      0.06s WALL (     100 calls)
                                        0.06s GPU  (     100 calls)

     General routines
     calbec       :      0.50s CPU      3.39s WALL (     105 calls)
     fft          :      0.64s CPU      0.77s WALL (     167 calls)
                                        0.14s GPU  (     106 calls)
     ffts         :      0.05s CPU      0.05s WALL (      20 calls)
     fftw         :      0.47s CPU      0.63s WALL (    2122 calls)
                                        0.55s GPU  (    2122 calls)
 
     Parallel routines
 
     PWSCF        :      3.36s CPU      7.45s WALL

 
   This run was terminated on:  10:47:29  10May2023            

=------------------------------------------------------------------------------=
   JOB DONE.
=------------------------------------------------------------------------------=
