An instance of this daemon is already running

     Program PWSCF v.7.1 starts on 10May2023 at 10:45: 7 

     This program is part of the open-source Quantum ESPRESSO suite
     for quantum simulation of materials; please cite
         "P. Giannozzi et al., J. Phys.:Condens. Matter 21 395502 (2009);
         "P. Giannozzi et al., J. Phys.:Condens. Matter 29 465901 (2017);
         "P. Giannozzi et al., J. Chem. Phys. 152 154105 (2020);
          URL http://www.quantum-espresso.org", 
     in publications or presentations arising from this work. More details at
     http://www.quantum-espresso.org/quote

     Parallel version (MPI & OpenMP), running on       4 processor cores
     Number of MPI processes:                 4
     Threads/MPI process:                     1

     MPI processes distributed on     1 nodes
     753562 MiB available memory on the printing compute node when the environment starts
 
     Reading input from pw-si-47.in
Warning: card &CELL ignored
Warning: card / ignored

     Current dimensions of program PWSCF are:
     Max number of different atomic species (ntypx) = 10
     Max number of k-points (npk) =  40000
     Max angular momentum in pseudopotentials (lmaxx) =  4

     IMPORTANT: XC functional enforced from input :
     Exchange-correlation= PBE
                           (   1   4   3   4   0   0   0)
     Any further DFT definition will be discarded
     Please, verify this is what you really want


     gamma-point specific algorithms are used
 
     K-points division:     npool     =       2
     R & G space division:  proc/nbgrp/npool/nimage =       2
     Subspace diagonalization in iterative solution of the eigenvalue problem:
     a serial algorithm will be used

     Message from routine divide_et_impera:
     suboptimal parallelization: some nodes have no k-points
 
     Parallelization info
     --------------------
     sticks:   dense  smooth     PW     G-vecs:    dense   smooth      PW
     Min        1900    1900    501                88452    88452   11935
     Max        1901    1901    504                88457    88457   11936
     Sum        3801    3801   1005               176909   176909   23871
 
     Using Slab Decomposition
 


     bravais-lattice index     =            0
     lattice parameter (alat)  =      19.9679  a.u.
     unit-cell volume          =    7961.5771 (a.u.)^3
     number of atoms/cell      =           64
     number of atomic types    =            1
     number of electrons       =       256.00
     number of Kohn-Sham states=          154
     kinetic-energy cutoff     =      30.0000  Ry
     charge density cutoff     =     120.0000  Ry
     scf convergence threshold =      1.0E-06
     mixing beta               =       0.5000
     number of iterations used =            8  plain     mixing
     Exchange-correlation= PBE
                           (   1   4   3   4   0   0   0)

     GPU acceleration is ACTIVE.
     GPU-aware MPI enabled

     Message from routine print_cuda_info:
     High GPU oversubscription detected. Are you sure this is what you want?

     celldm(1)=  19.967930  celldm(2)=   0.000000  celldm(3)=   0.000000
     celldm(4)=   0.000000  celldm(5)=   0.000000  celldm(6)=   0.000000

     crystal axes: (cart. coord. in units of alat)
               a(1) = (   1.000000   0.000000   0.000000 )  
               a(2) = (   0.000000   1.000000   0.000000 )  
               a(3) = (   0.000000   0.000000   1.000000 )  

     reciprocal axes: (cart. coord. in units 2 pi/alat)
               b(1) = (  1.000000  0.000000  0.000000 )  
               b(2) = (  0.000000  1.000000  0.000000 )  
               b(3) = (  0.000000  0.000000  1.000000 )  


     PseudoPot. # 1 for Si read from file:
     /home/ppiaggi/pseudos/Si_ONCV_PBE_sr.upf
     MD5 check sum: 8553c464762ac42b85b1eed164b4d029
     Pseudo is Norm-conserving, Zval =  4.0
     Generated using ONCVPSP code by D. R. Hamann
     Using radial grid of 1510 points,  4 beta functions with: 
                l(1) =   0
                l(2) =   0
                l(3) =   1
                l(4) =   1

     atomic species   valence    mass     pseudopotential
        Si             4.00    28.08500     Si( 1.00)

     No symmetry found



   Cartesian axes

     site n.     atom                  positions (alat units)
         1           Si  tau(   1) = (   0.8913370   0.4149550   0.1036990  )
         2           Si  tau(   2) = (   0.6610880   0.2431770   0.7665050  )
         3           Si  tau(   3) = (   0.5114460   0.9204270   0.6419840  )
         4           Si  tau(   4) = (   0.2407330   0.3791540   0.7507750  )
         5           Si  tau(   5) = (   0.2929230   0.3107040   0.9555270  )
         6           Si  tau(   6) = (   0.6009260   0.7863830   0.8180670  )
         7           Si  tau(   7) = (   0.5766250   0.5576850   0.7570550  )
         8           Si  tau(   8) = (   0.4614650   0.1742260   0.4237390  )
         9           Si  tau(   9) = (   0.4488860   0.1699210   0.6468840  )
        10           Si  tau(  10) = (   0.6155740   0.4638940   0.3688170  )
        11           Si  tau(  11) = (   0.9405180   0.7160430   0.6567210  )
        12           Si  tau(  12) = (   0.9639740   0.5576810   0.8376560  )
        13           Si  tau(  13) = (   0.1103420   0.8870840   0.7036790  )
        14           Si  tau(  14) = (   0.3141690   0.8110640   0.8041450  )
        15           Si  tau(  15) = (   0.3431180   0.6002530   0.6906200  )
        16           Si  tau(  16) = (   0.2571060   0.7585360   0.0074753  )
        17           Si  tau(  17) = (   0.0616529   0.5367350   0.5405080  )
        18           Si  tau(  18) = (   0.1698500   0.1358730   0.4038460  )
        19           Si  tau(  19) = (   0.4941590   0.4235650   0.5532730  )
        20           Si  tau(  20) = (   0.8112320   0.9072230   0.7796780  )
        21           Si  tau(  21) = (   0.7692400   0.3775840   0.6371160  )
        22           Si  tau(  22) = (   0.1814010   0.1629240   0.6624670  )
        23           Si  tau(  23) = (   0.7841040   0.0637885   0.2740320  )
        24           Si  tau(  24) = (   0.7910200   0.5941130   0.9972700  )
        25           Si  tau(  25) = (   0.6385380   0.1401810   0.1250640  )
        26           Si  tau(  26) = (   0.3327390   0.0316315   0.1464300  )
        27           Si  tau(  27) = (   0.1834220   0.8798100   0.3943610  )
        28           Si  tau(  28) = (   0.7494690   0.6328910   0.2327170  )
        29           Si  tau(  29) = (   0.6403850   0.7804830   0.0356546  )
        30           Si  tau(  30) = (   0.9249000   0.8346840   0.4225610  )
        31           Si  tau(  31) = (   0.7179070   0.0455029   0.6117640  )
        32           Si  tau(  32) = (   0.9445030   0.2439860   0.4913620  )
        33           Si  tau(  33) = (   0.3363270   0.0592818   0.9059040  )
        34           Si  tau(  34) = (   0.9880770   0.3674560   0.7221660  )
        35           Si  tau(  35) = (   0.9738060   0.0090831   0.5447620  )
        36           Si  tau(  36) = (   0.6316320   0.4298790   0.9145150  )
        37           Si  tau(  37) = (   0.0591468   0.1992410   0.0368827  )
        38           Si  tau(  38) = (   0.7293330   0.6212490   0.5511680  )
        39           Si  tau(  39) = (   0.1245540   0.0049913   0.9018830  )
        40           Si  tau(  40) = (   0.6791850   0.1766580   0.4569160  )
        41           Si  tau(  41) = (   0.9434680   0.1391490   0.7963840  )
        42           Si  tau(  42) = (   0.2642330   0.2434650   0.2170330  )
        43           Si  tau(  43) = (   0.4446090   0.6670430   0.0708494  )
        44           Si  tau(  44) = (   0.5936340   0.7859180   0.4562740  )
        45           Si  tau(  45) = (   0.7951920   0.2278520   0.9873230  )
        46           Si  tau(  46) = (   0.5079390   0.3271110   0.2150240  )
        47           Si  tau(  47) = (   0.9939720   0.7599110   0.0581764  )
        48           Si  tau(  48) = (   0.8891130   0.5428760   0.4036200  )
        49           Si  tau(  49) = (   0.1280980   0.9242790   0.1681050  )
        50           Si  tau(  50) = (   0.2512840   0.6966610   0.4967040  )
        51           Si  tau(  51) = (   0.4320980   0.4418980   0.0439888  )
        52           Si  tau(  52) = (   0.7373640   0.8304830   0.3002110  )
        53           Si  tau(  53) = (   0.5672500   0.0355058   0.8952090  )
        54           Si  tau(  54) = (   0.5334940   0.9361910   0.1774370  )
        55           Si  tau(  55) = (   0.8275280   0.9192570   0.0217808  )
        56           Si  tau(  56) = (   0.1750770   0.5560650   0.9361790  )
        57           Si  tau(  57) = (   0.0477661   0.6698690   0.2666990  )
        58           Si  tau(  58) = (   0.0006554   0.0840876   0.2194990  )
        59           Si  tau(  59) = (   0.2666440   0.5088340   0.3231260  )
        60           Si  tau(  60) = (   0.1208000   0.4269650   0.1362140  )
        61           Si  tau(  61) = (   0.2711390   0.3794620   0.5114550  )
        62           Si  tau(  62) = (   0.4444350   0.6599340   0.3398650  )
        63           Si  tau(  63) = (   0.8370210   0.3491780   0.3181940  )
        64           Si  tau(  64) = (   0.4126020   0.9369230   0.3828970  )

     number of k points=     1  Fermi-Dirac smearing, width (Ry)=  0.0100
                       cart. coord. in units 2pi/alat
        k(    1) = (   0.0000000   0.0000000   0.0000000), wk =   2.0000000

     Dense  grid:    88455 G-vectors     FFT dimensions: (  72,  72,  72)

     Estimated max dynamical RAM per process >     142.27 MB

     Estimated total dynamical RAM >     547.48 MB

     Initial potential from superposition of free atoms

     starting charge     255.9608, renormalised to     256.0000
     Starting wfcs are  256 randomized atomic wfcs

     total cpu time spent up to now is        5.0 secs

     Self-consistent Calculation

     iteration #  1     ecut=    30.00 Ry     beta= 0.50
     Davidson diagonalization with overlap
     ethr =  1.00E-02,  avg # of iterations =  3.0

     Threshold (ethr) on eigenvalues was too large:
     Diagonalizing with lowered threshold

     Davidson diagonalization with overlap
     ethr =  3.97E-04,  avg # of iterations =  4.0

     total cpu time spent up to now is        5.3 secs

     total energy              =    -501.28736823 Ry
     estimated scf accuracy    <       1.23108373 Ry

     iteration #  2     ecut=    30.00 Ry     beta= 0.50
     Davidson diagonalization with overlap
     ethr =  4.81E-04,  avg # of iterations =  4.0

     total cpu time spent up to now is        5.4 secs

     total energy              =    -500.78104093 Ry
     estimated scf accuracy    <       6.02749582 Ry

     iteration #  3     ecut=    30.00 Ry     beta= 0.50
     Davidson diagonalization with overlap
     ethr =  4.81E-04,  avg # of iterations =  5.0

     total cpu time spent up to now is        5.5 secs

     total energy              =    -501.35077338 Ry
     estimated scf accuracy    <       1.94529143 Ry

     iteration #  4     ecut=    30.00 Ry     beta= 0.50
     Davidson diagonalization with overlap
     ethr =  4.81E-04,  avg # of iterations =  2.0

     total cpu time spent up to now is        5.6 secs

     total energy              =    -501.47693320 Ry
     estimated scf accuracy    <       0.62140594 Ry

     iteration #  5     ecut=    30.00 Ry     beta= 0.50
     Davidson diagonalization with overlap
     ethr =  2.43E-04,  avg # of iterations =  2.0

     total cpu time spent up to now is        5.7 secs

     total energy              =    -501.51725670 Ry
     estimated scf accuracy    <       0.27983048 Ry

     iteration #  6     ecut=    30.00 Ry     beta= 0.50
     Davidson diagonalization with overlap
     ethr =  1.09E-04,  avg # of iterations =  2.0

     total cpu time spent up to now is        5.8 secs

     total energy              =    -501.54791944 Ry
     estimated scf accuracy    <       0.09973645 Ry

     iteration #  7     ecut=    30.00 Ry     beta= 0.50
     Davidson diagonalization with overlap
     ethr =  3.90E-05,  avg # of iterations =  2.0

     total cpu time spent up to now is        5.9 secs

     total energy              =    -501.55623023 Ry
     estimated scf accuracy    <       0.01258579 Ry

     iteration #  8     ecut=    30.00 Ry     beta= 0.50
     Davidson diagonalization with overlap
     ethr =  4.92E-06,  avg # of iterations = 14.0

     total cpu time spent up to now is        6.1 secs

     total energy              =    -501.55726863 Ry
     estimated scf accuracy    <       0.02539681 Ry

     iteration #  9     ecut=    30.00 Ry     beta= 0.50
     Davidson diagonalization with overlap
     ethr =  4.92E-06,  avg # of iterations =  2.0

     total cpu time spent up to now is        6.2 secs

     total energy              =    -501.55928301 Ry
     estimated scf accuracy    <       0.00195012 Ry

     iteration # 10     ecut=    30.00 Ry     beta= 0.50
     Davidson diagonalization with overlap
     ethr =  7.62E-07,  avg # of iterations =  3.0

     total cpu time spent up to now is        6.3 secs

     total energy              =    -501.55947398 Ry
     estimated scf accuracy    <       0.00112736 Ry

     iteration # 11     ecut=    30.00 Ry     beta= 0.50
     Davidson diagonalization with overlap
     ethr =  4.40E-07,  avg # of iterations =  2.0

     total cpu time spent up to now is        6.4 secs

     total energy              =    -501.55953380 Ry
     estimated scf accuracy    <       0.00088068 Ry

     iteration # 12     ecut=    30.00 Ry     beta= 0.50
     Davidson diagonalization with overlap
     ethr =  3.44E-07,  avg # of iterations =  2.0

     total cpu time spent up to now is        6.5 secs

     total energy              =    -501.55961484 Ry
     estimated scf accuracy    <       0.00025229 Ry

     iteration # 13     ecut=    30.00 Ry     beta= 0.50
     Davidson diagonalization with overlap
     ethr =  9.86E-08,  avg # of iterations =  2.0

     total cpu time spent up to now is        6.6 secs

     total energy              =    -501.55963504 Ry
     estimated scf accuracy    <       0.00005719 Ry

     iteration # 14     ecut=    30.00 Ry     beta= 0.50
     Davidson diagonalization with overlap
     ethr =  2.23E-08,  avg # of iterations =  2.0

     total cpu time spent up to now is        6.7 secs

     total energy              =    -501.55964209 Ry
     estimated scf accuracy    <       0.00002135 Ry

     iteration # 15     ecut=    30.00 Ry     beta= 0.50
     Davidson diagonalization with overlap
     ethr =  8.34E-09,  avg # of iterations =  2.0

     total cpu time spent up to now is        6.8 secs

     total energy              =    -501.55964299 Ry
     estimated scf accuracy    <       0.00000849 Ry

     iteration # 16     ecut=    30.00 Ry     beta= 0.50
     Davidson diagonalization with overlap
     ethr =  3.32E-09,  avg # of iterations =  3.0

     total cpu time spent up to now is        6.9 secs

     total energy              =    -501.55964355 Ry
     estimated scf accuracy    <       0.00001941 Ry

     iteration # 17     ecut=    30.00 Ry     beta= 0.50
     Davidson diagonalization with overlap
     ethr =  3.32E-09,  avg # of iterations =  2.0

     total cpu time spent up to now is        7.0 secs

     total energy              =    -501.55964478 Ry
     estimated scf accuracy    <       0.00000135 Ry

     iteration # 18     ecut=    30.00 Ry     beta= 0.50
     Davidson diagonalization with overlap
     ethr =  5.25E-10,  avg # of iterations =  4.0

     total cpu time spent up to now is        7.1 secs

     End of self-consistent calculation

          k = 0.0000 0.0000 0.0000 ( 11060 PWs)   bands (ev):

    -5.2307  -4.3000  -4.1722  -4.0330  -4.0229  -3.8644  -3.7765  -3.1706
    -3.1395  -2.9902  -2.9443  -2.8424  -2.8097  -2.7915  -2.7388  -2.6065
    -2.5247  -2.3968  -2.2997  -1.9522  -1.8378  -1.6591  -1.5928  -1.4781
    -1.3439  -1.3284  -1.1389  -0.6799  -0.5645  -0.5061  -0.4169  -0.1870
    -0.0934   0.0229   0.2018   0.2720   0.3179   0.3819   0.4448   0.5517
     0.5792   0.6503   0.6956   0.8095   0.8723   0.9369   1.0645   1.1516
     1.2289   1.3654   1.3940   1.5086   1.5659   1.7294   1.7992   1.9325
     2.0015   2.0443   2.1231   2.1694   2.4309   2.4817   2.5267   2.5799
     2.6543   2.7328   2.9063   2.9477   2.9902   3.0202   3.1336   3.2099
     3.2660   3.3562   3.4139   3.4794   3.5500   3.7188   3.7934   3.8396
     3.9815   4.4770   4.5226   4.6403   4.6984   4.7455   4.8083   4.8643
     4.9128   4.9471   5.0564   5.1647   5.2151   5.3416   5.4523   5.4898
     5.5793   5.6156   5.6732   5.7116   5.7905   5.7975   5.8342   5.9189
     5.9825   5.9982   6.0355   6.1603   6.2228   6.2779   6.3292   6.3564
     6.4087   6.4733   6.4830   6.5635   6.6553   6.6837   6.7565   6.8390
     6.9253   6.9335   7.0372   7.1436   7.2026   7.2680   7.2805   7.3280
     7.3893   7.4821   7.5050   7.5596   7.6370   7.6532   7.7679   7.8064
     7.8695   7.9260   7.9821   8.0291   8.1407   8.2128   8.2927   8.4315
     8.4981   8.5623   8.6083   8.6541   8.7056   8.7516   8.8238   8.8810
     8.9213   8.9956

     the Fermi energy is     7.3726 ev

!    total energy              =    -501.55964425 Ry
     estimated scf accuracy    <       0.00000096 Ry
     smearing contrib. (-TS)   =      -0.15316634 Ry
     internal energy E=F+TS    =    -501.40647791 Ry

     The total energy is F=E-TS. E is the sum of the following terms:
     one-electron contribution =     198.37468844 Ry
     hartree contribution      =      21.33764415 Ry
     xc contribution           =    -151.42864671 Ry
     ewald contribution        =    -569.69016379 Ry

     convergence has been achieved in  18 iterations

     Forces acting on atoms (cartesian axes, Ry/au):

     atom    1 type  1   force =     0.00872414   -0.02566491    0.01358944
     atom    2 type  1   force =    -0.02580854   -0.04495387    0.03806830
     atom    3 type  1   force =     0.00402265    0.01766131   -0.01488469
     atom    4 type  1   force =    -0.02346814    0.02108934   -0.02404912
     atom    5 type  1   force =    -0.04577673   -0.04665654   -0.01767357
     atom    6 type  1   force =    -0.00053408    0.01658817   -0.02294913
     atom    7 type  1   force =    -0.03623744    0.05238884   -0.09129994
     atom    8 type  1   force =    -0.01323107    0.00011316   -0.01648691
     atom    9 type  1   force =     0.00579394   -0.00889797    0.02168467
     atom   10 type  1   force =     0.00693815    0.01025236   -0.03006911
     atom   11 type  1   force =    -0.00714923    0.00881625    0.00096489
     atom   12 type  1   force =     0.00141190    0.03019967    0.01135138
     atom   13 type  1   force =    -0.01217102   -0.01057414   -0.00538962
     atom   14 type  1   force =     0.01163185    0.00632693   -0.04902208
     atom   15 type  1   force =     0.02076962   -0.01246856    0.00311866
     atom   16 type  1   force =    -0.04243738   -0.00004372    0.01335926
     atom   17 type  1   force =     0.05432049    0.00568901    0.02437731
     atom   18 type  1   force =    -0.03886851    0.00097683   -0.00876065
     atom   19 type  1   force =    -0.00138250   -0.00904340    0.02043188
     atom   20 type  1   force =    -0.00342778    0.00045527   -0.00331526
     atom   21 type  1   force =     0.02614151    0.02875696   -0.04090071
     atom   22 type  1   force =     0.01101386    0.02063711   -0.00050165
     atom   23 type  1   force =     0.00055793   -0.02261564    0.01127138
     atom   24 type  1   force =     0.00302106   -0.03073767    0.00026393
     atom   25 type  1   force =    -0.03008946    0.00420925   -0.00862242
     atom   26 type  1   force =    -0.03773854    0.00742028   -0.02578827
     atom   27 type  1   force =    -0.02239562    0.02341539   -0.01574617
     atom   28 type  1   force =    -0.00324116   -0.07559530   -0.02999433
     atom   29 type  1   force =    -0.00306190    0.00147794    0.00803212
     atom   30 type  1   force =     0.03965419   -0.03769455    0.00183527
     atom   31 type  1   force =     0.01329955   -0.06547170    0.07461354
     atom   32 type  1   force =     0.01764628   -0.00271816    0.00742845
     atom   33 type  1   force =     0.04054666    0.02426998    0.02054635
     atom   34 type  1   force =    -0.00058565   -0.02102737   -0.01337876
     atom   35 type  1   force =     0.00413014    0.02101074    0.02878237
     atom   36 type  1   force =     0.01674133   -0.02861286    0.04432783
     atom   37 type  1   force =    -0.01029478    0.02155631   -0.02068670
     atom   38 type  1   force =     0.00160208   -0.02464264    0.03237025
     atom   39 type  1   force =    -0.03142484    0.00151789    0.00044742
     atom   40 type  1   force =     0.03301283    0.05181023   -0.06100431
     atom   41 type  1   force =    -0.00863803    0.01703420    0.02791316
     atom   42 type  1   force =     0.01585216   -0.00734989   -0.00559568
     atom   43 type  1   force =     0.02046632   -0.01744324    0.05800309
     atom   44 type  1   force =    -0.02090720   -0.00585247    0.03394370
     atom   45 type  1   force =     0.02416111    0.01619368   -0.03054419
     atom   46 type  1   force =    -0.01360853   -0.03893327    0.03952361
     atom   47 type  1   force =     0.01295004   -0.00547805    0.00661661
     atom   48 type  1   force =    -0.00226167    0.01679245   -0.01030040
     atom   49 type  1   force =     0.05322916   -0.05686510   -0.01012115
     atom   50 type  1   force =    -0.01054699   -0.05457394    0.00969407
     atom   51 type  1   force =     0.06527628    0.03525380   -0.00124895
     atom   52 type  1   force =    -0.00190739    0.09905556   -0.00568772
     atom   53 type  1   force =    -0.00520415    0.00092635    0.00566321
     atom   54 type  1   force =     0.00883155    0.00615070    0.00442137
     atom   55 type  1   force =    -0.00312910   -0.00129287   -0.01200400
     atom   56 type  1   force =    -0.03659790   -0.01143593    0.02000961
     atom   57 type  1   force =    -0.00492256    0.02307980    0.01295504
     atom   58 type  1   force =    -0.02146215    0.04435447    0.02333203
     atom   59 type  1   force =    -0.01183746    0.02118556   -0.00956874
     atom   60 type  1   force =     0.01501200    0.00068155   -0.01237113
     atom   61 type  1   force =     0.00146300    0.00765464    0.01986808
     atom   62 type  1   force =    -0.00163629   -0.02106336   -0.03738974
     atom   63 type  1   force =    -0.02215530   -0.00793341   -0.00109027
     atom   64 type  1   force =     0.01591738    0.03063858   -0.00236294

     Total force =     0.369584     Total SCF correction =     0.001994


     Computing stress (Cartesian axis) and pressure

          total   stress  (Ry/bohr**3)                   (kbar)     P=      -22.44
  -0.00021556  -0.00003227   0.00002519          -31.71       -4.75        3.71
  -0.00003227  -0.00015359  -0.00003301           -4.75      -22.59       -4.86
   0.00002519  -0.00003301  -0.00008843            3.71       -4.86      -13.01

 
     init_run     :      1.10s CPU      4.95s WALL (       1 calls)
     electrons    :      1.90s CPU      2.06s WALL (       1 calls)
     forces       :      0.03s CPU      0.04s WALL (       1 calls)
     stress       :      0.15s CPU      0.16s WALL (       1 calls)

     Called by init_run:
     wfcinit      :      0.56s CPU      4.23s WALL (       1 calls)
                                        4.23s GPU  (       1 calls)
     potinit      :      0.05s CPU      0.15s WALL (       1 calls)
     hinit0       :      0.47s CPU      0.50s WALL (       1 calls)

     Called by electrons:
     c_bands      :      1.15s CPU      1.21s WALL (      19 calls)
     sum_band     :      0.37s CPU      0.42s WALL (      19 calls)
     v_of_rho     :      0.18s CPU      0.29s WALL (      19 calls)
     mix_rho      :      0.18s CPU      0.19s WALL (      19 calls)

     Called by c_bands:
     init_us_2    :      0.07s CPU      0.07s WALL (      39 calls)
     init_us_2:gp :      0.07s CPU      0.07s WALL (      39 calls)
     regterg      :      0.98s CPU      1.04s WALL (      19 calls)

     Called by *egterg:
     rdiaghg      :      0.40s CPU      1.16s WALL (      80 calls)
                                        1.14s GPU  (      80 calls)
     h_psi        :      0.96s CPU      3.91s WALL (      82 calls)
                                        3.91s GPU  (      82 calls)
     g_psi        :      0.00s CPU      0.00s WALL (      62 calls)
                                        0.00s GPU  (      62 calls)

     Called by h_psi:
     h_psi:calbec :      0.52s CPU      3.40s WALL (      82 calls)
                                        3.40s GPU  (      82 calls)
     vloc_psi     :      0.39s CPU      0.45s WALL (      82 calls)
                                        0.45s GPU  (      82 calls)
     add_vuspsi   :      0.03s CPU      0.05s WALL (      82 calls)
                                        0.05s GPU  (      82 calls)

     General routines
     calbec       :      0.52s CPU      3.40s WALL (      87 calls)
     fft          :      0.62s CPU      0.76s WALL (     159 calls)
                                        0.14s GPU  (     101 calls)
     ffts         :      0.04s CPU      0.05s WALL (      19 calls)
     fftw         :      0.47s CPU      0.60s WALL (    1997 calls)
                                        0.53s GPU  (    1997 calls)
 
     Parallel routines
 
     PWSCF        :      3.23s CPU      7.29s WALL

 
   This run was terminated on:  10:45:14  10May2023            

=------------------------------------------------------------------------------=
   JOB DONE.
=------------------------------------------------------------------------------=
