An instance of this daemon is already running

     Program PWSCF v.7.1 starts on 10May2023 at 10:47:41 

     This program is part of the open-source Quantum ESPRESSO suite
     for quantum simulation of materials; please cite
         "P. Giannozzi et al., J. Phys.:Condens. Matter 21 395502 (2009);
         "P. Giannozzi et al., J. Phys.:Condens. Matter 29 465901 (2017);
         "P. Giannozzi et al., J. Chem. Phys. 152 154105 (2020);
          URL http://www.quantum-espresso.org", 
     in publications or presentations arising from this work. More details at
     http://www.quantum-espresso.org/quote

     Parallel version (MPI & OpenMP), running on       4 processor cores
     Number of MPI processes:                 4
     Threads/MPI process:                     1

     MPI processes distributed on     1 nodes
     753544 MiB available memory on the printing compute node when the environment starts
 
     Reading input from pw-si-63.in
Warning: card &CELL ignored
Warning: card / ignored

     Current dimensions of program PWSCF are:
     Max number of different atomic species (ntypx) = 10
     Max number of k-points (npk) =  40000
     Max angular momentum in pseudopotentials (lmaxx) =  4

     IMPORTANT: XC functional enforced from input :
     Exchange-correlation= PBE
                           (   1   4   3   4   0   0   0)
     Any further DFT definition will be discarded
     Please, verify this is what you really want


     gamma-point specific algorithms are used
 
     K-points division:     npool     =       2
     R & G space division:  proc/nbgrp/npool/nimage =       2
     Subspace diagonalization in iterative solution of the eigenvalue problem:
     a serial algorithm will be used

     Message from routine divide_et_impera:
     suboptimal parallelization: some nodes have no k-points
 
     Parallelization info
     --------------------
     sticks:   dense  smooth     PW     G-vecs:    dense   smooth      PW
     Min        1904    1904    502                88764    88764   12054
     Max        1905    1905    503                88769    88769   12057
     Sum        3809    3809   1005               177533   177533   24111
 
     Using Slab Decomposition
 


     bravais-lattice index     =            0
     lattice parameter (alat)  =      20.0071  a.u.
     unit-cell volume          =    8008.5376 (a.u.)^3
     number of atoms/cell      =           64
     number of atomic types    =            1
     number of electrons       =       256.00
     number of Kohn-Sham states=          154
     kinetic-energy cutoff     =      30.0000  Ry
     charge density cutoff     =     120.0000  Ry
     scf convergence threshold =      1.0E-06
     mixing beta               =       0.5000
     number of iterations used =            8  plain     mixing
     Exchange-correlation= PBE
                           (   1   4   3   4   0   0   0)

     GPU acceleration is ACTIVE.
     GPU-aware MPI enabled

     Message from routine print_cuda_info:
     High GPU oversubscription detected. Are you sure this is what you want?

     celldm(1)=  20.007112  celldm(2)=   0.000000  celldm(3)=   0.000000
     celldm(4)=   0.000000  celldm(5)=   0.000000  celldm(6)=   0.000000

     crystal axes: (cart. coord. in units of alat)
               a(1) = (   1.000000   0.000000   0.000000 )  
               a(2) = (   0.000000   1.000000   0.000000 )  
               a(3) = (   0.000000   0.000000   1.000000 )  

     reciprocal axes: (cart. coord. in units 2 pi/alat)
               b(1) = (  1.000000  0.000000  0.000000 )  
               b(2) = (  0.000000  1.000000  0.000000 )  
               b(3) = (  0.000000  0.000000  1.000000 )  


     PseudoPot. # 1 for Si read from file:
     /home/ppiaggi/pseudos/Si_ONCV_PBE_sr.upf
     MD5 check sum: 8553c464762ac42b85b1eed164b4d029
     Pseudo is Norm-conserving, Zval =  4.0
     Generated using ONCVPSP code by D. R. Hamann
     Using radial grid of 1510 points,  4 beta functions with: 
                l(1) =   0
                l(2) =   0
                l(3) =   1
                l(4) =   1

     atomic species   valence    mass     pseudopotential
        Si             4.00    28.08500     Si( 1.00)

     No symmetry found



   Cartesian axes

     site n.     atom                  positions (alat units)
         1           Si  tau(   1) = (   0.5536610   0.6516830   0.0864601  )
         2           Si  tau(   2) = (   0.8843650   0.6664550   0.5839710  )
         3           Si  tau(   3) = (   0.6592560   0.2300550   0.0328568  )
         4           Si  tau(   4) = (   0.2456690   0.2801940   0.6038720  )
         5           Si  tau(   5) = (   0.3424610   0.0163910   0.7875330  )
         6           Si  tau(   6) = (   0.9473250   0.3070550   0.0584663  )
         7           Si  tau(   7) = (   0.2015020   0.5437310   0.6609090  )
         8           Si  tau(   8) = (   0.1652270   0.2776050   0.1881240  )
         9           Si  tau(   9) = (   0.5594000   0.3094480   0.3445050  )
        10           Si  tau(  10) = (   0.7843610   0.7253090   0.8172340  )
        11           Si  tau(  11) = (   0.0386495   0.8287640   0.8066360  )
        12           Si  tau(  12) = (   0.9878610   0.4353320   0.7085000  )
        13           Si  tau(  13) = (   0.7613360   0.1474520   0.7857970  )
        14           Si  tau(  14) = (   0.1451950   0.1152850   0.7216560  )
        15           Si  tau(  15) = (   0.5890050   0.8074350   0.7608300  )
        16           Si  tau(  16) = (   0.1767470   0.5211350   0.4062980  )
        17           Si  tau(  17) = (   0.5433290   0.4145610   0.1288620  )
        18           Si  tau(  18) = (   0.0918080   0.6290740   0.9084310  )
        19           Si  tau(  19) = (   0.3378870   0.8878310   0.5904780  )
        20           Si  tau(  20) = (   0.0400138   0.7990900   0.1792160  )
        21           Si  tau(  21) = (   0.5639880   0.8430800   0.5154270  )
        22           Si  tau(  22) = (   0.7652180   0.5368120   0.2627590  )
        23           Si  tau(  23) = (   0.2750590   0.6241420   0.2328730  )
        24           Si  tau(  24) = (   0.1754900   0.9575240   0.9494740  )
        25           Si  tau(  25) = (   0.5917140   0.9950110   0.8885390  )
        26           Si  tau(  26) = (   0.7176010   0.8555720   0.2091750  )
        27           Si  tau(  27) = (   0.9684680   0.0977736   0.9160020  )
        28           Si  tau(  28) = (   0.2533760   0.7616330   0.0230661  )
        29           Si  tau(  29) = (   0.5273630   0.5899140   0.3615100  )
        30           Si  tau(  30) = (   0.8848140   0.3877980   0.4814610  )
        31           Si  tau(  31) = (   0.5794480   0.3616130   0.7819190  )
        32           Si  tau(  32) = (   0.2282780   0.0161528   0.4604900  )
        33           Si  tau(  33) = (   0.5967540   0.0498254   0.4257960  )
        34           Si  tau(  34) = (   0.0051155   0.0536442   0.1680750  )
        35           Si  tau(  35) = (   0.4169550   0.4505060   0.5161610  )
        36           Si  tau(  36) = (   0.4965600   0.8636410   0.1305690  )
        37           Si  tau(  37) = (   0.6700540   0.4900660   0.5570190  )
        38           Si  tau(  38) = (   0.2851040   0.3763650   0.9144510  )
        39           Si  tau(  39) = (   0.4389310   0.7121230   0.9071810  )
        40           Si  tau(  40) = (   0.7281510   0.7466920   0.3903000  )
        41           Si  tau(  41) = (   0.7821980   0.4937260   0.7803120  )
        42           Si  tau(  42) = (   0.9874200   0.5980340   0.3404850  )
        43           Si  tau(  43) = (   0.7171250   0.2266420   0.5581220  )
        44           Si  tau(  44) = (   0.0612854   0.5259470   0.1005870  )
        45           Si  tau(  45) = (   0.2190060   0.9215410   0.2642950  )
        46           Si  tau(  46) = (   0.7733590   0.4732490   0.0391631  )
        47           Si  tau(  47) = (   0.3854640   0.7855160   0.3387680  )
        48           Si  tau(  48) = (   0.4559960   0.2068640   0.6556070  )
        49           Si  tau(  49) = (   0.8126830   0.0387949   0.3610340  )
        50           Si  tau(  50) = (   0.5372760   0.0891467   0.1948990  )
        51           Si  tau(  51) = (   0.0824956   0.3053580   0.4261370  )
        52           Si  tau(  52) = (   0.8430460   0.2633820   0.2740380  )
        53           Si  tau(  53) = (   0.8570940   0.7241480   0.0421958  )
        54           Si  tau(  54) = (   0.9039260   0.9653880   0.6671980  )
        55           Si  tau(  55) = (   0.9801460   0.8476230   0.4083300  )
        56           Si  tau(  56) = (   0.3888550   0.5134410   0.8025240  )
        57           Si  tau(  57) = (   0.3231470   0.1908380   0.3556020  )
        58           Si  tau(  58) = (   0.3060700   0.0808856   0.1104850  )
        59           Si  tau(  59) = (   0.4560690   0.2020500   0.9143630  )
        60           Si  tau(  60) = (   0.0689951   0.3127660   0.8438310  )
        61           Si  tau(  61) = (   0.1464520   0.7626030   0.5635830  )
        62           Si  tau(  62) = (   0.3185950   0.4484690   0.1289620  )
        63           Si  tau(  63) = (   0.0204659   0.0881116   0.5023650  )
        64           Si  tau(  64) = (   0.7815590   0.0306167   0.0921279  )

     number of k points=     1  Fermi-Dirac smearing, width (Ry)=  0.0100
                       cart. coord. in units 2pi/alat
        k(    1) = (   0.0000000   0.0000000   0.0000000), wk =   2.0000000

     Dense  grid:    88767 G-vectors     FFT dimensions: (  72,  72,  72)

     Estimated max dynamical RAM per process >     142.96 MB

     Estimated total dynamical RAM >     550.17 MB

     Initial potential from superposition of free atoms

     starting charge     255.9608, renormalised to     256.0000
     Starting wfcs are  256 randomized atomic wfcs

     total cpu time spent up to now is        5.0 secs

     Self-consistent Calculation

     iteration #  1     ecut=    30.00 Ry     beta= 0.50
     Davidson diagonalization with overlap
     ethr =  1.00E-02,  avg # of iterations =  3.0

     Threshold (ethr) on eigenvalues was too large:
     Diagonalizing with lowered threshold

     Davidson diagonalization with overlap
     ethr =  4.28E-04,  avg # of iterations =  4.0

     total cpu time spent up to now is        5.3 secs

     total energy              =    -501.03463055 Ry
     estimated scf accuracy    <       1.35011858 Ry

     iteration #  2     ecut=    30.00 Ry     beta= 0.50
     Davidson diagonalization with overlap
     ethr =  5.27E-04,  avg # of iterations =  5.0

     total cpu time spent up to now is        5.4 secs

     total energy              =    -500.32152160 Ry
     estimated scf accuracy    <      10.24986676 Ry

     iteration #  3     ecut=    30.00 Ry     beta= 0.50
     Davidson diagonalization with overlap
     ethr =  5.27E-04,  avg # of iterations =  4.0

     total cpu time spent up to now is        5.5 secs

     total energy              =    -501.23432097 Ry
     estimated scf accuracy    <       1.51802003 Ry

     iteration #  4     ecut=    30.00 Ry     beta= 0.50
     Davidson diagonalization with overlap
     ethr =  5.27E-04,  avg # of iterations =  2.0

     total cpu time spent up to now is        5.6 secs

     total energy              =    -501.33855312 Ry
     estimated scf accuracy    <       0.56770865 Ry

     iteration #  5     ecut=    30.00 Ry     beta= 0.50
     Davidson diagonalization with overlap
     ethr =  2.22E-04,  avg # of iterations =  2.0

     total cpu time spent up to now is        5.7 secs

     total energy              =    -501.35390292 Ry
     estimated scf accuracy    <       0.68333599 Ry

     iteration #  6     ecut=    30.00 Ry     beta= 0.50
     Davidson diagonalization with overlap
     ethr =  2.22E-04,  avg # of iterations =  2.0

     total cpu time spent up to now is        5.8 secs

     total energy              =    -501.40842535 Ry
     estimated scf accuracy    <       0.06120501 Ry

     iteration #  7     ecut=    30.00 Ry     beta= 0.50
     Davidson diagonalization with overlap
     ethr =  2.39E-05,  avg # of iterations =  3.0

     total cpu time spent up to now is        5.9 secs

     total energy              =    -501.41639464 Ry
     estimated scf accuracy    <       0.02999260 Ry

     iteration #  8     ecut=    30.00 Ry     beta= 0.50
     Davidson diagonalization with overlap
     ethr =  1.17E-05,  avg # of iterations =  3.0

     total cpu time spent up to now is        6.0 secs

     total energy              =    -501.41943996 Ry
     estimated scf accuracy    <       0.01863002 Ry

     iteration #  9     ecut=    30.00 Ry     beta= 0.50
     Davidson diagonalization with overlap
     ethr =  7.28E-06,  avg # of iterations =  3.0

     total cpu time spent up to now is        6.1 secs

     total energy              =    -501.42093147 Ry
     estimated scf accuracy    <       0.00172196 Ry

     iteration # 10     ecut=    30.00 Ry     beta= 0.50
     Davidson diagonalization with overlap
     c_bands:  1 eigenvalues not converged
     ethr =  6.73E-07,  avg # of iterations = 20.0

     total cpu time spent up to now is        6.4 secs

     total energy              =    -501.42114685 Ry
     estimated scf accuracy    <       0.00101072 Ry

     iteration # 11     ecut=    30.00 Ry     beta= 0.50
     Davidson diagonalization with overlap
     ethr =  3.95E-07,  avg # of iterations =  3.0

     total cpu time spent up to now is        6.5 secs

     total energy              =    -501.42120450 Ry
     estimated scf accuracy    <       0.00082185 Ry

     iteration # 12     ecut=    30.00 Ry     beta= 0.50
     Davidson diagonalization with overlap
     ethr =  3.21E-07,  avg # of iterations =  2.0

     total cpu time spent up to now is        6.6 secs

     total energy              =    -501.42126739 Ry
     estimated scf accuracy    <       0.00027267 Ry

     iteration # 13     ecut=    30.00 Ry     beta= 0.50
     Davidson diagonalization with overlap
     ethr =  1.07E-07,  avg # of iterations =  2.0

     total cpu time spent up to now is        6.7 secs

     total energy              =    -501.42128872 Ry
     estimated scf accuracy    <       0.00022126 Ry

     iteration # 14     ecut=    30.00 Ry     beta= 0.50
     Davidson diagonalization with overlap
     ethr =  8.64E-08,  avg # of iterations =  1.0

     total cpu time spent up to now is        6.7 secs

     total energy              =    -501.42130349 Ry
     estimated scf accuracy    <       0.00001837 Ry

     iteration # 15     ecut=    30.00 Ry     beta= 0.50
     Davidson diagonalization with overlap
     ethr =  7.18E-09,  avg # of iterations =  4.0

     total cpu time spent up to now is        6.8 secs

     total energy              =    -501.42130639 Ry
     estimated scf accuracy    <       0.00001406 Ry

     iteration # 16     ecut=    30.00 Ry     beta= 0.50
     Davidson diagonalization with overlap
     ethr =  5.49E-09,  avg # of iterations =  3.0

     total cpu time spent up to now is        7.0 secs

     total energy              =    -501.42130756 Ry
     estimated scf accuracy    <       0.00001438 Ry

     iteration # 17     ecut=    30.00 Ry     beta= 0.50
     Davidson diagonalization with overlap
     ethr =  5.49E-09,  avg # of iterations =  1.0

     total cpu time spent up to now is        7.0 secs

     total energy              =    -501.42130856 Ry
     estimated scf accuracy    <       0.00000106 Ry

     iteration # 18     ecut=    30.00 Ry     beta= 0.50
     Davidson diagonalization with overlap
     ethr =  4.14E-10,  avg # of iterations =  4.0

     total cpu time spent up to now is        7.2 secs

     total energy              =    -501.42130866 Ry
     estimated scf accuracy    <       0.00000197 Ry

     iteration # 19     ecut=    30.00 Ry     beta= 0.50
     Davidson diagonalization with overlap
     ethr =  4.14E-10,  avg # of iterations =  2.0

     total cpu time spent up to now is        7.2 secs

     End of self-consistent calculation

          k = 0.0000 0.0000 0.0000 ( 11072 PWs)   bands (ev):

    -5.2827  -4.3132  -4.1962  -4.1537  -4.0547  -3.9062  -3.7180  -3.2296
    -3.1694  -3.0761  -2.9573  -2.9355  -2.8387  -2.7856  -2.6719  -2.6009
    -2.4800  -2.4614  -2.4076  -1.9312  -1.8983  -1.7733  -1.6809  -1.5098
    -1.4451  -1.3182  -1.0528  -0.8467  -0.6289  -0.4310  -0.2240  -0.1664
    -0.0930   0.0077   0.1421   0.1880   0.2637   0.2865   0.3902   0.4743
     0.5895   0.6385   0.7769   0.8133   0.8553   0.9007   1.1012   1.1793
     1.2192   1.4026   1.4066   1.4494   1.5813   1.6433   1.6860   1.7822
     1.8730   1.9290   2.1585   2.1715   2.2310   2.3484   2.4901   2.4950
     2.6713   2.7160   2.7939   2.8579   2.9392   2.9714   3.0479   3.1503
     3.1750   3.3939   3.4061   3.4461   3.5797   3.6210   3.7125   3.8017
     3.9813   4.2900   4.4533   4.6528   4.6616   4.7182   4.7857   4.9144
     4.9706   5.0233   5.1008   5.2046   5.2689   5.3085   5.3930   5.4721
     5.5113   5.6285   5.6771   5.7344   5.7928   5.8053   5.8420   5.9019
     5.9329   5.9843   6.0154   6.1026   6.1639   6.2618   6.2669   6.3258
     6.3980   6.4464   6.5185   6.5761   6.6406   6.7013   6.7212   6.8509
     6.8835   6.9018   6.9357   7.0443   7.1097   7.1470   7.2012   7.2528
     7.3204   7.4207   7.4940   7.5312   7.6299   7.6699   7.7365   7.7805
     7.8162   7.8965   7.9032   7.9725   8.1311   8.1615   8.2034   8.2660
     8.3512   8.3793   8.4434   8.5352   8.6043   8.6959   8.7169   8.7586
     8.8533   8.9638

     the Fermi energy is     7.3117 ev

!    total energy              =    -501.42130866 Ry
     estimated scf accuracy    <       0.00000022 Ry
     smearing contrib. (-TS)   =      -0.14317563 Ry
     internal energy E=F+TS    =    -501.27813303 Ry

     The total energy is F=E-TS. E is the sum of the following terms:
     one-electron contribution =     192.15021118 Ry
     hartree contribution      =      23.89116537 Ry
     xc contribution           =    -151.01944356 Ry
     ewald contribution        =    -566.30006603 Ry

     convergence has been achieved in  19 iterations

     Forces acting on atoms (cartesian axes, Ry/au):

     atom    1 type  1   force =     0.02639583   -0.04156910    0.00534126
     atom    2 type  1   force =    -0.02048595    0.01040093   -0.01485032
     atom    3 type  1   force =     0.00682392    0.00177732   -0.00897676
     atom    4 type  1   force =     0.00084071    0.02549889   -0.03191021
     atom    5 type  1   force =     0.00708373   -0.00581397   -0.00625724
     atom    6 type  1   force =     0.00505583   -0.00388180    0.00781208
     atom    7 type  1   force =    -0.00924482    0.00180520   -0.00968273
     atom    8 type  1   force =     0.02102303   -0.01379781    0.03236242
     atom    9 type  1   force =    -0.01761073    0.01800581   -0.01133068
     atom   10 type  1   force =     0.03552720   -0.01552418   -0.00337956
     atom   11 type  1   force =    -0.02219599    0.00263958   -0.02907497
     atom   12 type  1   force =    -0.04397849    0.08957976   -0.10763246
     atom   13 type  1   force =    -0.00993028   -0.01260802   -0.00277155
     atom   14 type  1   force =    -0.02871393    0.01237604   -0.01177023
     atom   15 type  1   force =    -0.00604006    0.02443113   -0.02185533
     atom   16 type  1   force =     0.02472940   -0.02015815    0.02378164
     atom   17 type  1   force =     0.02090473    0.01768042    0.03581258
     atom   18 type  1   force =     0.01038161    0.00316707   -0.00714482
     atom   19 type  1   force =     0.02285372   -0.01265382    0.02953951
     atom   20 type  1   force =     0.00329032    0.00600629    0.02694914
     atom   21 type  1   force =    -0.03332559    0.01079801    0.03920742
     atom   22 type  1   force =    -0.00306309   -0.00743631    0.02255577
     atom   23 type  1   force =    -0.00837421    0.04776439   -0.00878519
     atom   24 type  1   force =     0.00800680    0.00759850    0.00107310
     atom   25 type  1   force =     0.02296353    0.02551953    0.01305292
     atom   26 type  1   force =    -0.00424899    0.01927312   -0.04669629
     atom   27 type  1   force =    -0.00552646    0.01507736   -0.00053678
     atom   28 type  1   force =    -0.01390739   -0.01976778    0.00569697
     atom   29 type  1   force =     0.01208777   -0.01850755   -0.00723101
     atom   30 type  1   force =    -0.03245314    0.00035323    0.00736136
     atom   31 type  1   force =    -0.00913057    0.00084563   -0.02169472
     atom   32 type  1   force =    -0.01208285    0.03723241   -0.01575644
     atom   33 type  1   force =    -0.00170002    0.02015177   -0.00015364
     atom   34 type  1   force =     0.00207158   -0.00651615   -0.00431017
     atom   35 type  1   force =     0.00632740   -0.01211851    0.00230443
     atom   36 type  1   force =    -0.00798348    0.02039567    0.02810008
     atom   37 type  1   force =     0.00625054   -0.00432307   -0.00285248
     atom   38 type  1   force =    -0.04302561   -0.06307818    0.05122829
     atom   39 type  1   force =     0.00170887   -0.03501876   -0.02543955
     atom   40 type  1   force =     0.03314970   -0.05659930    0.06379678
     atom   41 type  1   force =    -0.01648779    0.02801131    0.02306312
     atom   42 type  1   force =    -0.04405675    0.02849515   -0.04299534
     atom   43 type  1   force =    -0.01385559    0.00266060    0.00567761
     atom   44 type  1   force =    -0.00792589    0.00418221    0.02661591
     atom   45 type  1   force =    -0.01455407    0.00552170   -0.01741422
     atom   46 type  1   force =    -0.01109523    0.00862243   -0.02244441
     atom   47 type  1   force =     0.02864830    0.00258811   -0.02178362
     atom   48 type  1   force =     0.00176058   -0.00726030    0.00167653
     atom   49 type  1   force =     0.02232491   -0.00857485   -0.02012773
     atom   50 type  1   force =    -0.02354592   -0.00409681    0.03399532
     atom   51 type  1   force =     0.04388661   -0.01685501   -0.02059324
     atom   52 type  1   force =    -0.01382539    0.00622289    0.00359182
     atom   53 type  1   force =     0.00057333   -0.02437016   -0.00258827
     atom   54 type  1   force =     0.01684727   -0.00266816    0.00361929
     atom   55 type  1   force =    -0.00959677    0.00175488    0.01005632
     atom   56 type  1   force =     0.04189941    0.06179837   -0.05091328
     atom   57 type  1   force =     0.01436291    0.01487493   -0.00698061
     atom   58 type  1   force =     0.00724449    0.01859937    0.01165357
     atom   59 type  1   force =    -0.01371198   -0.01317323    0.00839757
     atom   60 type  1   force =     0.07549587   -0.09428922    0.09224155
     atom   61 type  1   force =    -0.01480099   -0.02634144    0.02937348
     atom   62 type  1   force =    -0.01052627   -0.06456123   -0.03472262
     atom   63 type  1   force =     0.00379791   -0.00526920    0.02918323
     atom   64 type  1   force =    -0.00731348    0.01512212   -0.03446461

     Total force =     0.367509     Total SCF correction =     0.000887


     Computing stress (Cartesian axis) and pressure

          total   stress  (Ry/bohr**3)                   (kbar)     P=      -30.71
  -0.00024606  -0.00003608  -0.00003641          -36.20       -5.31       -5.36
  -0.00003608  -0.00007406  -0.00005716           -5.31      -10.90       -8.41
  -0.00003641  -0.00005716  -0.00030614           -5.36       -8.41      -45.03

 
     init_run     :      1.09s CPU      4.96s WALL (       1 calls)
     electrons    :      2.05s CPU      2.21s WALL (       1 calls)
     forces       :      0.04s CPU      0.04s WALL (       1 calls)
     stress       :      0.15s CPU      0.15s WALL (       1 calls)

     Called by init_run:
     wfcinit      :      0.54s CPU      4.24s WALL (       1 calls)
                                        4.24s GPU  (       1 calls)
     potinit      :      0.06s CPU      0.15s WALL (       1 calls)
     hinit0       :      0.47s CPU      0.49s WALL (       1 calls)

     Called by electrons:
     c_bands      :      1.24s CPU      1.32s WALL (      20 calls)
     sum_band     :      0.39s CPU      0.44s WALL (      20 calls)
     v_of_rho     :      0.20s CPU      0.30s WALL (      20 calls)
     mix_rho      :      0.19s CPU      0.20s WALL (      20 calls)

     Called by c_bands:
     init_us_2    :      0.07s CPU      0.08s WALL (      41 calls)
     init_us_2:gp :      0.07s CPU      0.08s WALL (      41 calls)
     regterg      :      1.07s CPU      1.14s WALL (      20 calls)

     Called by *egterg:
     rdiaghg      :      0.45s CPU      1.21s WALL (      92 calls)
                                        1.19s GPU  (      92 calls)
     h_psi        :      0.98s CPU      3.96s WALL (      94 calls)
                                        3.96s GPU  (      94 calls)
     g_psi        :      0.00s CPU      0.00s WALL (      73 calls)
                                        0.00s GPU  (      73 calls)

     Called by h_psi:
     h_psi:calbec :      0.51s CPU      3.41s WALL (      94 calls)
                                        3.41s GPU  (      94 calls)
     vloc_psi     :      0.41s CPU      0.48s WALL (      94 calls)
                                        0.48s GPU  (      94 calls)
     add_vuspsi   :      0.04s CPU      0.05s WALL (      94 calls)
                                        0.05s GPU  (      94 calls)

     General routines
     calbec       :      0.51s CPU      3.42s WALL (      99 calls)
     fft          :      0.63s CPU      0.76s WALL (     167 calls)
                                        0.14s GPU  (     106 calls)
     ffts         :      0.05s CPU      0.05s WALL (      20 calls)
     fftw         :      0.50s CPU      0.64s WALL (    2120 calls)
                                        0.56s GPU  (    2120 calls)
 
     Parallel routines
 
     PWSCF        :      3.38s CPU      7.47s WALL

 
   This run was terminated on:  10:47:48  10May2023            

=------------------------------------------------------------------------------=
   JOB DONE.
=------------------------------------------------------------------------------=
