An instance of this daemon is already running

     Program PWSCF v.7.1 starts on 10May2023 at 10:51:45 

     This program is part of the open-source Quantum ESPRESSO suite
     for quantum simulation of materials; please cite
         "P. Giannozzi et al., J. Phys.:Condens. Matter 21 395502 (2009);
         "P. Giannozzi et al., J. Phys.:Condens. Matter 29 465901 (2017);
         "P. Giannozzi et al., J. Chem. Phys. 152 154105 (2020);
          URL http://www.quantum-espresso.org", 
     in publications or presentations arising from this work. More details at
     http://www.quantum-espresso.org/quote

     Parallel version (MPI & OpenMP), running on       4 processor cores
     Number of MPI processes:                 4
     Threads/MPI process:                     1

     MPI processes distributed on     1 nodes
     753554 MiB available memory on the printing compute node when the environment starts
 
     Reading input from pw-si-88.in
Warning: card &CELL ignored
Warning: card / ignored

     Current dimensions of program PWSCF are:
     Max number of different atomic species (ntypx) = 10
     Max number of k-points (npk) =  40000
     Max angular momentum in pseudopotentials (lmaxx) =  4

     IMPORTANT: XC functional enforced from input :
     Exchange-correlation= PBE
                           (   1   4   3   4   0   0   0)
     Any further DFT definition will be discarded
     Please, verify this is what you really want


     gamma-point specific algorithms are used
 
     K-points division:     npool     =       2
     R & G space division:  proc/nbgrp/npool/nimage =       2
     Subspace diagonalization in iterative solution of the eigenvalue problem:
     a serial algorithm will be used

     Message from routine divide_et_impera:
     suboptimal parallelization: some nodes have no k-points
 
     Parallelization info
     --------------------
     sticks:   dense  smooth     PW     G-vecs:    dense   smooth      PW
     Min        1904    1904    502                88752    88752   12054
     Max        1905    1905    503                88757    88757   12057
     Sum        3809    3809   1005               177509   177509   24111
 
     Using Slab Decomposition
 


     bravais-lattice index     =            0
     lattice parameter (alat)  =      19.9972  a.u.
     unit-cell volume          =    7996.6256 (a.u.)^3
     number of atoms/cell      =           64
     number of atomic types    =            1
     number of electrons       =       256.00
     number of Kohn-Sham states=          154
     kinetic-energy cutoff     =      30.0000  Ry
     charge density cutoff     =     120.0000  Ry
     scf convergence threshold =      1.0E-06
     mixing beta               =       0.5000
     number of iterations used =            8  plain     mixing
     Exchange-correlation= PBE
                           (   1   4   3   4   0   0   0)

     GPU acceleration is ACTIVE.
     GPU-aware MPI enabled

     Message from routine print_cuda_info:
     High GPU oversubscription detected. Are you sure this is what you want?

     celldm(1)=  19.997188  celldm(2)=   0.000000  celldm(3)=   0.000000
     celldm(4)=   0.000000  celldm(5)=   0.000000  celldm(6)=   0.000000

     crystal axes: (cart. coord. in units of alat)
               a(1) = (   1.000000   0.000000   0.000000 )  
               a(2) = (   0.000000   1.000000   0.000000 )  
               a(3) = (   0.000000   0.000000   1.000000 )  

     reciprocal axes: (cart. coord. in units 2 pi/alat)
               b(1) = (  1.000000  0.000000  0.000000 )  
               b(2) = (  0.000000  1.000000  0.000000 )  
               b(3) = (  0.000000  0.000000  1.000000 )  


     PseudoPot. # 1 for Si read from file:
     /home/ppiaggi/pseudos/Si_ONCV_PBE_sr.upf
     MD5 check sum: 8553c464762ac42b85b1eed164b4d029
     Pseudo is Norm-conserving, Zval =  4.0
     Generated using ONCVPSP code by D. R. Hamann
     Using radial grid of 1510 points,  4 beta functions with: 
                l(1) =   0
                l(2) =   0
                l(3) =   1
                l(4) =   1

     atomic species   valence    mass     pseudopotential
        Si             4.00    28.08500     Si( 1.00)

     No symmetry found



   Cartesian axes

     site n.     atom                  positions (alat units)
         1           Si  tau(   1) = (   0.5188340   0.0313836   0.2163990  )
         2           Si  tau(   2) = (   0.3044810   0.6408330   0.9707580  )
         3           Si  tau(   3) = (   0.1431130   0.6088350   0.3176150  )
         4           Si  tau(   4) = (   0.6414550   0.8867270   0.3747730  )
         5           Si  tau(   5) = (   0.6876570   0.9835550   0.7140280  )
         6           Si  tau(   6) = (   0.6525420   0.1208120   0.4612900  )
         7           Si  tau(   7) = (   0.7584120   0.1154590   0.1744370  )
         8           Si  tau(   8) = (   0.8458470   0.6078950   0.8355760  )
         9           Si  tau(   9) = (   0.6478580   0.4639190   0.9992690  )
        10           Si  tau(  10) = (   0.5355320   0.6778800   0.3079620  )
        11           Si  tau(  11) = (   0.9311140   0.3801060   0.8647970  )
        12           Si  tau(  12) = (   0.7451320   0.5389270   0.4771060  )
        13           Si  tau(  13) = (   0.3794860   0.5630020   0.7032620  )
        14           Si  tau(  14) = (   0.8268860   0.8459340   0.0054864  )
        15           Si  tau(  15) = (   0.1442840   0.0188235   0.8399430  )
        16           Si  tau(  16) = (   0.6299870   0.4798220   0.2626140  )
        17           Si  tau(  17) = (   0.7697770   0.2788140   0.7425020  )
        18           Si  tau(  18) = (   0.8909920   0.9103590   0.7656560  )
        19           Si  tau(  19) = (   0.3676850   0.2067260   0.0263780  )
        20           Si  tau(  20) = (   0.6245560   0.2324640   0.8889260  )
        21           Si  tau(  21) = (   0.0429678   0.9061690   0.3327740  )
        22           Si  tau(  22) = (   0.9013180   0.1156470   0.9279860  )
        23           Si  tau(  23) = (   0.6495360   0.0219126   0.9542420  )
        24           Si  tau(  24) = (   0.0169153   0.5571260   0.1055630  )
        25           Si  tau(  25) = (   0.6431040   0.6786580   0.9820200  )
        26           Si  tau(  26) = (   0.1509850   0.6482430   0.7082140  )
        27           Si  tau(  27) = (   0.5781200   0.3674360   0.6416160  )
        28           Si  tau(  28) = (   0.6061070   0.8000850   0.5904790  )
        29           Si  tau(  29) = (   0.6748540   0.5912940   0.6934580  )
        30           Si  tau(  30) = (   0.2140900   0.8301830   0.6559820  )
        31           Si  tau(  31) = (   0.4900390   0.7502720   0.8240720  )
        32           Si  tau(  32) = (   0.3818850   0.3165810   0.7765970  )
        33           Si  tau(  33) = (   0.1261200   0.2266770   0.9616780  )
        34           Si  tau(  34) = (   0.4759210   0.2960220   0.2472830  )
        35           Si  tau(  35) = (   0.1763800   0.9301240   0.0607687  )
        36           Si  tau(  36) = (   0.2448820   0.8153200   0.2641710  )
        37           Si  tau(  37) = (   0.7998320   0.6063810   0.1770150  )
        38           Si  tau(  38) = (   0.9899600   0.2395090   0.3464100  )
        39           Si  tau(  39) = (   0.2182200   0.1514540   0.6321450  )
        40           Si  tau(  40) = (   0.9224980   0.3736100   0.5586940  )
        41           Si  tau(  41) = (   0.2322890   0.1226680   0.2270190  )
        42           Si  tau(  42) = (   0.4807770   0.0990345   0.6372370  )
        43           Si  tau(  43) = (   0.1451060   0.3660080   0.7523120  )
        44           Si  tau(  44) = (   0.4498270   0.3142650   0.4534900  )
        45           Si  tau(  45) = (   0.9328450   0.7290220   0.6472290  )
        46           Si  tau(  46) = (   0.3962860   0.9459880   0.0240150  )
        47           Si  tau(  47) = (   0.3512090   0.8196950   0.4771130  )
        48           Si  tau(  48) = (   0.8548800   0.1146110   0.5843410  )
        49           Si  tau(  49) = (   0.8333580   0.8518910   0.2351880  )
        50           Si  tau(  50) = (   0.1412820   0.4575040   0.5383110  )
        51           Si  tau(  51) = (   0.8306050   0.3389510   0.0848808  )
        52           Si  tau(  52) = (   0.4031370   0.4392470   0.9804930  )
        53           Si  tau(  53) = (   0.2970400   0.4434370   0.2101790  )
        54           Si  tau(  54) = (   0.0981571   0.3312130   0.1467190  )
        55           Si  tau(  55) = (   0.9272410   0.6785840   0.4116520  )
        56           Si  tau(  56) = (   0.3762390   0.0314666   0.4167970  )
        57           Si  tau(  57) = (   0.0594842   0.9681240   0.5461040  )
        58           Si  tau(  58) = (   0.2294750   0.2618420   0.4334940  )
        59           Si  tau(  59) = (   0.3923730   0.9465890   0.7820590  )
        60           Si  tau(  60) = (   0.7685730   0.2991660   0.3460000  )
        61           Si  tau(  61) = (   0.4376980   0.7446730   0.1176120  )
        62           Si  tau(  62) = (   0.9883490   0.0598705   0.1641790  )
        63           Si  tau(  63) = (   0.3724020   0.5496830   0.4597070  )
        64           Si  tau(  64) = (   0.0842308   0.7304050   0.9518180  )

     number of k points=     1  Fermi-Dirac smearing, width (Ry)=  0.0100
                       cart. coord. in units 2pi/alat
        k(    1) = (   0.0000000   0.0000000   0.0000000), wk =   2.0000000

     Dense  grid:    88755 G-vectors     FFT dimensions: (  72,  72,  72)

     Estimated max dynamical RAM per process >     142.80 MB

     Estimated total dynamical RAM >     549.53 MB

     Initial potential from superposition of free atoms

     starting charge     255.9608, renormalised to     256.0000
     Starting wfcs are  256 randomized atomic wfcs

     total cpu time spent up to now is        5.0 secs

     Self-consistent Calculation

     iteration #  1     ecut=    30.00 Ry     beta= 0.50
     Davidson diagonalization with overlap
     ethr =  1.00E-02,  avg # of iterations =  3.0

     Threshold (ethr) on eigenvalues was too large:
     Diagonalizing with lowered threshold

     Davidson diagonalization with overlap
     ethr =  3.29E-04,  avg # of iterations =  4.0

     total cpu time spent up to now is        5.3 secs

     total energy              =    -501.26668470 Ry
     estimated scf accuracy    <       1.01434191 Ry

     iteration #  2     ecut=    30.00 Ry     beta= 0.50
     Davidson diagonalization with overlap
     ethr =  3.96E-04,  avg # of iterations =  3.0

     total cpu time spent up to now is        5.4 secs

     total energy              =    -501.06174634 Ry
     estimated scf accuracy    <       2.03825764 Ry

     iteration #  3     ecut=    30.00 Ry     beta= 0.50
     Davidson diagonalization with overlap
     ethr =  3.96E-04,  avg # of iterations =  3.0

     total cpu time spent up to now is        5.5 secs

     total energy              =    -501.19868965 Ry
     estimated scf accuracy    <       2.86718010 Ry

     iteration #  4     ecut=    30.00 Ry     beta= 0.50
     Davidson diagonalization with overlap
     ethr =  3.96E-04,  avg # of iterations =  2.0

     total cpu time spent up to now is        5.6 secs

     total energy              =    -501.38602594 Ry
     estimated scf accuracy    <       0.40486214 Ry

     iteration #  5     ecut=    30.00 Ry     beta= 0.50
     Davidson diagonalization with overlap
     ethr =  1.58E-04,  avg # of iterations =  2.0

     total cpu time spent up to now is        5.7 secs

     total energy              =    -501.40467839 Ry
     estimated scf accuracy    <       0.44583453 Ry

     iteration #  6     ecut=    30.00 Ry     beta= 0.50
     Davidson diagonalization with overlap
     ethr =  1.58E-04,  avg # of iterations =  2.0

     total cpu time spent up to now is        5.8 secs

     total energy              =    -501.44034669 Ry
     estimated scf accuracy    <       0.11909972 Ry

     iteration #  7     ecut=    30.00 Ry     beta= 0.50
     Davidson diagonalization with overlap
     ethr =  4.65E-05,  avg # of iterations =  2.0

     total cpu time spent up to now is        5.9 secs

     total energy              =    -501.45161371 Ry
     estimated scf accuracy    <       0.01348047 Ry

     iteration #  8     ecut=    30.00 Ry     beta= 0.50
     Davidson diagonalization with overlap
     ethr =  5.27E-06,  avg # of iterations = 16.0

     total cpu time spent up to now is        6.1 secs

     total energy              =    -501.45270458 Ry
     estimated scf accuracy    <       0.02741569 Ry

     iteration #  9     ecut=    30.00 Ry     beta= 0.50
     Davidson diagonalization with overlap
     ethr =  5.27E-06,  avg # of iterations =  2.0

     total cpu time spent up to now is        6.2 secs

     total energy              =    -501.45486043 Ry
     estimated scf accuracy    <       0.00120972 Ry

     iteration # 10     ecut=    30.00 Ry     beta= 0.50
     Davidson diagonalization with overlap
     ethr =  4.73E-07,  avg # of iterations =  5.0

     total cpu time spent up to now is        6.3 secs

     total energy              =    -501.45498389 Ry
     estimated scf accuracy    <       0.00087655 Ry

     iteration # 11     ecut=    30.00 Ry     beta= 0.50
     Davidson diagonalization with overlap
     ethr =  3.42E-07,  avg # of iterations =  3.0

     total cpu time spent up to now is        6.4 secs

     total energy              =    -501.45503987 Ry
     estimated scf accuracy    <       0.00057712 Ry

     iteration # 12     ecut=    30.00 Ry     beta= 0.50
     Davidson diagonalization with overlap
     ethr =  2.25E-07,  avg # of iterations =  2.0

     total cpu time spent up to now is        6.5 secs

     total energy              =    -501.45507400 Ry
     estimated scf accuracy    <       0.00019926 Ry

     iteration # 13     ecut=    30.00 Ry     beta= 0.50
     Davidson diagonalization with overlap
     ethr =  7.78E-08,  avg # of iterations =  2.0

     total cpu time spent up to now is        6.6 secs

     total energy              =    -501.45509193 Ry
     estimated scf accuracy    <       0.00017663 Ry

     iteration # 14     ecut=    30.00 Ry     beta= 0.50
     Davidson diagonalization with overlap
     ethr =  6.90E-08,  avg # of iterations =  1.0

     total cpu time spent up to now is        6.7 secs

     total energy              =    -501.45510215 Ry
     estimated scf accuracy    <       0.00003002 Ry

     iteration # 15     ecut=    30.00 Ry     beta= 0.50
     Davidson diagonalization with overlap
     ethr =  1.17E-08,  avg # of iterations =  2.0

     total cpu time spent up to now is        6.8 secs

     total energy              =    -501.45510416 Ry
     estimated scf accuracy    <       0.00001369 Ry

     iteration # 16     ecut=    30.00 Ry     beta= 0.50
     Davidson diagonalization with overlap
     ethr =  5.35E-09,  avg # of iterations =  2.0

     total cpu time spent up to now is        6.9 secs

     total energy              =    -501.45510482 Ry
     estimated scf accuracy    <       0.00001138 Ry

     iteration # 17     ecut=    30.00 Ry     beta= 0.50
     Davidson diagonalization with overlap
     ethr =  4.44E-09,  avg # of iterations =  2.0

     total cpu time spent up to now is        7.0 secs

     total energy              =    -501.45510549 Ry
     estimated scf accuracy    <       0.00001166 Ry

     iteration # 18     ecut=    30.00 Ry     beta= 0.50
     Davidson diagonalization with overlap
     ethr =  4.44E-09,  avg # of iterations =  1.0

     total cpu time spent up to now is        7.1 secs

     total energy              =    -501.45510621 Ry
     estimated scf accuracy    <       0.00000266 Ry

     iteration # 19     ecut=    30.00 Ry     beta= 0.50
     Davidson diagonalization with overlap
     ethr =  1.04E-09,  avg # of iterations =  2.0

     total cpu time spent up to now is        7.2 secs

     End of self-consistent calculation

          k = 0.0000 0.0000 0.0000 ( 11060 PWs)   bands (ev):

    -5.1870  -4.1750  -4.1030  -4.0766  -3.9968  -3.8271  -3.7618  -3.0537
    -2.9714  -2.9381  -2.8607  -2.8382  -2.7170  -2.7149  -2.6607  -2.6410
    -2.5089  -2.3709  -2.3169  -1.8777  -1.7890  -1.7264  -1.5505  -1.4883
    -1.3522  -1.2964  -1.1581  -0.7472  -0.5514  -0.4010  -0.3680  -0.2661
    -0.0310   0.1553   0.2710   0.3080   0.3683   0.3998   0.4643   0.6206
     0.6835   0.7058   0.8250   0.8776   0.9460   0.9741   1.1108   1.1592
     1.2355   1.2813   1.3712   1.4344   1.6020   1.6566   1.7430   1.8502
     1.9258   2.0166   2.0415   2.0957   2.3307   2.3691   2.4850   2.5806
     2.6542   2.7035   2.8198   2.9122   3.0054   3.0653   3.1011   3.2175
     3.2605   3.2864   3.4192   3.4849   3.5433   3.6683   3.7706   3.8533
     4.0366   4.3157   4.4257   4.5707   4.6380   4.7277   4.8629   4.9346
     4.9961   5.1021   5.1759   5.2157   5.3097   5.3954   5.4426   5.4951
     5.5446   5.6713   5.6847   5.7283   5.7674   5.8255   5.8960   5.9652
     6.0260   6.0655   6.0769   6.2054   6.2321   6.2497   6.3047   6.3929
     6.4733   6.5533   6.5715   6.6489   6.6796   6.7098   6.8211   6.8546
     6.8828   6.9467   7.0221   7.0519   7.1039   7.1867   7.2834   7.2980
     7.3248   7.3742   7.4186   7.4375   7.5332   7.6169   7.6755   7.8242
     7.8567   7.9759   7.9909   7.9995   8.0368   8.1287   8.2344   8.2987
     8.3512   8.4467   8.5343   8.5952   8.6093   8.6962   8.7078   8.8558
     8.8995   8.9579

     the Fermi energy is     7.3103 ev

!    total energy              =    -501.45510634 Ry
     estimated scf accuracy    <       0.00000013 Ry
     smearing contrib. (-TS)   =      -0.16164215 Ry
     internal energy E=F+TS    =    -501.29346419 Ry

     The total energy is F=E-TS. E is the sum of the following terms:
     one-electron contribution =     201.18984158 Ry
     hartree contribution      =      19.67421555 Ry
     xc contribution           =    -150.84222072 Ry
     ewald contribution        =    -571.31530060 Ry

     convergence has been achieved in  19 iterations

     Forces acting on atoms (cartesian axes, Ry/au):

     atom    1 type  1   force =     0.00290360    0.01289145    0.02829857
     atom    2 type  1   force =    -0.00232607    0.00379773   -0.02373740
     atom    3 type  1   force =    -0.00197094   -0.01146141    0.00218783
     atom    4 type  1   force =    -0.00092521   -0.00250592   -0.01218925
     atom    5 type  1   force =    -0.01432368   -0.00821249    0.00163508
     atom    6 type  1   force =     0.00747179    0.00210799   -0.00130472
     atom    7 type  1   force =     0.00015841    0.02735696   -0.00637810
     atom    8 type  1   force =     0.00567052   -0.02027168    0.00453403
     atom    9 type  1   force =    -0.02557170   -0.06151833    0.00760448
     atom   10 type  1   force =    -0.02678670    0.00147709    0.01838635
     atom   11 type  1   force =    -0.00332092    0.03812283    0.02407121
     atom   12 type  1   force =     0.02703879   -0.02867592   -0.00216321
     atom   13 type  1   force =     0.00181043   -0.01330802   -0.00008103
     atom   14 type  1   force =    -0.02935979    0.00489784   -0.01831548
     atom   15 type  1   force =     0.00339625    0.00553758    0.00079514
     atom   16 type  1   force =     0.02091787   -0.02264996    0.00700827
     atom   17 type  1   force =     0.04215664   -0.01925034   -0.06699044
     atom   18 type  1   force =     0.03093936    0.02398938    0.02414130
     atom   19 type  1   force =    -0.01660083    0.01655485    0.02275127
     atom   20 type  1   force =    -0.04390945    0.01221152    0.03399613
     atom   21 type  1   force =    -0.01409667   -0.01586532   -0.00645715
     atom   22 type  1   force =     0.01990927    0.00643948    0.02737226
     atom   23 type  1   force =     0.01546498   -0.03232941   -0.00107702
     atom   24 type  1   force =    -0.00317797   -0.01705070    0.01750032
     atom   25 type  1   force =     0.02429248    0.05293031    0.01786040
     atom   26 type  1   force =    -0.05479117   -0.11210060    0.04936572
     atom   27 type  1   force =    -0.01361630    0.01106679   -0.01714345
     atom   28 type  1   force =    -0.00671462    0.00485797    0.01145711
     atom   29 type  1   force =    -0.02836298    0.00637033   -0.04238668
     atom   30 type  1   force =     0.04747234    0.12610381   -0.03210920
     atom   31 type  1   force =    -0.00350101   -0.02994455   -0.02083049
     atom   32 type  1   force =     0.00477946    0.01807336    0.00380707
     atom   33 type  1   force =    -0.00562098   -0.03298690   -0.05077415
     atom   34 type  1   force =     0.00949121   -0.00387691   -0.07525910
     atom   35 type  1   force =    -0.02480126   -0.00724543    0.00161950
     atom   36 type  1   force =    -0.01226859   -0.01431564   -0.00103512
     atom   37 type  1   force =     0.01798103    0.03150793    0.00217106
     atom   38 type  1   force =     0.02521395   -0.01299018   -0.02508563
     atom   39 type  1   force =     0.00801549   -0.00603882    0.00887996
     atom   40 type  1   force =    -0.02366456    0.00405452   -0.02207256
     atom   41 type  1   force =     0.00959604    0.01180043    0.00423812
     atom   42 type  1   force =    -0.00877954    0.03212310   -0.00794356
     atom   43 type  1   force =     0.00349721   -0.01978351    0.01851734
     atom   44 type  1   force =     0.01478656    0.03496162    0.08097383
     atom   45 type  1   force =     0.02440234   -0.01698554   -0.01593100
     atom   46 type  1   force =     0.04017880    0.01666193   -0.00397876
     atom   47 type  1   force =     0.01283549   -0.02105689    0.00987174
     atom   48 type  1   force =    -0.00708444    0.00178401    0.01569649
     atom   49 type  1   force =    -0.00198115   -0.01932616    0.01741851
     atom   50 type  1   force =    -0.01072064    0.03484488   -0.02021488
     atom   51 type  1   force =     0.00448887   -0.01018589   -0.01735500
     atom   52 type  1   force =     0.01377336   -0.01663074    0.01142972
     atom   53 type  1   force =    -0.00928795   -0.01492215   -0.00469977
     atom   54 type  1   force =    -0.02024042    0.03632690    0.04554810
     atom   55 type  1   force =     0.00383185    0.00005427   -0.00212811
     atom   56 type  1   force =     0.00997659    0.02553709   -0.02924409
     atom   57 type  1   force =    -0.01190949    0.01734931    0.01833141
     atom   58 type  1   force =    -0.01639480   -0.00633552   -0.00480016
     atom   59 type  1   force =    -0.03305983   -0.01253020    0.00696416
     atom   60 type  1   force =    -0.01239665   -0.00108827    0.00116618
     atom   61 type  1   force =     0.00007274    0.00850933    0.01263549
     atom   62 type  1   force =     0.00742664    0.00906459   -0.00461503
     atom   63 type  1   force =     0.00100799   -0.00524109   -0.01133256
     atom   64 type  1   force =     0.02660798   -0.02268268   -0.01060102

     Total force =     0.346524     Total SCF correction =     0.000624


     Computing stress (Cartesian axis) and pressure

          total   stress  (Ry/bohr**3)                   (kbar)     P=      -37.02
  -0.00034912   0.00001494  -0.00003835          -51.36        2.20       -5.64
   0.00001494  -0.00018710  -0.00002401            2.20      -27.52       -3.53
  -0.00003835  -0.00002401  -0.00021882           -5.64       -3.53      -32.19

 
     init_run     :      1.13s CPU      4.95s WALL (       1 calls)
     electrons    :      1.97s CPU      2.15s WALL (       1 calls)
     forces       :      0.04s CPU      0.04s WALL (       1 calls)
     stress       :      0.15s CPU      0.15s WALL (       1 calls)

     Called by init_run:
     wfcinit      :      0.58s CPU      4.23s WALL (       1 calls)
                                        4.23s GPU  (       1 calls)
     potinit      :      0.05s CPU      0.15s WALL (       1 calls)
     hinit0       :      0.47s CPU      0.50s WALL (       1 calls)

     Called by electrons:
     c_bands      :      1.15s CPU      1.24s WALL (      20 calls)
     sum_band     :      0.41s CPU      0.46s WALL (      20 calls)
     v_of_rho     :      0.19s CPU      0.29s WALL (      20 calls)
     mix_rho      :      0.18s CPU      0.20s WALL (      20 calls)

     Called by c_bands:
     init_us_2    :      0.07s CPU      0.08s WALL (      41 calls)
     init_us_2:gp :      0.07s CPU      0.07s WALL (      41 calls)
     regterg      :      0.98s CPU      1.05s WALL (      20 calls)

     Called by *egterg:
     rdiaghg      :      0.40s CPU      1.16s WALL (      80 calls)
                                        1.15s GPU  (      80 calls)
     h_psi        :      0.99s CPU      3.92s WALL (      82 calls)
                                        3.92s GPU  (      82 calls)
     g_psi        :      0.00s CPU      0.00s WALL (      61 calls)
                                        0.00s GPU  (      61 calls)

     Called by h_psi:
     h_psi:calbec :      0.55s CPU      3.41s WALL (      82 calls)
                                        3.40s GPU  (      82 calls)
     vloc_psi     :      0.39s CPU      0.46s WALL (      82 calls)
                                        0.45s GPU  (      82 calls)
     add_vuspsi   :      0.03s CPU      0.05s WALL (      82 calls)
                                        0.05s GPU  (      82 calls)

     General routines
     calbec       :      0.56s CPU      3.41s WALL (      87 calls)
     fft          :      0.63s CPU      0.76s WALL (     167 calls)
                                        0.14s GPU  (     106 calls)
     ffts         :      0.05s CPU      0.05s WALL (      20 calls)
     fftw         :      0.48s CPU      0.63s WALL (    2086 calls)
                                        0.55s GPU  (    2086 calls)
 
     Parallel routines
 
     PWSCF        :      3.33s CPU      7.38s WALL

 
   This run was terminated on:  10:51:53  10May2023            

=------------------------------------------------------------------------------=
   JOB DONE.
=------------------------------------------------------------------------------=
