An instance of this daemon is already running

     Program PWSCF v.7.1 starts on 10May2023 at 10:46: 5 

     This program is part of the open-source Quantum ESPRESSO suite
     for quantum simulation of materials; please cite
         "P. Giannozzi et al., J. Phys.:Condens. Matter 21 395502 (2009);
         "P. Giannozzi et al., J. Phys.:Condens. Matter 29 465901 (2017);
         "P. Giannozzi et al., J. Chem. Phys. 152 154105 (2020);
          URL http://www.quantum-espresso.org", 
     in publications or presentations arising from this work. More details at
     http://www.quantum-espresso.org/quote

     Parallel version (MPI & OpenMP), running on       4 processor cores
     Number of MPI processes:                 4
     Threads/MPI process:                     1

     MPI processes distributed on     1 nodes
     753535 MiB available memory on the printing compute node when the environment starts
 
     Reading input from pw-si-53.in
Warning: card &CELL ignored
Warning: card / ignored

     Current dimensions of program PWSCF are:
     Max number of different atomic species (ntypx) = 10
     Max number of k-points (npk) =  40000
     Max angular momentum in pseudopotentials (lmaxx) =  4

     IMPORTANT: XC functional enforced from input :
     Exchange-correlation= PBE
                           (   1   4   3   4   0   0   0)
     Any further DFT definition will be discarded
     Please, verify this is what you really want


     gamma-point specific algorithms are used
 
     K-points division:     npool     =       2
     R & G space division:  proc/nbgrp/npool/nimage =       2
     Subspace diagonalization in iterative solution of the eigenvalue problem:
     a serial algorithm will be used

     Message from routine divide_et_impera:
     suboptimal parallelization: some nodes have no k-points
 
     Parallelization info
     --------------------
     sticks:   dense  smooth     PW     G-vecs:    dense   smooth      PW
     Min        1930    1930    504                90041    90041   12201
     Max        1931    1931    505                90042    90042   12204
     Sum        3861    3861   1009               180083   180083   24405
 
     Using Slab Decomposition
 


     bravais-lattice index     =            0
     lattice parameter (alat)  =      20.0841  a.u.
     unit-cell volume          =    8101.2892 (a.u.)^3
     number of atoms/cell      =           64
     number of atomic types    =            1
     number of electrons       =       256.00
     number of Kohn-Sham states=          154
     kinetic-energy cutoff     =      30.0000  Ry
     charge density cutoff     =     120.0000  Ry
     scf convergence threshold =      1.0E-06
     mixing beta               =       0.5000
     number of iterations used =            8  plain     mixing
     Exchange-correlation= PBE
                           (   1   4   3   4   0   0   0)

     GPU acceleration is ACTIVE.
     GPU-aware MPI enabled

     Message from routine print_cuda_info:
     High GPU oversubscription detected. Are you sure this is what you want?

     celldm(1)=  20.084054  celldm(2)=   0.000000  celldm(3)=   0.000000
     celldm(4)=   0.000000  celldm(5)=   0.000000  celldm(6)=   0.000000

     crystal axes: (cart. coord. in units of alat)
               a(1) = (   1.000000   0.000000   0.000000 )  
               a(2) = (   0.000000   1.000000   0.000000 )  
               a(3) = (   0.000000   0.000000   1.000000 )  

     reciprocal axes: (cart. coord. in units 2 pi/alat)
               b(1) = (  1.000000  0.000000  0.000000 )  
               b(2) = (  0.000000  1.000000  0.000000 )  
               b(3) = (  0.000000  0.000000  1.000000 )  


     PseudoPot. # 1 for Si read from file:
     /home/ppiaggi/pseudos/Si_ONCV_PBE_sr.upf
     MD5 check sum: 8553c464762ac42b85b1eed164b4d029
     Pseudo is Norm-conserving, Zval =  4.0
     Generated using ONCVPSP code by D. R. Hamann
     Using radial grid of 1510 points,  4 beta functions with: 
                l(1) =   0
                l(2) =   0
                l(3) =   1
                l(4) =   1

     atomic species   valence    mass     pseudopotential
        Si             4.00    28.08500     Si( 1.00)

     No symmetry found



   Cartesian axes

     site n.     atom                  positions (alat units)
         1           Si  tau(   1) = (   0.9462990   0.1629780   0.2026640  )
         2           Si  tau(   2) = (   0.7741280   0.2975190   0.2422990  )
         3           Si  tau(   3) = (   0.3327310   0.0190164   0.3770090  )
         4           Si  tau(   4) = (   0.2610320   0.9172810   0.5735610  )
         5           Si  tau(   5) = (   0.0149128   0.6198540   0.6907610  )
         6           Si  tau(   6) = (   0.2025880   0.6130090   0.1162870  )
         7           Si  tau(   7) = (   0.4911720   0.8359330   0.0867167  )
         8           Si  tau(   8) = (   0.9456030   0.6269320   0.1789590  )
         9           Si  tau(   9) = (   0.3588870   0.6888060   0.3129100  )
        10           Si  tau(  10) = (   0.0303702   0.2939510   0.5272880  )
        11           Si  tau(  11) = (   0.7604190   0.7556280   0.2157210  )
        12           Si  tau(  12) = (   0.1713010   0.5793630   0.8507660  )
        13           Si  tau(  13) = (   0.5408850   0.7795480   0.4392150  )
        14           Si  tau(  14) = (   0.9714210   0.0344232   0.8879320  )
        15           Si  tau(  15) = (   0.2397960   0.3530280   0.7797740  )
        16           Si  tau(  16) = (   0.0904292   0.7657720   0.5409280  )
        17           Si  tau(  17) = (   0.5498140   0.9654660   0.2988470  )
        18           Si  tau(  18) = (   0.8607740   0.6951940   0.8700190  )
        19           Si  tau(  19) = (   0.7211480   0.7894280   0.0044201  )
        20           Si  tau(  20) = (   0.8641310   0.9731570   0.2971100  )
        21           Si  tau(  21) = (   0.4074870   0.0113222   0.9356880  )
        22           Si  tau(  22) = (   0.6915840   0.2913190   0.4708090  )
        23           Si  tau(  23) = (   0.2604070   0.2726400   0.5675640  )
        24           Si  tau(  24) = (   0.6534880   0.9705030   0.6431850  )
        25           Si  tau(  25) = (   0.4627920   0.8127320   0.6358280  )
        26           Si  tau(  26) = (   0.1647020   0.1760550   0.3127770  )
        27           Si  tau(  27) = (   0.4358000   0.2598510   0.0854340  )
        28           Si  tau(  28) = (   0.9786870   0.0659342   0.5732730  )
        29           Si  tau(  29) = (   0.0450750   0.8338220   0.9183450  )
        30           Si  tau(  30) = (   0.4585550   0.1977940   0.4260560  )
        31           Si  tau(  31) = (   0.0720930   0.8263040   0.1610050  )
        32           Si  tau(  32) = (   0.5448890   0.3273600   0.6743710  )
        33           Si  tau(  33) = (   0.2363950   0.8792150   0.8262350  )
        34           Si  tau(  34) = (   0.2772310   0.8938540   0.1880620  )
        35           Si  tau(  35) = (   0.2029990   0.5998420   0.4240290  )
        36           Si  tau(  36) = (   0.8379200   0.0853002   0.7274120  )
        37           Si  tau(  37) = (   0.0204641   0.3542140   0.8677660  )
        38           Si  tau(  38) = (   0.6272750   0.5899520   0.8882000  )
        39           Si  tau(  39) = (   0.8017000   0.0042866   0.0314128  )
        40           Si  tau(  40) = (   0.3349530   0.5083050   0.5792330  )
        41           Si  tau(  41) = (   0.8472900   0.3105660   0.7060590  )
        42           Si  tau(  42) = (   0.6430480   0.1201990   0.1511510  )
        43           Si  tau(  43) = (   0.6139540   0.5801030   0.2066780  )
        44           Si  tau(  44) = (   0.7113560   0.4266970   0.0475242  )
        45           Si  tau(  45) = (   0.6208440   0.0799880   0.8884600  )
        46           Si  tau(  46) = (   0.9067950   0.8567800   0.4900710  )
        47           Si  tau(  47) = (   0.3743220   0.3492060   0.2721310  )
        48           Si  tau(  48) = (   0.4494980   0.6172320   0.0481564  )
        49           Si  tau(  49) = (   0.7544590   0.6695670   0.4312150  )
        50           Si  tau(  50) = (   0.3644670   0.6564580   0.7780670  )
        51           Si  tau(  51) = (   0.9314910   0.4427180   0.3375170  )
        52           Si  tau(  52) = (   0.6120470   0.5789340   0.6633370  )
        53           Si  tau(  53) = (   0.5193980   0.4778060   0.4014800  )
        54           Si  tau(  54) = (   0.4448940   0.1126610   0.6710020  )
        55           Si  tau(  55) = (   0.7089870   0.0780521   0.4411750  )
        56           Si  tau(  56) = (   0.6764080   0.2936890   0.8575240  )
        57           Si  tau(  57) = (   0.2548230   0.1296000   0.0866788  )
        58           Si  tau(  58) = (   0.7630490   0.7859800   0.6547330  )
        59           Si  tau(  59) = (   0.8726240   0.5139220   0.5611970  )
        60           Si  tau(  60) = (   0.1579150   0.0785780   0.7191630  )
        61           Si  tau(  61) = (   0.0612138   0.1987740   0.0063383  )
        62           Si  tau(  62) = (   0.9046230   0.5241340   0.9806120  )
        63           Si  tau(  63) = (   0.4352190   0.4140880   0.9070430  )
        64           Si  tau(  64) = (   0.1611690   0.4362950   0.2807090  )

     number of k points=     1  Fermi-Dirac smearing, width (Ry)=  0.0100
                       cart. coord. in units 2pi/alat
        k(    1) = (   0.0000000   0.0000000   0.0000000), wk =   2.0000000

     Dense  grid:    90042 G-vectors     FFT dimensions: (  72,  72,  72)

     Estimated max dynamical RAM per process >     144.50 MB

     Estimated total dynamical RAM >     556.00 MB

     Initial potential from superposition of free atoms

     starting charge     255.9608, renormalised to     256.0000
     Starting wfcs are  256 randomized atomic wfcs

     total cpu time spent up to now is        5.0 secs

     Self-consistent Calculation

     iteration #  1     ecut=    30.00 Ry     beta= 0.50
     Davidson diagonalization with overlap
     ethr =  1.00E-02,  avg # of iterations =  3.0

     Threshold (ethr) on eigenvalues was too large:
     Diagonalizing with lowered threshold

     Davidson diagonalization with overlap
     ethr =  4.31E-04,  avg # of iterations =  4.0

     total cpu time spent up to now is        5.3 secs

     total energy              =    -501.53959121 Ry
     estimated scf accuracy    <       1.31932843 Ry

     iteration #  2     ecut=    30.00 Ry     beta= 0.50
     Davidson diagonalization with overlap
     ethr =  5.15E-04,  avg # of iterations =  4.0

     total cpu time spent up to now is        5.4 secs

     total energy              =    -501.07258883 Ry
     estimated scf accuracy    <       5.10511627 Ry

     iteration #  3     ecut=    30.00 Ry     beta= 0.50
     Davidson diagonalization with overlap
     ethr =  5.15E-04,  avg # of iterations =  3.0

     total cpu time spent up to now is        5.5 secs

     total energy              =    -501.57698207 Ry
     estimated scf accuracy    <       2.28642632 Ry

     iteration #  4     ecut=    30.00 Ry     beta= 0.50
     Davidson diagonalization with overlap
     ethr =  5.15E-04,  avg # of iterations =  2.0

     total cpu time spent up to now is        5.6 secs

     total energy              =    -501.73500204 Ry
     estimated scf accuracy    <       0.48680056 Ry

     iteration #  5     ecut=    30.00 Ry     beta= 0.50
     Davidson diagonalization with overlap
     ethr =  1.90E-04,  avg # of iterations =  2.0

     total cpu time spent up to now is        5.7 secs

     total energy              =    -501.76487816 Ry
     estimated scf accuracy    <       0.29931693 Ry

     iteration #  6     ecut=    30.00 Ry     beta= 0.50
     Davidson diagonalization with overlap
     ethr =  1.17E-04,  avg # of iterations =  2.0

     total cpu time spent up to now is        5.8 secs

     total energy              =    -501.79498240 Ry
     estimated scf accuracy    <       0.09932201 Ry

     iteration #  7     ecut=    30.00 Ry     beta= 0.50
     Davidson diagonalization with overlap
     ethr =  3.88E-05,  avg # of iterations =  3.0

     total cpu time spent up to now is        5.9 secs

     total energy              =    -501.80364018 Ry
     estimated scf accuracy    <       0.01687753 Ry

     iteration #  8     ecut=    30.00 Ry     beta= 0.50
     Davidson diagonalization with overlap
     ethr =  6.59E-06,  avg # of iterations = 20.0

     total cpu time spent up to now is        6.1 secs

     total energy              =    -501.80570175 Ry
     estimated scf accuracy    <       0.01717983 Ry

     iteration #  9     ecut=    30.00 Ry     beta= 0.50
     Davidson diagonalization with overlap
     ethr =  6.59E-06,  avg # of iterations =  2.0

     total cpu time spent up to now is        6.2 secs

     total energy              =    -501.80713442 Ry
     estimated scf accuracy    <       0.00104681 Ry

     iteration # 10     ecut=    30.00 Ry     beta= 0.50
     Davidson diagonalization with overlap
     ethr =  4.09E-07,  avg # of iterations =  5.0

     total cpu time spent up to now is        6.4 secs

     total energy              =    -501.80725933 Ry
     estimated scf accuracy    <       0.00189352 Ry

     iteration # 11     ecut=    30.00 Ry     beta= 0.50
     Davidson diagonalization with overlap
     ethr =  4.09E-07,  avg # of iterations =  3.0

     total cpu time spent up to now is        6.5 secs

     total energy              =    -501.80741424 Ry
     estimated scf accuracy    <       0.00049287 Ry

     iteration # 12     ecut=    30.00 Ry     beta= 0.50
     Davidson diagonalization with overlap
     ethr =  1.93E-07,  avg # of iterations =  2.0

     total cpu time spent up to now is        6.6 secs

     total energy              =    -501.80745100 Ry
     estimated scf accuracy    <       0.00017817 Ry

     iteration # 13     ecut=    30.00 Ry     beta= 0.50
     Davidson diagonalization with overlap
     ethr =  6.96E-08,  avg # of iterations =  2.0

     total cpu time spent up to now is        6.7 secs

     total energy              =    -501.80746642 Ry
     estimated scf accuracy    <       0.00012811 Ry

     iteration # 14     ecut=    30.00 Ry     beta= 0.50
     Davidson diagonalization with overlap
     ethr =  5.00E-08,  avg # of iterations =  1.0

     total cpu time spent up to now is        6.7 secs

     total energy              =    -501.80747622 Ry
     estimated scf accuracy    <       0.00001175 Ry

     iteration # 15     ecut=    30.00 Ry     beta= 0.50
     Davidson diagonalization with overlap
     ethr =  4.59E-09,  avg # of iterations =  4.0

     total cpu time spent up to now is        6.9 secs

     total energy              =    -501.80747661 Ry
     estimated scf accuracy    <       0.00001923 Ry

     iteration # 16     ecut=    30.00 Ry     beta= 0.50
     Davidson diagonalization with overlap
     ethr =  4.59E-09,  avg # of iterations =  3.0

     total cpu time spent up to now is        7.0 secs

     total energy              =    -501.80747745 Ry
     estimated scf accuracy    <       0.00001942 Ry

     iteration # 17     ecut=    30.00 Ry     beta= 0.50
     Davidson diagonalization with overlap
     ethr =  4.59E-09,  avg # of iterations =  2.0

     total cpu time spent up to now is        7.1 secs

     total energy              =    -501.80747876 Ry
     estimated scf accuracy    <       0.00000431 Ry

     iteration # 18     ecut=    30.00 Ry     beta= 0.50
     Davidson diagonalization with overlap
     ethr =  1.68E-09,  avg # of iterations =  2.0

     total cpu time spent up to now is        7.1 secs

     total energy              =    -501.80747921 Ry
     estimated scf accuracy    <       0.00000109 Ry

     iteration # 19     ecut=    30.00 Ry     beta= 0.50
     Davidson diagonalization with overlap
     ethr =  4.24E-10,  avg # of iterations =  2.0

     total cpu time spent up to now is        7.2 secs

     End of self-consistent calculation

          k = 0.0000 0.0000 0.0000 ( 11288 PWs)   bands (ev):

    -5.3753  -4.4804  -4.3607  -4.2114  -4.1897  -4.0164  -3.8739  -3.4483
    -3.3140  -3.2037  -3.1603  -3.0263  -3.0073  -2.9364  -2.9127  -2.7741
    -2.7517  -2.6031  -2.5325  -2.1917  -2.0228  -1.9921  -1.8216  -1.6282
    -1.5532  -1.4226  -1.1571  -0.9912  -0.8901  -0.7909  -0.6869  -0.5208
    -0.3339  -0.2713  -0.1535  -0.0606   0.0064   0.1373   0.1982   0.2939
     0.3374   0.4363   0.5351   0.6674   0.7591   0.8809   0.9431   1.0055
     1.0492   1.1802   1.2366   1.3508   1.4400   1.5210   1.5341   1.7149
     1.7214   1.8181   1.9007   1.9747   2.1873   2.2901   2.3845   2.5058
     2.6266   2.6961   2.7342   2.7615   2.8666   2.9072   3.0008   3.0252
     3.1477   3.1520   3.1976   3.3184   3.3615   3.4970   3.5556   3.7489
     3.9104   4.1695   4.2422   4.2626   4.4165   4.5147   4.5882   4.6813
     4.7297   4.8338   4.9011   4.9417   5.0245   5.0974   5.1381   5.1932
     5.2181   5.2300   5.3385   5.4231   5.4861   5.5199   5.5445   5.6396
     5.6710   5.7428   5.7936   5.9313   5.9579   5.9865   6.0890   6.1127
     6.1213   6.2208   6.2579   6.3221   6.3936   6.4233   6.4987   6.5248
     6.6258   6.6869   6.8150   6.8882   6.9216   7.0097   7.0287   7.0701
     7.1489   7.2271   7.3345   7.3861   7.4455   7.5094   7.5528   7.6499
     7.7159   7.8068   7.8677   7.9421   7.9704   8.0157   8.1241   8.2297
     8.3552   8.3729   8.4573   8.4904   8.5403   8.5946   8.6536   8.6885
     8.7923   8.8307

     the Fermi energy is     7.1409 ev

!    total energy              =    -501.80747922 Ry
     estimated scf accuracy    <       0.00000016 Ry
     smearing contrib. (-TS)   =      -0.13550549 Ry
     internal energy E=F+TS    =    -501.67197373 Ry

     The total energy is F=E-TS. E is the sum of the following terms:
     one-electron contribution =     186.73235583 Ry
     hartree contribution      =      25.20168886 Ry
     xc contribution           =    -151.59792653 Ry
     ewald contribution        =    -562.00809190 Ry

     convergence has been achieved in  19 iterations

     Forces acting on atoms (cartesian axes, Ry/au):

     atom    1 type  1   force =     0.02381411   -0.00817575    0.01002524
     atom    2 type  1   force =    -0.00086129    0.01078538   -0.00719850
     atom    3 type  1   force =    -0.02712463   -0.01501962    0.00029949
     atom    4 type  1   force =     0.00687166   -0.00837383    0.01693946
     atom    5 type  1   force =     0.00973017    0.02724029    0.02174773
     atom    6 type  1   force =     0.02027444   -0.00335989   -0.00632121
     atom    7 type  1   force =    -0.01620100    0.03561772   -0.00794947
     atom    8 type  1   force =     0.00496924   -0.01134832    0.00381277
     atom    9 type  1   force =     0.05154713    0.04362684   -0.04181367
     atom   10 type  1   force =     0.00892412   -0.01239398   -0.01720009
     atom   11 type  1   force =     0.01660651    0.00146309    0.02354557
     atom   12 type  1   force =    -0.01622695   -0.03274428    0.01934776
     atom   13 type  1   force =     0.01687081   -0.01978603   -0.05507020
     atom   14 type  1   force =    -0.00573968    0.01009866    0.02355308
     atom   15 type  1   force =    -0.00443103    0.03048320    0.01894727
     atom   16 type  1   force =     0.04969092   -0.02483894   -0.00922147
     atom   17 type  1   force =    -0.00302619   -0.01715805   -0.00680607
     atom   18 type  1   force =     0.04427120    0.04954194   -0.09096204
     atom   19 type  1   force =    -0.04548654    0.05606239    0.01575890
     atom   20 type  1   force =    -0.00792212   -0.02124586   -0.00521907
     atom   21 type  1   force =    -0.01526761   -0.02631579    0.01663199
     atom   22 type  1   force =    -0.04437162    0.05424820   -0.01195824
     atom   23 type  1   force =    -0.00483202    0.00081661    0.00194138
     atom   24 type  1   force =    -0.03823012    0.03301862   -0.00514030
     atom   25 type  1   force =    -0.01884977    0.02489944    0.03887280
     atom   26 type  1   force =    -0.00063308    0.01767789    0.00454194
     atom   27 type  1   force =     0.02934313   -0.00559294   -0.02598040
     atom   28 type  1   force =     0.04606602    0.00513230   -0.04228340
     atom   29 type  1   force =    -0.01954958   -0.02841702    0.04591241
     atom   30 type  1   force =    -0.00360386   -0.00471879    0.03833908
     atom   31 type  1   force =    -0.02821129   -0.02318691   -0.04628356
     atom   32 type  1   force =    -0.00393304    0.02150088    0.00332299
     atom   33 type  1   force =     0.04422436    0.00303035   -0.02645469
     atom   34 type  1   force =     0.04959369    0.00892634    0.02506242
     atom   35 type  1   force =    -0.03620544   -0.00409370    0.04586678
     atom   36 type  1   force =    -0.04503942    0.02120812    0.02338357
     atom   37 type  1   force =    -0.00784209    0.04795799   -0.01721903
     atom   38 type  1   force =    -0.02590051   -0.00355924    0.02042165
     atom   39 type  1   force =    -0.03812243   -0.01260359    0.00515245
     atom   40 type  1   force =     0.03175631   -0.02936331    0.01502504
     atom   41 type  1   force =     0.03045946    0.01690844   -0.00351196
     atom   42 type  1   force =    -0.02756848    0.02288891   -0.00588089
     atom   43 type  1   force =    -0.02114682   -0.03219882    0.00100391
     atom   44 type  1   force =     0.02834283   -0.00056620    0.00647173
     atom   45 type  1   force =     0.00423698   -0.00179835    0.00174127
     atom   46 type  1   force =    -0.01999327    0.02368015   -0.02780948
     atom   47 type  1   force =     0.00908288    0.01178573    0.02947247
     atom   48 type  1   force =    -0.03325988   -0.00516668   -0.01100204
     atom   49 type  1   force =    -0.02730217    0.02538959    0.02414901
     atom   50 type  1   force =     0.03884718    0.00540773   -0.01857630
     atom   51 type  1   force =     0.02048514   -0.01526828    0.00940075
     atom   52 type  1   force =     0.01788290    0.00431949   -0.02053869
     atom   53 type  1   force =     0.00729246    0.00657203   -0.00112671
     atom   54 type  1   force =     0.00737715    0.01266962   -0.01183670
     atom   55 type  1   force =    -0.02177056   -0.05852920   -0.00809109
     atom   56 type  1   force =    -0.01405930    0.00982634    0.00687134
     atom   57 type  1   force =     0.02296986   -0.02209617   -0.00750535
     atom   58 type  1   force =     0.00796741   -0.04447531    0.00138296
     atom   59 type  1   force =    -0.03836192   -0.04370218   -0.01033530
     atom   60 type  1   force =     0.02122997   -0.00130797   -0.03352837
     atom   61 type  1   force =     0.00275590   -0.03426223    0.02928046
     atom   62 type  1   force =     0.01828139   -0.06873199    0.04554597
     atom   63 type  1   force =    -0.00696156   -0.00078991    0.00556062
     atom   64 type  1   force =    -0.02373010   -0.00159513   -0.01650796

     Total force =     0.355249     Total SCF correction =     0.000717


     Computing stress (Cartesian axis) and pressure

          total   stress  (Ry/bohr**3)                   (kbar)     P=      -18.27
  -0.00008530  -0.00004458  -0.00001220          -12.55       -6.56       -1.79
  -0.00004458  -0.00010696  -0.00000323           -6.56      -15.74       -0.47
  -0.00001220  -0.00000323  -0.00018024           -1.79       -0.47      -26.51

 
     init_run     :      1.11s CPU      4.94s WALL (       1 calls)
     electrons    :      2.07s CPU      2.22s WALL (       1 calls)
     forces       :      0.03s CPU      0.04s WALL (       1 calls)
     stress       :      0.15s CPU      0.15s WALL (       1 calls)

     Called by init_run:
     wfcinit      :      0.57s CPU      4.22s WALL (       1 calls)
                                        4.22s GPU  (       1 calls)
     potinit      :      0.05s CPU      0.14s WALL (       1 calls)
     hinit0       :      0.47s CPU      0.50s WALL (       1 calls)

     Called by electrons:
     c_bands      :      1.24s CPU      1.32s WALL (      20 calls)
     sum_band     :      0.40s CPU      0.44s WALL (      20 calls)
     v_of_rho     :      0.19s CPU      0.30s WALL (      20 calls)
     mix_rho      :      0.19s CPU      0.21s WALL (      20 calls)

     Called by c_bands:
     init_us_2    :      0.07s CPU      0.08s WALL (      41 calls)
     init_us_2:gp :      0.07s CPU      0.08s WALL (      41 calls)
     regterg      :      1.07s CPU      1.13s WALL (      20 calls)

     Called by *egterg:
     rdiaghg      :      0.45s CPU      1.21s WALL (      90 calls)
                                        1.19s GPU  (      90 calls)
     h_psi        :      0.98s CPU      3.93s WALL (      92 calls)
                                        3.93s GPU  (      92 calls)
     g_psi        :      0.00s CPU      0.00s WALL (      71 calls)
                                        0.00s GPU  (      71 calls)

     Called by h_psi:
     h_psi:calbec :      0.52s CPU      3.39s WALL (      92 calls)
                                        3.39s GPU  (      92 calls)
     vloc_psi     :      0.41s CPU      0.48s WALL (      92 calls)
                                        0.47s GPU  (      92 calls)
     add_vuspsi   :      0.04s CPU      0.05s WALL (      92 calls)
                                        0.05s GPU  (      92 calls)

     General routines
     calbec       :      0.53s CPU      3.39s WALL (      97 calls)
     fft          :      0.63s CPU      0.76s WALL (     167 calls)
                                        0.14s GPU  (     106 calls)
     ffts         :      0.05s CPU      0.05s WALL (      20 calls)
     fftw         :      0.49s CPU      0.64s WALL (    2108 calls)
                                        0.56s GPU  (    2108 calls)
 
     Parallel routines
 
     PWSCF        :      3.40s CPU      7.44s WALL

 
   This run was terminated on:  10:46:12  10May2023            

=------------------------------------------------------------------------------=
   JOB DONE.
=------------------------------------------------------------------------------=
