An instance of this daemon is already running

     Program PWSCF v.7.1 starts on 10May2023 at 10:49:48 

     This program is part of the open-source Quantum ESPRESSO suite
     for quantum simulation of materials; please cite
         "P. Giannozzi et al., J. Phys.:Condens. Matter 21 395502 (2009);
         "P. Giannozzi et al., J. Phys.:Condens. Matter 29 465901 (2017);
         "P. Giannozzi et al., J. Chem. Phys. 152 154105 (2020);
          URL http://www.quantum-espresso.org", 
     in publications or presentations arising from this work. More details at
     http://www.quantum-espresso.org/quote

     Parallel version (MPI & OpenMP), running on       4 processor cores
     Number of MPI processes:                 4
     Threads/MPI process:                     1

     MPI processes distributed on     1 nodes
     753541 MiB available memory on the printing compute node when the environment starts
 
     Reading input from pw-si-76.in
Warning: card &CELL ignored
Warning: card / ignored

     Current dimensions of program PWSCF are:
     Max number of different atomic species (ntypx) = 10
     Max number of k-points (npk) =  40000
     Max angular momentum in pseudopotentials (lmaxx) =  4

     IMPORTANT: XC functional enforced from input :
     Exchange-correlation= PBE
                           (   1   4   3   4   0   0   0)
     Any further DFT definition will be discarded
     Please, verify this is what you really want


     gamma-point specific algorithms are used
 
     K-points division:     npool     =       2
     R & G space division:  proc/nbgrp/npool/nimage =       2
     Subspace diagonalization in iterative solution of the eigenvalue problem:
     a serial algorithm will be used

     Message from routine divide_et_impera:
     suboptimal parallelization: some nodes have no k-points
 
     Parallelization info
     --------------------
     sticks:   dense  smooth     PW     G-vecs:    dense   smooth      PW
     Min        1954    1954    520                92054    92054   12584
     Max        1955    1955    521                92061    92061   12589
     Sum        3909    3909   1041               184115   184115   25173
 
     Using Slab Decomposition
 


     bravais-lattice index     =            0
     lattice parameter (alat)  =      20.2463  a.u.
     unit-cell volume          =    8299.1771 (a.u.)^3
     number of atoms/cell      =           64
     number of atomic types    =            1
     number of electrons       =       256.00
     number of Kohn-Sham states=          154
     kinetic-energy cutoff     =      30.0000  Ry
     charge density cutoff     =     120.0000  Ry
     scf convergence threshold =      1.0E-06
     mixing beta               =       0.5000
     number of iterations used =            8  plain     mixing
     Exchange-correlation= PBE
                           (   1   4   3   4   0   0   0)

     GPU acceleration is ACTIVE.
     GPU-aware MPI enabled

     Message from routine print_cuda_info:
     High GPU oversubscription detected. Are you sure this is what you want?

     celldm(1)=  20.246269  celldm(2)=   0.000000  celldm(3)=   0.000000
     celldm(4)=   0.000000  celldm(5)=   0.000000  celldm(6)=   0.000000

     crystal axes: (cart. coord. in units of alat)
               a(1) = (   1.000000   0.000000   0.000000 )  
               a(2) = (   0.000000   1.000000   0.000000 )  
               a(3) = (   0.000000   0.000000   1.000000 )  

     reciprocal axes: (cart. coord. in units 2 pi/alat)
               b(1) = (  1.000000  0.000000  0.000000 )  
               b(2) = (  0.000000  1.000000  0.000000 )  
               b(3) = (  0.000000  0.000000  1.000000 )  


     PseudoPot. # 1 for Si read from file:
     /home/ppiaggi/pseudos/Si_ONCV_PBE_sr.upf
     MD5 check sum: 8553c464762ac42b85b1eed164b4d029
     Pseudo is Norm-conserving, Zval =  4.0
     Generated using ONCVPSP code by D. R. Hamann
     Using radial grid of 1510 points,  4 beta functions with: 
                l(1) =   0
                l(2) =   0
                l(3) =   1
                l(4) =   1

     atomic species   valence    mass     pseudopotential
        Si             4.00    28.08500     Si( 1.00)

     No symmetry found



   Cartesian axes

     site n.     atom                  positions (alat units)
         1           Si  tau(   1) = (   0.9785480   0.6506680   0.8639810  )
         2           Si  tau(   2) = (   0.0747632   0.9430230   0.6921840  )
         3           Si  tau(   3) = (   0.3687890   0.6584320   0.9903690  )
         4           Si  tau(   4) = (   0.8673160   0.0052485   0.4129500  )
         5           Si  tau(   5) = (   0.6617950   0.6480300   0.1945980  )
         6           Si  tau(   6) = (   0.3596040   0.8220100   0.1619250  )
         7           Si  tau(   7) = (   0.4618740   0.2770950   0.1269300  )
         8           Si  tau(   8) = (   0.3951080   0.4230160   0.5231860  )
         9           Si  tau(   9) = (   0.7413830   0.4749100   0.7554130  )
        10           Si  tau(  10) = (   0.4478700   0.6287130   0.2727730  )
        11           Si  tau(  11) = (   0.8154580   0.6604510   0.6537420  )
        12           Si  tau(  12) = (   0.5214130   0.5673570   0.6548620  )
        13           Si  tau(  13) = (   0.0471419   0.0839287   0.2757500  )
        14           Si  tau(  14) = (   0.2685470   0.1229410   0.4044710  )
        15           Si  tau(  15) = (   0.9895360   0.2156760   0.8760960  )
        16           Si  tau(  16) = (   0.4010710   0.7988090   0.8310210  )
        17           Si  tau(  17) = (   0.0035768   0.6371220   0.5539970  )
        18           Si  tau(  18) = (   0.6808470   0.9308260   0.6377870  )
        19           Si  tau(  19) = (   0.6504180   0.6160600   0.4797830  )
        20           Si  tau(  20) = (   0.1691090   0.4360800   0.1823640  )
        21           Si  tau(  21) = (   0.7754170   0.4902270   0.9731110  )
        22           Si  tau(  22) = (   0.2949890   0.9602670   0.5924930  )
        23           Si  tau(  23) = (   0.6228150   0.2443060   0.7494810  )
        24           Si  tau(  24) = (   0.7231480   0.1772410   0.3156840  )
        25           Si  tau(  25) = (   0.2356010   0.3070440   0.5911700  )
        26           Si  tau(  26) = (   0.1824870   0.1661890   0.7493260  )
        27           Si  tau(  27) = (   0.4645470   0.4014610   0.8353140  )
        28           Si  tau(  28) = (   0.8789920   0.3454460   0.2059090  )
        29           Si  tau(  29) = (   0.3893670   0.4138440   0.2984400  )
        30           Si  tau(  30) = (   0.0167051   0.5731430   0.3074440  )
        31           Si  tau(  31) = (   0.5780180   0.0528658   0.9426390  )
        32           Si  tau(  32) = (   0.2539020   0.4058870   0.8285510  )
        33           Si  tau(  33) = (   0.8497190   0.1136890   0.0822257  )
        34           Si  tau(  34) = (   0.1906880   0.8908880   0.3471560  )
        35           Si  tau(  35) = (   0.2596180   0.2636030   0.0215635  )
        36           Si  tau(  36) = (   0.8639540   0.0688734   0.6408300  )
        37           Si  tau(  37) = (   0.4792690   0.1502480   0.3152950  )
        38           Si  tau(  38) = (   0.1116970   0.1068910   0.0646597  )
        39           Si  tau(  39) = (   0.7666800   0.7252480   0.9789010  )
        40           Si  tau(  40) = (   0.5465160   0.2463580   0.5483740  )
        41           Si  tau(  41) = (   0.7467130   0.3504100   0.4788900  )
        42           Si  tau(  42) = (   0.9992220   0.8829790   0.8937790  )
        43           Si  tau(  43) = (   0.9879300   0.3828440   0.0212737  )
        44           Si  tau(  44) = (   0.3478860   0.0572396   0.8704310  )
        45           Si  tau(  45) = (   0.7084000   0.9255100   0.2743660  )
        46           Si  tau(  46) = (   0.5308250   0.5075870   0.0326442  )
        47           Si  tau(  47) = (   0.9949140   0.8534590   0.4955250  )
        48           Si  tau(  48) = (   0.1570750   0.6037950   0.7133060  )
        49           Si  tau(  49) = (   0.0458957   0.4088180   0.5516760  )
        50           Si  tau(  50) = (   0.7914340   0.5235940   0.3269200  )
        51           Si  tau(  51) = (   0.1514630   0.5956050   0.0057859  )
        52           Si  tau(  52) = (   0.6786700   0.2794400   0.0243118  )
        53           Si  tau(  53) = (   0.0816779   0.7533930   0.1889460  )
        54           Si  tau(  54) = (   0.0637348   0.3093920   0.3588460  )
        55           Si  tau(  55) = (   0.6187710   0.8693630   0.8536250  )
        56           Si  tau(  56) = (   0.2001960   0.9010150   0.9979120  )
        57           Si  tau(  57) = (   0.6083480   0.8232580   0.4475880  )
        58           Si  tau(  58) = (   0.8328970   0.0235978   0.8664950  )
        59           Si  tau(  59) = (   0.5035940   0.0513176   0.6546720  )
        60           Si  tau(  60) = (   0.8761640   0.8715920   0.1225400  )
        61           Si  tau(  61) = (   0.5151720   0.9842420   0.1373460  )
        62           Si  tau(  62) = (   0.3360760   0.7079280   0.6428900  )
        63           Si  tau(  63) = (   0.3887190   0.7848500   0.4258380  )
        64           Si  tau(  64) = (   0.8781540   0.3035730   0.6995430  )

     number of k points=     1  Fermi-Dirac smearing, width (Ry)=  0.0100
                       cart. coord. in units 2pi/alat
        k(    1) = (   0.0000000   0.0000000   0.0000000), wk =   2.0000000

     Dense  grid:    92058 G-vectors     FFT dimensions: (  72,  72,  72)

     Estimated max dynamical RAM per process >     147.60 MB

     Estimated total dynamical RAM >     567.91 MB

     Initial potential from superposition of free atoms

     starting charge     255.9608, renormalised to     256.0000
     Starting wfcs are  256 randomized atomic wfcs

     total cpu time spent up to now is        5.0 secs

     Self-consistent Calculation

     iteration #  1     ecut=    30.00 Ry     beta= 0.50
     Davidson diagonalization with overlap
     ethr =  1.00E-02,  avg # of iterations =  3.0

     Threshold (ethr) on eigenvalues was too large:
     Diagonalizing with lowered threshold

     Davidson diagonalization with overlap
     ethr =  3.86E-04,  avg # of iterations =  5.0

     total cpu time spent up to now is        5.3 secs

     total energy              =    -501.66466881 Ry
     estimated scf accuracy    <       1.14980628 Ry

     iteration #  2     ecut=    30.00 Ry     beta= 0.50
     Davidson diagonalization with overlap
     ethr =  4.49E-04,  avg # of iterations =  5.0

     total cpu time spent up to now is        5.4 secs

     total energy              =    -501.31284999 Ry
     estimated scf accuracy    <       3.08553658 Ry

     iteration #  3     ecut=    30.00 Ry     beta= 0.50
     Davidson diagonalization with overlap
     ethr =  4.49E-04,  avg # of iterations =  5.0

     total cpu time spent up to now is        5.6 secs

     total energy              =    -501.64656681 Ry
     estimated scf accuracy    <       2.11784384 Ry

     iteration #  4     ecut=    30.00 Ry     beta= 0.50
     Davidson diagonalization with overlap
     ethr =  4.49E-04,  avg # of iterations =  2.0

     total cpu time spent up to now is        5.6 secs

     total energy              =    -501.76940682 Ry
     estimated scf accuracy    <       0.44518010 Ry

     iteration #  5     ecut=    30.00 Ry     beta= 0.50
     Davidson diagonalization with overlap
     ethr =  1.74E-04,  avg # of iterations =  2.0

     total cpu time spent up to now is        5.7 secs

     total energy              =    -501.80495050 Ry
     estimated scf accuracy    <       0.20493489 Ry

     iteration #  6     ecut=    30.00 Ry     beta= 0.50
     Davidson diagonalization with overlap
     ethr =  8.01E-05,  avg # of iterations =  2.0

     total cpu time spent up to now is        5.8 secs

     total energy              =    -501.82637879 Ry
     estimated scf accuracy    <       0.13306483 Ry

     iteration #  7     ecut=    30.00 Ry     beta= 0.50
     Davidson diagonalization with overlap
     ethr =  5.20E-05,  avg # of iterations =  1.0

     total cpu time spent up to now is        5.9 secs

     total energy              =    -501.83688493 Ry
     estimated scf accuracy    <       0.00460838 Ry

     iteration #  8     ecut=    30.00 Ry     beta= 0.50
     Davidson diagonalization with overlap
     c_bands:  1 eigenvalues not converged
     ethr =  1.80E-06,  avg # of iterations = 20.0

     total cpu time spent up to now is        6.2 secs

     total energy              =    -501.83765154 Ry
     estimated scf accuracy    <       0.00731850 Ry

     iteration #  9     ecut=    30.00 Ry     beta= 0.50
     Davidson diagonalization with overlap
     ethr =  1.80E-06,  avg # of iterations =  3.0

     total cpu time spent up to now is        6.3 secs

     total energy              =    -501.83828322 Ry
     estimated scf accuracy    <       0.00449051 Ry

     iteration # 10     ecut=    30.00 Ry     beta= 0.50
     Davidson diagonalization with overlap
     ethr =  1.75E-06,  avg # of iterations =  2.0

     total cpu time spent up to now is        6.4 secs

     total energy              =    -501.83859060 Ry
     estimated scf accuracy    <       0.00045753 Ry

     iteration # 11     ecut=    30.00 Ry     beta= 0.50
     Davidson diagonalization with overlap
     ethr =  1.79E-07,  avg # of iterations =  3.0

     total cpu time spent up to now is        6.5 secs

     total energy              =    -501.83864366 Ry
     estimated scf accuracy    <       0.00014940 Ry

     iteration # 12     ecut=    30.00 Ry     beta= 0.50
     Davidson diagonalization with overlap
     ethr =  5.84E-08,  avg # of iterations =  4.0

     total cpu time spent up to now is        6.6 secs

     total energy              =    -501.83865246 Ry
     estimated scf accuracy    <       0.00036558 Ry

     iteration # 13     ecut=    30.00 Ry     beta= 0.50
     Davidson diagonalization with overlap
     ethr =  5.84E-08,  avg # of iterations =  2.0

     total cpu time spent up to now is        6.7 secs

     total energy              =    -501.83867711 Ry
     estimated scf accuracy    <       0.00002951 Ry

     iteration # 14     ecut=    30.00 Ry     beta= 0.50
     Davidson diagonalization with overlap
     ethr =  1.15E-08,  avg # of iterations =  4.0

     total cpu time spent up to now is        6.8 secs

     total energy              =    -501.83867932 Ry
     estimated scf accuracy    <       0.00001607 Ry

     iteration # 15     ecut=    30.00 Ry     beta= 0.50
     Davidson diagonalization with overlap
     ethr =  6.28E-09,  avg # of iterations =  2.0

     total cpu time spent up to now is        6.9 secs

     total energy              =    -501.83868006 Ry
     estimated scf accuracy    <       0.00000581 Ry

     iteration # 16     ecut=    30.00 Ry     beta= 0.50
     Davidson diagonalization with overlap
     ethr =  2.27E-09,  avg # of iterations =  3.0

     total cpu time spent up to now is        7.0 secs

     total energy              =    -501.83868041 Ry
     estimated scf accuracy    <       0.00001054 Ry

     iteration # 17     ecut=    30.00 Ry     beta= 0.50
     Davidson diagonalization with overlap
     ethr =  2.27E-09,  avg # of iterations =  2.0

     total cpu time spent up to now is        7.1 secs

     total energy              =    -501.83868110 Ry
     estimated scf accuracy    <       0.00000244 Ry

     iteration # 18     ecut=    30.00 Ry     beta= 0.50
     Davidson diagonalization with overlap
     ethr =  9.53E-10,  avg # of iterations =  2.0

     total cpu time spent up to now is        7.2 secs

     End of self-consistent calculation

          k = 0.0000 0.0000 0.0000 ( 11492 PWs)   bands (ev):

    -5.4808  -4.5462  -4.4936  -4.3260  -4.2715  -4.2466  -4.1075  -3.6629
    -3.5731  -3.3875  -3.3214  -3.2564  -3.2105  -3.0941  -3.0804  -3.0114
    -2.9436  -2.8572  -2.6085  -2.4025  -2.2717  -2.1525  -2.1198  -1.9469
    -1.8140  -1.6941  -1.6310  -1.1323  -0.9575  -0.9488  -0.8347  -0.7387
    -0.6262  -0.4342  -0.3776  -0.3415  -0.2046  -0.0920   0.0012   0.0252
     0.1624   0.1927   0.3008   0.3352   0.3885   0.4865   0.5387   0.6447
     0.7782   0.9026   0.9700   1.0409   1.0753   1.1889   1.3807   1.4594
     1.6873   1.7129   1.7877   1.9426   2.0394   2.0603   2.1140   2.3319
     2.4083   2.4474   2.4929   2.5915   2.6988   2.7209   2.7858   2.8241
     2.9043   3.0107   3.0674   3.1073   3.2081   3.3083   3.3667   3.4111
     3.6007   3.9691   4.0108   4.1374   4.2147   4.2526   4.3089   4.3378
     4.4457   4.4996   4.6118   4.6424   4.7094   4.7428   4.8262   4.8807
     4.9384   5.0203   5.0856   5.1013   5.1676   5.2663   5.3047   5.3713
     5.3822   5.4713   5.5030   5.5716   5.6780   5.7561   5.7751   5.8295
     5.8750   5.9441   6.0684   6.1110   6.1252   6.1509   6.2727   6.3339
     6.4053   6.4499   6.5756   6.6700   6.6705   6.7251   6.8263   6.8490
     6.9875   6.9962   7.0327   7.1177   7.1948   7.2899   7.3456   7.3657
     7.4749   7.5130   7.5869   7.6442   7.7923   7.8229   7.9019   7.9208
     7.9995   8.0339   8.1293   8.2363   8.2754   8.3446   8.4131   8.4515
     8.5565   8.6191

     the Fermi energy is     6.9069 ev

!    total energy              =    -501.83868110 Ry
     estimated scf accuracy    <       0.00000027 Ry
     smearing contrib. (-TS)   =      -0.13841899 Ry
     internal energy E=F+TS    =    -501.70026211 Ry

     The total energy is F=E-TS. E is the sum of the following terms:
     one-electron contribution =     179.24166829 Ry
     hartree contribution      =      26.39450687 Ry
     xc contribution           =    -151.06470163 Ry
     ewald contribution        =    -556.27173564 Ry

     convergence has been achieved in  18 iterations

     Forces acting on atoms (cartesian axes, Ry/au):

     atom    1 type  1   force =    -0.01174801    0.02615273   -0.01802598
     atom    2 type  1   force =    -0.00617520    0.02148366   -0.02101161
     atom    3 type  1   force =    -0.01433399   -0.00737933    0.02891661
     atom    4 type  1   force =     0.00082952    0.03107363   -0.00871568
     atom    5 type  1   force =    -0.01030942    0.00426877   -0.03301586
     atom    6 type  1   force =    -0.02131833    0.00467753   -0.02044575
     atom    7 type  1   force =     0.01178236    0.03793373   -0.00666814
     atom    8 type  1   force =     0.07551695    0.00004083   -0.00857408
     atom    9 type  1   force =    -0.00244079   -0.01252398   -0.00023285
     atom   10 type  1   force =     0.01688351    0.00369787    0.00724049
     atom   11 type  1   force =    -0.02751978   -0.00200478    0.01214795
     atom   12 type  1   force =    -0.02608123   -0.03874662   -0.00019686
     atom   13 type  1   force =     0.01139119    0.00467297    0.01631490
     atom   14 type  1   force =    -0.01968591   -0.01233635    0.04458602
     atom   15 type  1   force =     0.01406854   -0.02727356    0.00889171
     atom   16 type  1   force =     0.01695885    0.02668724   -0.01324136
     atom   17 type  1   force =     0.02350046   -0.01827113   -0.04430983
     atom   18 type  1   force =     0.00503823   -0.03142873    0.01491174
     atom   19 type  1   force =     0.01164685   -0.01154146    0.02031183
     atom   20 type  1   force =     0.01684611   -0.01903398    0.00794594
     atom   21 type  1   force =     0.00921722    0.00467532   -0.00752992
     atom   22 type  1   force =     0.01099145    0.01762652   -0.02382201
     atom   23 type  1   force =    -0.00438199    0.01186861    0.06913692
     atom   24 type  1   force =     0.00418654    0.01791012   -0.00484139
     atom   25 type  1   force =    -0.03622313   -0.03239972    0.00023342
     atom   26 type  1   force =    -0.00124647   -0.02122281    0.02555122
     atom   27 type  1   force =     0.08021016    0.02184498   -0.01423031
     atom   28 type  1   force =    -0.00956168   -0.04202675    0.02796416
     atom   29 type  1   force =    -0.03563326    0.03575419   -0.02000084
     atom   30 type  1   force =    -0.02470596    0.00867714    0.03109996
     atom   31 type  1   force =    -0.01354739    0.08406012   -0.00177205
     atom   32 type  1   force =    -0.04672818    0.00366330    0.01232608
     atom   33 type  1   force =     0.00239721    0.01673363    0.01904369
     atom   34 type  1   force =    -0.00648475    0.00015785    0.00233576
     atom   35 type  1   force =     0.02874294    0.03258229   -0.00935216
     atom   36 type  1   force =    -0.00518092    0.02041343   -0.00757668
     atom   37 type  1   force =     0.02975901   -0.02216694   -0.02229528
     atom   38 type  1   force =    -0.01948438   -0.02165847   -0.01105968
     atom   39 type  1   force =    -0.00957121   -0.00020057    0.02592723
     atom   40 type  1   force =    -0.02136432    0.01139700   -0.04843063
     atom   41 type  1   force =     0.00071152   -0.02372646   -0.00521061
     atom   42 type  1   force =     0.02563378   -0.04236232   -0.00523281
     atom   43 type  1   force =    -0.00467846    0.03737564   -0.00943449
     atom   44 type  1   force =     0.00163608   -0.01165076   -0.00556561
     atom   45 type  1   force =    -0.02066525   -0.00920348   -0.02375037
     atom   46 type  1   force =     0.00254322   -0.02310700    0.00148321
     atom   47 type  1   force =     0.04801214   -0.01652989    0.01288456
     atom   48 type  1   force =    -0.01194206   -0.01502073    0.00987456
     atom   49 type  1   force =    -0.03324793   -0.00828042    0.01913778
     atom   50 type  1   force =     0.02183884   -0.00934820   -0.00099373
     atom   51 type  1   force =     0.00147794   -0.01466295    0.03651449
     atom   52 type  1   force =    -0.02504126   -0.02813066   -0.00092419
     atom   53 type  1   force =    -0.01507504    0.00571569   -0.02121379
     atom   54 type  1   force =    -0.00614813   -0.01263098   -0.05330962
     atom   55 type  1   force =     0.01685467   -0.06189982   -0.04792259
     atom   56 type  1   force =     0.01965695    0.02801108    0.00729188
     atom   57 type  1   force =    -0.00223556    0.02676065   -0.00099337
     atom   58 type  1   force =     0.00116341    0.02645856    0.00112063
     atom   59 type  1   force =    -0.04967796    0.03203309    0.01223931
     atom   60 type  1   force =     0.01162306   -0.01062793   -0.00345424
     atom   61 type  1   force =     0.01603734   -0.00576967    0.07746490
     atom   62 type  1   force =     0.02760951    0.00804460   -0.00629555
     atom   63 type  1   force =    -0.02059381    0.00708903    0.02404601
     atom   64 type  1   force =    -0.00173378   -0.00637533   -0.04729302

     Total force =     0.336765     Total SCF correction =     0.001031


     Computing stress (Cartesian axis) and pressure

          total   stress  (Ry/bohr**3)                   (kbar)     P=      -30.57
  -0.00023112   0.00002282   0.00001283          -34.00        3.36        1.89
   0.00002282  -0.00020597  -0.00002401            3.36      -30.30       -3.53
   0.00001283  -0.00002401  -0.00018631            1.89       -3.53      -27.41

 
     init_run     :      1.08s CPU      4.94s WALL (       1 calls)
     electrons    :      1.97s CPU      2.14s WALL (       1 calls)
     forces       :      0.03s CPU      0.04s WALL (       1 calls)
     stress       :      0.15s CPU      0.16s WALL (       1 calls)

     Called by init_run:
     wfcinit      :      0.54s CPU      4.22s WALL (       1 calls)
                                        4.22s GPU  (       1 calls)
     potinit      :      0.05s CPU      0.15s WALL (       1 calls)
     hinit0       :      0.46s CPU      0.50s WALL (       1 calls)

     Called by electrons:
     c_bands      :      1.19s CPU      1.27s WALL (      19 calls)
     sum_band     :      0.37s CPU      0.42s WALL (      19 calls)
     v_of_rho     :      0.18s CPU      0.29s WALL (      19 calls)
     mix_rho      :      0.18s CPU      0.20s WALL (      19 calls)

     Called by c_bands:
     init_us_2    :      0.07s CPU      0.07s WALL (      39 calls)
     init_us_2:gp :      0.07s CPU      0.07s WALL (      39 calls)
     regterg      :      1.03s CPU      1.11s WALL (      19 calls)

     Called by *egterg:
     rdiaghg      :      0.45s CPU      1.21s WALL (      90 calls)
                                        1.19s GPU  (      90 calls)
     h_psi        :      0.95s CPU      3.91s WALL (      92 calls)
                                        3.91s GPU  (      92 calls)
     g_psi        :      0.00s CPU      0.00s WALL (      72 calls)
                                        0.00s GPU  (      72 calls)

     Called by h_psi:
     h_psi:calbec :      0.51s CPU      3.39s WALL (      92 calls)
                                        3.39s GPU  (      92 calls)
     vloc_psi     :      0.38s CPU      0.46s WALL (      92 calls)
                                        0.45s GPU  (      92 calls)
     add_vuspsi   :      0.04s CPU      0.05s WALL (      92 calls)
                                        0.05s GPU  (      92 calls)

     General routines
     calbec       :      0.52s CPU      3.40s WALL (      97 calls)
     fft          :      0.62s CPU      0.76s WALL (     159 calls)
                                        0.14s GPU  (     101 calls)
     ffts         :      0.04s CPU      0.05s WALL (      19 calls)
     fftw         :      0.46s CPU      0.61s WALL (    2019 calls)
                                        0.53s GPU  (    2019 calls)
 
     Parallel routines
 
     PWSCF        :      3.28s CPU      7.37s WALL

 
   This run was terminated on:  10:49:55  10May2023            

=------------------------------------------------------------------------------=
   JOB DONE.
=------------------------------------------------------------------------------=
