An instance of this daemon is already running
An instance of this daemon is already running

     Program PWSCF v.7.1 starts on 10May2023 at 10:49:19 

     This program is part of the open-source Quantum ESPRESSO suite
     for quantum simulation of materials; please cite
         "P. Giannozzi et al., J. Phys.:Condens. Matter 21 395502 (2009);
         "P. Giannozzi et al., J. Phys.:Condens. Matter 29 465901 (2017);
         "P. Giannozzi et al., J. Chem. Phys. 152 154105 (2020);
          URL http://www.quantum-espresso.org", 
     in publications or presentations arising from this work. More details at
     http://www.quantum-espresso.org/quote

     Parallel version (MPI & OpenMP), running on       4 processor cores
     Number of MPI processes:                 4
     Threads/MPI process:                     1

     MPI processes distributed on     1 nodes
     753551 MiB available memory on the printing compute node when the environment starts
 
     Reading input from pw-si-73.in
Warning: card &CELL ignored
Warning: card / ignored

     Current dimensions of program PWSCF are:
     Max number of different atomic species (ntypx) = 10
     Max number of k-points (npk) =  40000
     Max angular momentum in pseudopotentials (lmaxx) =  4

     IMPORTANT: XC functional enforced from input :
     Exchange-correlation= PBE
                           (   1   4   3   4   0   0   0)
     Any further DFT definition will be discarded
     Please, verify this is what you really want


     gamma-point specific algorithms are used
 
     K-points division:     npool     =       2
     R & G space division:  proc/nbgrp/npool/nimage =       2
     Subspace diagonalization in iterative solution of the eigenvalue problem:
     a serial algorithm will be used

     Message from routine divide_et_impera:
     suboptimal parallelization: some nodes have no k-points
 
     Parallelization info
     --------------------
     sticks:   dense  smooth     PW     G-vecs:    dense   smooth      PW
     Min        1908    1908    502                89172    89172   12102
     Max        1909    1909    503                89177    89177   12105
     Sum        3817    3817   1005               178349   178349   24207
 
     Using Slab Decomposition
 


     bravais-lattice index     =            0
     lattice parameter (alat)  =      20.0291  a.u.
     unit-cell volume          =    8035.0289 (a.u.)^3
     number of atoms/cell      =           64
     number of atomic types    =            1
     number of electrons       =       256.00
     number of Kohn-Sham states=          154
     kinetic-energy cutoff     =      30.0000  Ry
     charge density cutoff     =     120.0000  Ry
     scf convergence threshold =      1.0E-06
     mixing beta               =       0.5000
     number of iterations used =            8  plain     mixing
     Exchange-correlation= PBE
                           (   1   4   3   4   0   0   0)

     GPU acceleration is ACTIVE.
     GPU-aware MPI enabled

     Message from routine print_cuda_info:
     High GPU oversubscription detected. Are you sure this is what you want?

     celldm(1)=  20.029148  celldm(2)=   0.000000  celldm(3)=   0.000000
     celldm(4)=   0.000000  celldm(5)=   0.000000  celldm(6)=   0.000000

     crystal axes: (cart. coord. in units of alat)
               a(1) = (   1.000000   0.000000   0.000000 )  
               a(2) = (   0.000000   1.000000   0.000000 )  
               a(3) = (   0.000000   0.000000   1.000000 )  

     reciprocal axes: (cart. coord. in units 2 pi/alat)
               b(1) = (  1.000000  0.000000  0.000000 )  
               b(2) = (  0.000000  1.000000  0.000000 )  
               b(3) = (  0.000000  0.000000  1.000000 )  


     PseudoPot. # 1 for Si read from file:
     /home/ppiaggi/pseudos/Si_ONCV_PBE_sr.upf
     MD5 check sum: 8553c464762ac42b85b1eed164b4d029
     Pseudo is Norm-conserving, Zval =  4.0
     Generated using ONCVPSP code by D. R. Hamann
     Using radial grid of 1510 points,  4 beta functions with: 
                l(1) =   0
                l(2) =   0
                l(3) =   1
                l(4) =   1

     atomic species   valence    mass     pseudopotential
        Si             4.00    28.08500     Si( 1.00)

     No symmetry found



   Cartesian axes

     site n.     atom                  positions (alat units)
         1           Si  tau(   1) = (   0.9855150   0.4166840   0.5378000  )
         2           Si  tau(   2) = (   0.6947130   0.7875520   0.9180640  )
         3           Si  tau(   3) = (   0.2218800   0.7860080   0.9830850  )
         4           Si  tau(   4) = (   0.9248890   0.5850950   0.6709200  )
         5           Si  tau(   5) = (   0.4793240   0.5659890   0.2572760  )
         6           Si  tau(   6) = (   0.3461410   0.7752000   0.6429840  )
         7           Si  tau(   7) = (   0.2273110   0.5286450   0.8212490  )
         8           Si  tau(   8) = (   0.6137370   0.0356553   0.8679580  )
         9           Si  tau(   9) = (   0.8031290   0.9416600   0.3488840  )
        10           Si  tau(  10) = (   0.3864010   0.2668670   0.4510850  )
        11           Si  tau(  11) = (   0.7102580   0.2408580   0.7809330  )
        12           Si  tau(  12) = (   0.0929053   0.0557893   0.5589630  )
        13           Si  tau(  13) = (   0.1066930   0.0167394   0.7764600  )
        14           Si  tau(  14) = (   0.6121240   0.7931780   0.3411530  )
        15           Si  tau(  15) = (   0.9114190   0.0395072   0.8678160  )
        16           Si  tau(  16) = (   0.5244260   0.3198710   0.8876440  )
        17           Si  tau(  17) = (   0.9123660   0.8018860   0.9361730  )
        18           Si  tau(  18) = (   0.6857870   0.5698870   0.7802470  )
        19           Si  tau(  19) = (   0.1721810   0.2101400   0.2428710  )
        20           Si  tau(  20) = (   0.6495220   0.4614300   0.4403330  )
        21           Si  tau(  21) = (   0.8916350   0.1994030   0.6293800  )
        22           Si  tau(  22) = (   0.5025700   0.3343790   0.2474740  )
        23           Si  tau(  23) = (   0.9112490   0.6407010   0.3396600  )
        24           Si  tau(  24) = (   0.5099640   0.8938690   0.0130964  )
        25           Si  tau(  25) = (   0.9835030   0.1374520   0.3627540  )
        26           Si  tau(  26) = (   0.1684150   0.2640410   0.6032740  )
        27           Si  tau(  27) = (   0.4054430   0.0949112   0.7840640  )
        28           Si  tau(  28) = (   0.3141410   0.5018670   0.4583570  )
        29           Si  tau(  29) = (   0.3457130   0.9956980   0.5820610  )
        30           Si  tau(  30) = (   0.2802850   0.0226596   0.9421270  )
        31           Si  tau(  31) = (   0.7996110   0.2701980   0.0692853  )
        32           Si  tau(  32) = (   0.7147030   0.1756110   0.3587910  )
        33           Si  tau(  33) = (   0.9758260   0.1181000   0.0939643  )
        34           Si  tau(  34) = (   0.5617770   0.9875320   0.5146660  )
        35           Si  tau(  35) = (   0.8427670   0.5385480   0.1188140  )
        36           Si  tau(  36) = (   0.1259620   0.4076290   0.3492290  )
        37           Si  tau(  37) = (   0.2526620   0.6966660   0.2294660  )
        38           Si  tau(  38) = (   0.1969980   0.3864210   0.0028823  )
        39           Si  tau(  39) = (   0.3512750   0.3640810   0.7288360  )
        40           Si  tau(  40) = (   0.6751980   0.6963680   0.1209820  )
        41           Si  tau(  41) = (   0.8471300   0.3725470   0.3310250  )
        42           Si  tau(  42) = (   0.0776430   0.5417070   0.1730430  )
        43           Si  tau(  43) = (   0.0287653   0.7868300   0.4770530  )
        44           Si  tau(  44) = (   0.5964040   0.2699500   0.5710430  )
        45           Si  tau(  45) = (   0.8257140   0.4057710   0.8793250  )
        46           Si  tau(  46) = (   0.3899280   0.7568890   0.4055950  )
        47           Si  tau(  47) = (   0.7994720   0.9889180   0.5665940  )
        48           Si  tau(  48) = (   0.1968440   0.9197520   0.3915690  )
        49           Si  tau(  49) = (   0.1220800   0.9355860   0.1601090  )
        50           Si  tau(  50) = (   0.5730720   0.5049030   0.0163562  )
        51           Si  tau(  51) = (   0.7213400   0.6759730   0.5081930  )
        52           Si  tau(  52) = (   0.5698210   0.7997540   0.6932420  )
        53           Si  tau(  53) = (   0.4840770   0.5415620   0.6309840  )
        54           Si  tau(  54) = (   0.5655050   0.9877080   0.2209750  )
        55           Si  tau(  55) = (   0.8520880   0.8044970   0.6515680  )
        56           Si  tau(  56) = (   0.1277270   0.7942460   0.7738380  )
        57           Si  tau(  57) = (   0.9881160   0.5875040   0.9012330  )
        58           Si  tau(  58) = (   0.1576810   0.6200080   0.5923370  )
        59           Si  tau(  59) = (   0.5908980   0.1830570   0.0770529  )
        60           Si  tau(  60) = (   0.0254475   0.2722360   0.8780390  )
        61           Si  tau(  61) = (   0.3577830   0.0824096   0.3229210  )
        62           Si  tau(  62) = (   0.3347850   0.2045350   0.0752521  )
        63           Si  tau(  63) = (   0.9097310   0.8259980   0.1759980  )
        64           Si  tau(  64) = (   0.4197590   0.6718020   0.8834870  )

     number of k points=     1  Fermi-Dirac smearing, width (Ry)=  0.0100
                       cart. coord. in units 2pi/alat
        k(    1) = (   0.0000000   0.0000000   0.0000000), wk =   2.0000000

     Dense  grid:    89175 G-vectors     FFT dimensions: (  72,  72,  72)

     Estimated max dynamical RAM per process >     143.42 MB

     Estimated total dynamical RAM >     551.89 MB

     Initial potential from superposition of free atoms

     starting charge     255.9608, renormalised to     256.0000
     Starting wfcs are  256 randomized atomic wfcs

     total cpu time spent up to now is        5.0 secs

     Self-consistent Calculation

     iteration #  1     ecut=    30.00 Ry     beta= 0.50
     Davidson diagonalization with overlap
     ethr =  1.00E-02,  avg # of iterations =  3.0

     Threshold (ethr) on eigenvalues was too large:
     Diagonalizing with lowered threshold

     Davidson diagonalization with overlap
     ethr =  3.54E-04,  avg # of iterations =  5.0

     total cpu time spent up to now is        5.3 secs

     total energy              =    -501.15642975 Ry
     estimated scf accuracy    <       1.09789933 Ry

     iteration #  2     ecut=    30.00 Ry     beta= 0.50
     Davidson diagonalization with overlap
     ethr =  4.29E-04,  avg # of iterations =  5.0

     total cpu time spent up to now is        5.4 secs

     total energy              =    -500.74168750 Ry
     estimated scf accuracy    <       5.03454175 Ry

     iteration #  3     ecut=    30.00 Ry     beta= 0.50
     Davidson diagonalization with overlap
     ethr =  4.29E-04,  avg # of iterations =  4.0

     total cpu time spent up to now is        5.5 secs

     total energy              =    -501.21850983 Ry
     estimated scf accuracy    <       1.82985626 Ry

     iteration #  4     ecut=    30.00 Ry     beta= 0.50
     Davidson diagonalization with overlap
     ethr =  4.29E-04,  avg # of iterations =  2.0

     total cpu time spent up to now is        5.6 secs

     total energy              =    -501.34179846 Ry
     estimated scf accuracy    <       0.49998602 Ry

     iteration #  5     ecut=    30.00 Ry     beta= 0.50
     Davidson diagonalization with overlap
     ethr =  1.95E-04,  avg # of iterations =  2.0

     total cpu time spent up to now is        5.7 secs

     total energy              =    -501.37126687 Ry
     estimated scf accuracy    <       0.29430075 Ry

     iteration #  6     ecut=    30.00 Ry     beta= 0.50
     Davidson diagonalization with overlap
     ethr =  1.15E-04,  avg # of iterations =  2.0

     total cpu time spent up to now is        5.8 secs

     total energy              =    -501.39859570 Ry
     estimated scf accuracy    <       0.12535231 Ry

     iteration #  7     ecut=    30.00 Ry     beta= 0.50
     Davidson diagonalization with overlap
     ethr =  4.90E-05,  avg # of iterations =  1.0

     total cpu time spent up to now is        5.9 secs

     total energy              =    -501.40965725 Ry
     estimated scf accuracy    <       0.01125160 Ry

     iteration #  8     ecut=    30.00 Ry     beta= 0.50
     Davidson diagonalization with overlap
     ethr =  4.40E-06,  avg # of iterations = 19.0

     total cpu time spent up to now is        6.1 secs

     total energy              =    -501.41050832 Ry
     estimated scf accuracy    <       0.02654110 Ry

     iteration #  9     ecut=    30.00 Ry     beta= 0.50
     Davidson diagonalization with overlap
     ethr =  4.40E-06,  avg # of iterations =  3.0

     total cpu time spent up to now is        6.2 secs

     total energy              =    -501.41258425 Ry
     estimated scf accuracy    <       0.00246904 Ry

     iteration # 10     ecut=    30.00 Ry     beta= 0.50
     Davidson diagonalization with overlap
     ethr =  9.64E-07,  avg # of iterations =  3.0

     total cpu time spent up to now is        6.3 secs

     total energy              =    -501.41278951 Ry
     estimated scf accuracy    <       0.00136426 Ry

     iteration # 11     ecut=    30.00 Ry     beta= 0.50
     Davidson diagonalization with overlap
     ethr =  5.33E-07,  avg # of iterations =  2.0

     total cpu time spent up to now is        6.4 secs

     total energy              =    -501.41286523 Ry
     estimated scf accuracy    <       0.00095920 Ry

     iteration # 12     ecut=    30.00 Ry     beta= 0.50
     Davidson diagonalization with overlap
     ethr =  3.75E-07,  avg # of iterations =  2.0

     total cpu time spent up to now is        6.5 secs

     total energy              =    -501.41294531 Ry
     estimated scf accuracy    <       0.00022693 Ry

     iteration # 13     ecut=    30.00 Ry     beta= 0.50
     Davidson diagonalization with overlap
     ethr =  8.86E-08,  avg # of iterations =  2.0

     total cpu time spent up to now is        6.6 secs

     total energy              =    -501.41296458 Ry
     estimated scf accuracy    <       0.00014546 Ry

     iteration # 14     ecut=    30.00 Ry     beta= 0.50
     Davidson diagonalization with overlap
     ethr =  5.68E-08,  avg # of iterations =  2.0

     total cpu time spent up to now is        6.7 secs

     total energy              =    -501.41297340 Ry
     estimated scf accuracy    <       0.00004511 Ry

     iteration # 15     ecut=    30.00 Ry     beta= 0.50
     Davidson diagonalization with overlap
     ethr =  1.76E-08,  avg # of iterations =  2.0

     total cpu time spent up to now is        6.8 secs

     total energy              =    -501.41297638 Ry
     estimated scf accuracy    <       0.00001722 Ry

     iteration # 16     ecut=    30.00 Ry     beta= 0.50
     Davidson diagonalization with overlap
     ethr =  6.73E-09,  avg # of iterations =  3.0

     total cpu time spent up to now is        6.9 secs

     total energy              =    -501.41297765 Ry
     estimated scf accuracy    <       0.00002672 Ry

     iteration # 17     ecut=    30.00 Ry     beta= 0.50
     Davidson diagonalization with overlap
     ethr =  6.73E-09,  avg # of iterations =  2.0

     total cpu time spent up to now is        7.0 secs

     total energy              =    -501.41297910 Ry
     estimated scf accuracy    <       0.00000602 Ry

     iteration # 18     ecut=    30.00 Ry     beta= 0.50
     Davidson diagonalization with overlap
     ethr =  2.35E-09,  avg # of iterations =  2.0

     total cpu time spent up to now is        7.1 secs

     End of self-consistent calculation

          k = 0.0000 0.0000 0.0000 ( 11072 PWs)   bands (ev):

    -5.2451  -4.2839  -4.1632  -4.0755  -4.0058  -3.9247  -3.7448  -3.2353
    -3.1840  -3.0527  -2.9555  -2.8438  -2.7563  -2.7262  -2.6911  -2.6231
    -2.5101  -2.2929  -2.2593  -1.9420  -1.8005  -1.7395  -1.6766  -1.5220
    -1.4510  -1.3334  -1.0624  -0.7388  -0.6162  -0.5097  -0.2086  -0.1480
    -0.1068   0.0550   0.1311   0.2222   0.3416   0.3647   0.4315   0.4778
     0.5258   0.5999   0.7367   0.7742   0.8468   1.0201   1.0545   1.0785
     1.2160   1.2802   1.3202   1.4358   1.4611   1.5949   1.6578   1.7808
     1.8406   1.9107   2.0722   2.1439   2.2767   2.4492   2.5144   2.5268
     2.6525   2.7148   2.8284   2.8450   2.9013   2.9888   3.0379   3.1723
     3.2164   3.2997   3.3596   3.4434   3.6117   3.7254   3.7619   3.8402
     3.9549   4.2779   4.4577   4.5383   4.6284   4.7252   4.7823   4.8338
     4.8824   4.9590   5.0633   5.0794   5.2467   5.2823   5.3778   5.4362
     5.4522   5.5788   5.6069   5.6853   5.7265   5.7767   5.8740   5.9203
     6.0096   6.0546   6.0911   6.2254   6.2289   6.2736   6.3018   6.3291
     6.3716   6.4625   6.5033   6.5893   6.6190   6.7071   6.7330   6.8319
     6.8445   6.9171   6.9801   7.0335   7.0795   7.1416   7.1857   7.2822
     7.3645   7.4030   7.4354   7.5396   7.5943   7.6669   7.6958   7.7532
     7.7832   7.8510   7.8825   7.9188   8.0230   8.0584   8.1245   8.1929
     8.3080   8.3220   8.3895   8.4058   8.4760   8.5137   8.6682   8.7069
     8.7396   8.8938

     the Fermi energy is     7.3060 ev

!    total energy              =    -501.41297931 Ry
     estimated scf accuracy    <       0.00000072 Ry
     smearing contrib. (-TS)   =      -0.14851067 Ry
     internal energy E=F+TS    =    -501.26446863 Ry

     The total energy is F=E-TS. E is the sum of the following terms:
     one-electron contribution =     196.26496148 Ry
     hartree contribution      =      21.61922457 Ry
     xc contribution           =    -150.68043286 Ry
     ewald contribution        =    -568.46822183 Ry

     convergence has been achieved in  18 iterations

     Forces acting on atoms (cartesian axes, Ry/au):

     atom    1 type  1   force =     0.02209167   -0.04053907   -0.02486686
     atom    2 type  1   force =    -0.00801927   -0.01925439   -0.05308121
     atom    3 type  1   force =     0.02678458    0.02806440    0.01454976
     atom    4 type  1   force =    -0.01037551    0.01079120    0.03532350
     atom    5 type  1   force =     0.00223437   -0.00899918    0.00891926
     atom    6 type  1   force =     0.00403875   -0.00211807    0.00646523
     atom    7 type  1   force =     0.00539075    0.03009201    0.00264187
     atom    8 type  1   force =     0.00054524    0.02372586   -0.01715735
     atom    9 type  1   force =     0.00446164    0.03969422   -0.03146102
     atom   10 type  1   force =     0.00496534    0.01789987   -0.00390653
     atom   11 type  1   force =    -0.01018725   -0.02599630   -0.03572261
     atom   12 type  1   force =     0.01404737    0.02226697   -0.01654612
     atom   13 type  1   force =     0.02777331   -0.01443031    0.00071059
     atom   14 type  1   force =    -0.00845339    0.01528350    0.00402644
     atom   15 type  1   force =    -0.00748274    0.00069731    0.02759934
     atom   16 type  1   force =    -0.04537025   -0.00509461    0.00524824
     atom   17 type  1   force =     0.00728860    0.00264250    0.01493284
     atom   18 type  1   force =    -0.00280763    0.01481382    0.01207951
     atom   19 type  1   force =    -0.01660010   -0.01268535    0.01705991
     atom   20 type  1   force =    -0.02360543    0.00737743    0.01012801
     atom   21 type  1   force =    -0.00540935   -0.01867794    0.00852667
     atom   22 type  1   force =    -0.01371756    0.00765064    0.00671181
     atom   23 type  1   force =     0.00648668    0.02149740   -0.01486024
     atom   24 type  1   force =    -0.03314126    0.01246016    0.00957635
     atom   25 type  1   force =    -0.00755115   -0.00595527   -0.00992188
     atom   26 type  1   force =    -0.00127009    0.02313520   -0.00467788
     atom   27 type  1   force =     0.04082027    0.02182162   -0.03905306
     atom   28 type  1   force =    -0.00095568    0.00907135   -0.00261415
     atom   29 type  1   force =    -0.00100769   -0.00713422    0.02154708
     atom   30 type  1   force =    -0.02103611   -0.02988875    0.04789022
     atom   31 type  1   force =     0.01963342    0.03783165    0.01682409
     atom   32 type  1   force =    -0.00872799   -0.02196554    0.01392431
     atom   33 type  1   force =     0.00960832    0.00721603   -0.01539339
     atom   34 type  1   force =     0.02322347   -0.02264377   -0.00884475
     atom   35 type  1   force =     0.01097930   -0.03226192    0.00371411
     atom   36 type  1   force =    -0.00393307   -0.00055864    0.01169478
     atom   37 type  1   force =    -0.00861632   -0.00788470   -0.03515918
     atom   38 type  1   force =    -0.02540111   -0.01222188    0.00111975
     atom   39 type  1   force =     0.02061482   -0.01358715    0.00319504
     atom   40 type  1   force =     0.00503123   -0.01861926    0.03320144
     atom   41 type  1   force =     0.00221421   -0.01342804   -0.01230600
     atom   42 type  1   force =     0.01198545   -0.00459150   -0.01038584
     atom   43 type  1   force =    -0.00462608   -0.02560653    0.01817672
     atom   44 type  1   force =    -0.00677876    0.01355551   -0.02566796
     atom   45 type  1   force =     0.01903466   -0.00012658    0.02057130
     atom   46 type  1   force =    -0.00787327   -0.01363996    0.00709182
     atom   47 type  1   force =    -0.03375341    0.07944071   -0.01036957
     atom   48 type  1   force =     0.00999459    0.00933981   -0.01285085
     atom   49 type  1   force =    -0.02412535   -0.02545380    0.00065645
     atom   50 type  1   force =    -0.00217366    0.01869463   -0.01683479
     atom   51 type  1   force =     0.00536115   -0.01930056   -0.01025132
     atom   52 type  1   force =     0.02090929    0.00401161    0.00508215
     atom   53 type  1   force =     0.01448441   -0.01477167   -0.00216016
     atom   54 type  1   force =    -0.01656309    0.03753311    0.01040266
     atom   55 type  1   force =     0.03417553   -0.04610817    0.00682243
     atom   56 type  1   force =    -0.00357886   -0.01986700    0.00084250
     atom   57 type  1   force =     0.01237305    0.00928962   -0.00918933
     atom   58 type  1   force =    -0.00178041    0.00324344    0.01845491
     atom   59 type  1   force =    -0.02575821   -0.01216100    0.00428655
     atom   60 type  1   force =     0.00135058   -0.00430905    0.00836663
     atom   61 type  1   force =    -0.00605780   -0.00798598   -0.01868852
     atom   62 type  1   force =     0.00408882    0.01132819    0.00125102
     atom   63 type  1   force =     0.02326401   -0.00452682    0.00607237
     atom   64 type  1   force =    -0.01851705   -0.00807681   -0.00371708

     Total force =     0.261680     Total SCF correction =     0.001595


     Computing stress (Cartesian axis) and pressure

          total   stress  (Ry/bohr**3)                   (kbar)     P=      -39.83
  -0.00024053  -0.00001083  -0.00002449          -35.38       -1.59       -3.60
  -0.00001083  -0.00021695  -0.00002069           -1.59      -31.91       -3.04
  -0.00002449  -0.00002069  -0.00035482           -3.60       -3.04      -52.20

 
     init_run     :      1.11s CPU      4.93s WALL (       1 calls)
     electrons    :      1.91s CPU      2.07s WALL (       1 calls)
     forces       :      0.03s CPU      0.04s WALL (       1 calls)
     stress       :      0.15s CPU      0.15s WALL (       1 calls)

     Called by init_run:
     wfcinit      :      0.56s CPU      4.21s WALL (       1 calls)
                                        4.21s GPU  (       1 calls)
     potinit      :      0.06s CPU      0.15s WALL (       1 calls)
     hinit0       :      0.47s CPU      0.50s WALL (       1 calls)

     Called by electrons:
     c_bands      :      1.14s CPU      1.20s WALL (      19 calls)
     sum_band     :      0.39s CPU      0.43s WALL (      19 calls)
     v_of_rho     :      0.19s CPU      0.29s WALL (      19 calls)
     mix_rho      :      0.17s CPU      0.19s WALL (      19 calls)

     Called by c_bands:
     init_us_2    :      0.07s CPU      0.07s WALL (      39 calls)
     init_us_2:gp :      0.07s CPU      0.07s WALL (      39 calls)
     regterg      :      0.98s CPU      1.03s WALL (      19 calls)

     Called by *egterg:
     rdiaghg      :      0.41s CPU      1.15s WALL (      84 calls)
                                        1.14s GPU  (      84 calls)
     h_psi        :      0.96s CPU      3.90s WALL (      86 calls)
                                        3.90s GPU  (      86 calls)
     g_psi        :      0.00s CPU      0.00s WALL (      66 calls)
                                        0.00s GPU  (      66 calls)

     Called by h_psi:
     h_psi:calbec :      0.52s CPU      3.39s WALL (      86 calls)
                                        3.38s GPU  (      86 calls)
     vloc_psi     :      0.38s CPU      0.45s WALL (      86 calls)
                                        0.45s GPU  (      86 calls)
     add_vuspsi   :      0.04s CPU      0.05s WALL (      86 calls)
                                        0.05s GPU  (      86 calls)

     General routines
     calbec       :      0.53s CPU      3.39s WALL (      91 calls)
     fft          :      0.63s CPU      0.76s WALL (     159 calls)
                                        0.14s GPU  (     101 calls)
     ffts         :      0.04s CPU      0.05s WALL (      19 calls)
     fftw         :      0.47s CPU      0.62s WALL (    2001 calls)
                                        0.53s GPU  (    2001 calls)
 
     Parallel routines
 
     PWSCF        :      3.26s CPU      7.28s WALL

 
   This run was terminated on:  10:49:26  10May2023            

=------------------------------------------------------------------------------=
   JOB DONE.
=------------------------------------------------------------------------------=
