An instance of this daemon is already running
An instance of this daemon is already running

     Program PWSCF v.7.1 starts on 10May2023 at 10:38:58 

     This program is part of the open-source Quantum ESPRESSO suite
     for quantum simulation of materials; please cite
         "P. Giannozzi et al., J. Phys.:Condens. Matter 21 395502 (2009);
         "P. Giannozzi et al., J. Phys.:Condens. Matter 29 465901 (2017);
         "P. Giannozzi et al., J. Chem. Phys. 152 154105 (2020);
          URL http://www.quantum-espresso.org", 
     in publications or presentations arising from this work. More details at
     http://www.quantum-espresso.org/quote

     Parallel version (MPI & OpenMP), running on       4 processor cores
     Number of MPI processes:                 4
     Threads/MPI process:                     1

     MPI processes distributed on     1 nodes
     753592 MiB available memory on the printing compute node when the environment starts
 
     Reading input from pw-si-9.in
Warning: card &CELL ignored
Warning: card / ignored

     Current dimensions of program PWSCF are:
     Max number of different atomic species (ntypx) = 10
     Max number of k-points (npk) =  40000
     Max angular momentum in pseudopotentials (lmaxx) =  4

     IMPORTANT: XC functional enforced from input :
     Exchange-correlation= PBE
                           (   1   4   3   4   0   0   0)
     Any further DFT definition will be discarded
     Please, verify this is what you really want


     gamma-point specific algorithms are used
 
     K-points division:     npool     =       2
     R & G space division:  proc/nbgrp/npool/nimage =       2
     Subspace diagonalization in iterative solution of the eigenvalue problem:
     a serial algorithm will be used

     Message from routine divide_et_impera:
     suboptimal parallelization: some nodes have no k-points
 
     Parallelization info
     --------------------
     sticks:   dense  smooth     PW     G-vecs:    dense   smooth      PW
     Min        1900    1900    501                88285    88285   11935
     Max        1901    1901    504                88288    88288   11936
     Sum        3801    3801   1005               176573   176573   23871
 
     Using Slab Decomposition
 


     bravais-lattice index     =            0
     lattice parameter (alat)  =      19.9543  a.u.
     unit-cell volume          =    7945.3374 (a.u.)^3
     number of atoms/cell      =           64
     number of atomic types    =            1
     number of electrons       =       256.00
     number of Kohn-Sham states=          154
     kinetic-energy cutoff     =      30.0000  Ry
     charge density cutoff     =     120.0000  Ry
     scf convergence threshold =      1.0E-06
     mixing beta               =       0.5000
     number of iterations used =            8  plain     mixing
     Exchange-correlation= PBE
                           (   1   4   3   4   0   0   0)

     GPU acceleration is ACTIVE.
     GPU-aware MPI enabled

     Message from routine print_cuda_info:
     High GPU oversubscription detected. Are you sure this is what you want?

     celldm(1)=  19.954344  celldm(2)=   0.000000  celldm(3)=   0.000000
     celldm(4)=   0.000000  celldm(5)=   0.000000  celldm(6)=   0.000000

     crystal axes: (cart. coord. in units of alat)
               a(1) = (   1.000000   0.000000   0.000000 )  
               a(2) = (   0.000000   1.000000   0.000000 )  
               a(3) = (   0.000000   0.000000   1.000000 )  

     reciprocal axes: (cart. coord. in units 2 pi/alat)
               b(1) = (  1.000000  0.000000  0.000000 )  
               b(2) = (  0.000000  1.000000  0.000000 )  
               b(3) = (  0.000000  0.000000  1.000000 )  


     PseudoPot. # 1 for Si read from file:
     /home/ppiaggi/pseudos/Si_ONCV_PBE_sr.upf
     MD5 check sum: 8553c464762ac42b85b1eed164b4d029
     Pseudo is Norm-conserving, Zval =  4.0
     Generated using ONCVPSP code by D. R. Hamann
     Using radial grid of 1510 points,  4 beta functions with: 
                l(1) =   0
                l(2) =   0
                l(3) =   1
                l(4) =   1

     atomic species   valence    mass     pseudopotential
        Si             4.00    28.08500     Si( 1.00)

     No symmetry found



   Cartesian axes

     site n.     atom                  positions (alat units)
         1           Si  tau(   1) = (   0.6544410   0.7999150   0.6483220  )
         2           Si  tau(   2) = (   0.3588250   0.9351830   0.8984460  )
         3           Si  tau(   3) = (   0.5702890   0.6353220   0.4804300  )
         4           Si  tau(   4) = (   0.9830880   0.5135960   0.3586020  )
         5           Si  tau(   5) = (   0.7549270   0.9225260   0.3209920  )
         6           Si  tau(   6) = (   0.3852980   0.0373018   0.1060850  )
         7           Si  tau(   7) = (   0.5678170   0.3189390   0.2737410  )
         8           Si  tau(   8) = (   0.8050710   0.6581540   0.3779550  )
         9           Si  tau(   9) = (   0.0019296   0.8951520   0.1731920  )
        10           Si  tau(  10) = (   0.4656870   0.4612810   0.0198383  )
        11           Si  tau(  11) = (   0.4483640   0.6538190   0.7532030  )
        12           Si  tau(  12) = (   0.4376120   0.7172730   0.9824720  )
        13           Si  tau(  13) = (   0.3862150   0.7889810   0.5680760  )
        14           Si  tau(  14) = (   0.3745820   0.5546490   0.4221080  )
        15           Si  tau(  15) = (   0.1539690   0.8621810   0.4448420  )
        16           Si  tau(  16) = (   0.7061310   0.4368230   0.0302693  )
        17           Si  tau(  17) = (   0.4874420   0.9207910   0.2384110  )
        18           Si  tau(  18) = (   0.8891910   0.5597350   0.9614530  )
        19           Si  tau(  19) = (   0.9792160   0.7621960   0.5894520  )
        20           Si  tau(  20) = (   0.4231360   0.7075830   0.2251330  )
        21           Si  tau(  21) = (   0.9535360   0.2367790   0.0125392  )
        22           Si  tau(  22) = (   0.8672480   0.1727350   0.5232390  )
        23           Si  tau(  23) = (   0.8665760   0.0602015   0.7462420  )
        24           Si  tau(  24) = (   0.8483540   0.5682690   0.6293390  )
        25           Si  tau(  25) = (   0.3416910   0.3728190   0.2280050  )
        26           Si  tau(  26) = (   0.0817577   0.4429610   0.9435550  )
        27           Si  tau(  27) = (   0.5342540   0.1928240   0.0392946  )
        28           Si  tau(  28) = (   0.2118550   0.6107430   0.7380760  )
        29           Si  tau(  29) = (   0.6313430   0.5825500   0.2184580  )
        30           Si  tau(  30) = (   0.1601420   0.5876140   0.5075290  )
        31           Si  tau(  31) = (   0.0540842   0.2590780   0.2566450  )
        32           Si  tau(  32) = (   0.2170160   0.2157140   0.0583969  )
        33           Si  tau(  33) = (   0.0466843   0.3255920   0.5393150  )
        34           Si  tau(  34) = (   0.6030610   0.5002700   0.6971890  )
        35           Si  tau(  35) = (   0.6901830   0.1326240   0.2316550  )
        36           Si  tau(  36) = (   0.8355620   0.3414430   0.2102350  )
        37           Si  tau(  37) = (   0.1606310   0.5012290   0.2114810  )
        38           Si  tau(  38) = (   0.2147250   0.6428810   0.0024395  )
        39           Si  tau(  39) = (   0.2670030   0.1159850   0.3227870  )
        40           Si  tau(  40) = (   0.8626180   0.2792240   0.7822760  )
        41           Si  tau(  41) = (   0.8912270   0.7118380   0.1474690  )
        42           Si  tau(  42) = (   0.2905460   0.3262720   0.4846710  )
        43           Si  tau(  43) = (   0.6670310   0.7815700   0.0682924  )
        44           Si  tau(  44) = (   0.1069880   0.0718676   0.9026290  )
        45           Si  tau(  45) = (   0.3958310   0.9783750   0.4299180  )
        46           Si  tau(  46) = (   0.7327980   0.6949830   0.8531450  )
        47           Si  tau(  47) = (   0.0535518   0.0610527   0.4023620  )
        48           Si  tau(  48) = (   0.5490420   0.3454070   0.5418100  )
        49           Si  tau(  49) = (   0.1696350   0.8586620   0.7139360  )
        50           Si  tau(  50) = (   0.8369420   0.0259413   0.0157445  )
        51           Si  tau(  51) = (   0.6059080   0.1202790   0.4686070  )
        52           Si  tau(  52) = (   0.6090480   0.9746470   0.9275470  )
        53           Si  tau(  53) = (   0.1469130   0.1067500   0.6599660  )
        54           Si  tau(  54) = (   0.3397740   0.2586660   0.7051800  )
        55           Si  tau(  55) = (   0.2924850   0.3363650   0.9218770  )
        56           Si  tau(  56) = (   0.3979610   0.0283482   0.6890030  )
        57           Si  tau(  57) = (   0.1889010   0.7199790   0.2603730  )
        58           Si  tau(  58) = (   0.6208170   0.0784013   0.7027670  )
        59           Si  tau(  59) = (   0.1019740   0.8402150   0.9760360  )
        60           Si  tau(  60) = (   0.8022860   0.9086550   0.5410390  )
        61           Si  tau(  61) = (   0.6301930   0.2766910   0.8256330  )
        62           Si  tau(  62) = (   0.0204343   0.4326420   0.7166540  )
        63           Si  tau(  63) = (   0.7773980   0.3931450   0.4649500  )
        64           Si  tau(  64) = (   0.9229880   0.8452280   0.8265680  )

     number of k points=     1  Fermi-Dirac smearing, width (Ry)=  0.0100
                       cart. coord. in units 2pi/alat
        k(    1) = (   0.0000000   0.0000000   0.0000000), wk =   2.0000000

     Dense  grid:    88287 G-vectors     FFT dimensions: (  72,  72,  72)

     Estimated max dynamical RAM per process >     142.00 MB

     Estimated total dynamical RAM >     546.44 MB

     Initial potential from superposition of free atoms

     starting charge     255.9608, renormalised to     256.0000
     Starting wfcs are  256 randomized atomic wfcs

     total cpu time spent up to now is        5.0 secs

     Self-consistent Calculation

     iteration #  1     ecut=    30.00 Ry     beta= 0.50
     Davidson diagonalization with overlap
     ethr =  1.00E-02,  avg # of iterations =  3.0

     Threshold (ethr) on eigenvalues was too large:
     Diagonalizing with lowered threshold

     Davidson diagonalization with overlap
     ethr =  3.38E-04,  avg # of iterations =  5.0

     total cpu time spent up to now is        5.3 secs

     total energy              =    -501.13120164 Ry
     estimated scf accuracy    <       1.04007078 Ry

     iteration #  2     ecut=    30.00 Ry     beta= 0.50
     Davidson diagonalization with overlap
     ethr =  4.06E-04,  avg # of iterations =  3.0

     total cpu time spent up to now is        5.4 secs

     total energy              =    -500.83204251 Ry
     estimated scf accuracy    <       2.91832207 Ry

     iteration #  3     ecut=    30.00 Ry     beta= 0.50
     Davidson diagonalization with overlap
     ethr =  4.06E-04,  avg # of iterations =  4.0

     total cpu time spent up to now is        5.6 secs

     total energy              =    -501.08855261 Ry
     estimated scf accuracy    <       2.64444259 Ry

     iteration #  4     ecut=    30.00 Ry     beta= 0.50
     Davidson diagonalization with overlap
     ethr =  4.06E-04,  avg # of iterations =  2.0

     total cpu time spent up to now is        5.7 secs

     total energy              =    -501.26367098 Ry
     estimated scf accuracy    <       0.48801067 Ry

     iteration #  5     ecut=    30.00 Ry     beta= 0.50
     Davidson diagonalization with overlap
     ethr =  1.91E-04,  avg # of iterations =  2.0

     total cpu time spent up to now is        5.7 secs

     total energy              =    -501.30140224 Ry
     estimated scf accuracy    <       0.12006197 Ry

     iteration #  6     ecut=    30.00 Ry     beta= 0.50
     Davidson diagonalization with overlap
     ethr =  4.69E-05,  avg # of iterations =  3.0

     total cpu time spent up to now is        5.8 secs

     total energy              =    -501.31028695 Ry
     estimated scf accuracy    <       0.23867156 Ry

     iteration #  7     ecut=    30.00 Ry     beta= 0.50
     Davidson diagonalization with overlap
     ethr =  4.69E-05,  avg # of iterations =  2.0

     total cpu time spent up to now is        5.9 secs

     total energy              =    -501.32590225 Ry
     estimated scf accuracy    <       0.01219603 Ry

     iteration #  8     ecut=    30.00 Ry     beta= 0.50
     Davidson diagonalization with overlap
     c_bands:  1 eigenvalues not converged
     ethr =  4.76E-06,  avg # of iterations = 20.0

     total cpu time spent up to now is        6.1 secs

     total energy              =    -501.32723206 Ry
     estimated scf accuracy    <       0.02004219 Ry

     iteration #  9     ecut=    30.00 Ry     beta= 0.50
     Davidson diagonalization with overlap
     ethr =  4.76E-06,  avg # of iterations =  5.0

     total cpu time spent up to now is        6.3 secs

     total energy              =    -501.32874940 Ry
     estimated scf accuracy    <       0.00515960 Ry

     iteration # 10     ecut=    30.00 Ry     beta= 0.50
     Davidson diagonalization with overlap
     ethr =  2.02E-06,  avg # of iterations =  3.0

     total cpu time spent up to now is        6.4 secs

     total energy              =    -501.32914548 Ry
     estimated scf accuracy    <       0.00053730 Ry

     iteration # 11     ecut=    30.00 Ry     beta= 0.50
     Davidson diagonalization with overlap
     ethr =  2.10E-07,  avg # of iterations =  4.0

     total cpu time spent up to now is        6.5 secs

     total energy              =    -501.32918078 Ry
     estimated scf accuracy    <       0.00038672 Ry

     iteration # 12     ecut=    30.00 Ry     beta= 0.50
     Davidson diagonalization with overlap
     ethr =  1.51E-07,  avg # of iterations =  3.0

     total cpu time spent up to now is        6.6 secs

     total energy              =    -501.32921872 Ry
     estimated scf accuracy    <       0.00033322 Ry

     iteration # 13     ecut=    30.00 Ry     beta= 0.50
     Davidson diagonalization with overlap
     ethr =  1.30E-07,  avg # of iterations =  1.0

     total cpu time spent up to now is        6.7 secs

     total energy              =    -501.32923891 Ry
     estimated scf accuracy    <       0.00003508 Ry

     iteration # 14     ecut=    30.00 Ry     beta= 0.50
     Davidson diagonalization with overlap
     ethr =  1.37E-08,  avg # of iterations =  4.0

     total cpu time spent up to now is        6.8 secs

     total energy              =    -501.32924205 Ry
     estimated scf accuracy    <       0.00002607 Ry

     iteration # 15     ecut=    30.00 Ry     beta= 0.50
     Davidson diagonalization with overlap
     ethr =  1.02E-08,  avg # of iterations =  3.0

     total cpu time spent up to now is        6.9 secs

     total energy              =    -501.32924240 Ry
     estimated scf accuracy    <       0.00003254 Ry

     iteration # 16     ecut=    30.00 Ry     beta= 0.50
     Davidson diagonalization with overlap
     ethr =  1.02E-08,  avg # of iterations =  2.0

     total cpu time spent up to now is        7.0 secs

     total energy              =    -501.32924493 Ry
     estimated scf accuracy    <       0.00000752 Ry

     iteration # 17     ecut=    30.00 Ry     beta= 0.50
     Davidson diagonalization with overlap
     ethr =  2.94E-09,  avg # of iterations =  3.0

     total cpu time spent up to now is        7.1 secs

     total energy              =    -501.32924503 Ry
     estimated scf accuracy    <       0.00001181 Ry

     iteration # 18     ecut=    30.00 Ry     beta= 0.50
     Davidson diagonalization with overlap
     ethr =  2.94E-09,  avg # of iterations =  2.0

     total cpu time spent up to now is        7.2 secs

     total energy              =    -501.32924576 Ry
     estimated scf accuracy    <       0.00000114 Ry

     iteration # 19     ecut=    30.00 Ry     beta= 0.50
     Davidson diagonalization with overlap
     ethr =  4.44E-10,  avg # of iterations =  2.0

     total cpu time spent up to now is        7.2 secs

     End of self-consistent calculation

          k = 0.0000 0.0000 0.0000 ( 11060 PWs)   bands (ev):

    -5.1483  -4.1495  -4.0653  -4.0400  -3.9033  -3.8390  -3.6161  -3.1430
    -3.1029  -2.9537  -2.8738  -2.7849  -2.7288  -2.6668  -2.6104  -2.5541
    -2.5234  -2.3566  -2.1825  -1.8090  -1.7056  -1.6174  -1.5737  -1.4329
    -1.2795  -1.2493  -0.9912  -0.6544  -0.6184  -0.4168  -0.2624  -0.1342
    -0.0933   0.1499   0.2388   0.3385   0.4170   0.5368   0.5690   0.5921
     0.6723   0.7942   0.8020   0.9507   1.0090   1.1281   1.1425   1.2031
     1.3373   1.4642   1.5319   1.6122   1.6238   1.7908   1.8239   1.9011
     2.0017   2.0688   2.1327   2.2859   2.4079   2.5446   2.6172   2.6488
     2.6978   2.7806   2.8622   2.8961   2.9369   3.0423   3.1265   3.1928
     3.2677   3.3322   3.4000   3.4587   3.5777   3.6941   3.7620   3.8904
     4.0308   4.4574   4.5618   4.6276   4.7547   4.7649   4.8907   5.0360
     5.1274   5.1730   5.2136   5.2728   5.3167   5.3592   5.4626   5.5369
     5.6358   5.7085   5.7227   5.7741   5.8456   5.9293   5.9635   6.0386
     6.0715   6.1194   6.1725   6.2582   6.2725   6.3590   6.5097   6.5609
     6.5661   6.6026   6.6558   6.7521   6.8120   6.8602   6.9417   6.9869
     7.0235   7.0882   7.1304   7.1582   7.1974   7.3245   7.3788   7.4465
     7.5229   7.5939   7.5975   7.6526   7.7009   7.7213   7.8134   7.8174
     7.8541   7.9137   8.0367   8.0535   8.0766   8.2614   8.2968   8.3181
     8.3737   8.4751   8.5479   8.6406   8.6982   8.7274   8.8250   8.8545
     8.8847   9.0007

     the Fermi energy is     7.4560 ev

!    total energy              =    -501.32924563 Ry
     estimated scf accuracy    <       0.00000039 Ry
     smearing contrib. (-TS)   =      -0.15991957 Ry
     internal energy E=F+TS    =    -501.16932606 Ry

     The total energy is F=E-TS. E is the sum of the following terms:
     one-electron contribution =     204.50760237 Ry
     hartree contribution      =      18.69736035 Ry
     xc contribution           =    -150.98112630 Ry
     ewald contribution        =    -573.39316247 Ry

     convergence has been achieved in  19 iterations

     Forces acting on atoms (cartesian axes, Ry/au):

     atom    1 type  1   force =    -0.04638771   -0.03371450    0.03932924
     atom    2 type  1   force =    -0.00699112   -0.04168756    0.01674763
     atom    3 type  1   force =     0.04004738    0.01258413    0.02575205
     atom    4 type  1   force =    -0.00051862   -0.03636971    0.01744213
     atom    5 type  1   force =    -0.01713804   -0.01376374   -0.02571920
     atom    6 type  1   force =    -0.06644384    0.07026330   -0.07187980
     atom    7 type  1   force =     0.00173437    0.01523210    0.01384029
     atom    8 type  1   force =    -0.01423910    0.01539104   -0.02488851
     atom    9 type  1   force =    -0.01033473    0.03179286    0.00401414
     atom   10 type  1   force =    -0.01782833   -0.00042897    0.03220701
     atom   11 type  1   force =    -0.01948128    0.00623253    0.01805373
     atom   12 type  1   force =    -0.02582860   -0.00349174   -0.02284464
     atom   13 type  1   force =    -0.02310308    0.01208732    0.00166121
     atom   14 type  1   force =    -0.03357605   -0.03919834   -0.02916440
     atom   15 type  1   force =     0.03807386   -0.02126277    0.02089316
     atom   16 type  1   force =     0.00738986   -0.00145279    0.03131803
     atom   17 type  1   force =     0.08858524   -0.07137348    0.05414302
     atom   18 type  1   force =    -0.02653349    0.03381907    0.01473670
     atom   19 type  1   force =     0.00807381   -0.01464885    0.00105032
     atom   20 type  1   force =    -0.00361279   -0.00910874   -0.00967735
     atom   21 type  1   force =    -0.00646334   -0.01795565   -0.00775772
     atom   22 type  1   force =     0.01395909   -0.00827122    0.00536443
     atom   23 type  1   force =    -0.00082874   -0.02562340   -0.01054534
     atom   24 type  1   force =     0.00358081   -0.02034415    0.00704679
     atom   25 type  1   force =     0.02039672    0.01729399   -0.01329446
     atom   26 type  1   force =     0.01703595   -0.00259499   -0.02017422
     atom   27 type  1   force =     0.02657111   -0.00033644    0.00292353
     atom   28 type  1   force =     0.00914779    0.01770973   -0.00124179
     atom   29 type  1   force =    -0.00132172   -0.01141064   -0.01387555
     atom   30 type  1   force =    -0.00500589    0.00867497    0.00968847
     atom   31 type  1   force =     0.00708416   -0.00581045   -0.02211338
     atom   32 type  1   force =    -0.06920606   -0.10056874    0.12520499
     atom   33 type  1   force =     0.03165745   -0.01973168   -0.07738386
     atom   34 type  1   force =     0.02646755   -0.00773937   -0.00865623
     atom   35 type  1   force =     0.00486112    0.01438957   -0.00570703
     atom   36 type  1   force =    -0.02132817   -0.01868472   -0.00142994
     atom   37 type  1   force =    -0.01401198   -0.01517885   -0.02545849
     atom   38 type  1   force =     0.02021935   -0.01371858   -0.00674883
     atom   39 type  1   force =    -0.01959811    0.05037561   -0.01478446
     atom   40 type  1   force =    -0.01074081   -0.00664248    0.03452936
     atom   41 type  1   force =    -0.05285808   -0.01593355   -0.00316622
     atom   42 type  1   force =    -0.01231128    0.00712310    0.00275927
     atom   43 type  1   force =     0.00052653    0.01706544   -0.01698986
     atom   44 type  1   force =    -0.00731256    0.00573297   -0.01004056
     atom   45 type  1   force =     0.03005572   -0.01544028    0.05127199
     atom   46 type  1   force =     0.02480669    0.02427256   -0.01295837
     atom   47 type  1   force =    -0.00508607    0.02963284   -0.00667893
     atom   48 type  1   force =    -0.00973870   -0.00443256   -0.03615352
     atom   49 type  1   force =     0.02178586   -0.00535590    0.00214652
     atom   50 type  1   force =    -0.00379356   -0.00178860    0.01045105
     atom   51 type  1   force =    -0.01143329    0.00724370   -0.01468250
     atom   52 type  1   force =     0.01689686    0.00161376    0.01386538
     atom   53 type  1   force =     0.01277457    0.00068436    0.01723900
     atom   54 type  1   force =    -0.00638165   -0.02695331    0.00561745
     atom   55 type  1   force =     0.07165799    0.08984661   -0.10832717
     atom   56 type  1   force =    -0.01312083   -0.00375586    0.00092307
     atom   57 type  1   force =     0.01571724    0.02630759    0.00899909
     atom   58 type  1   force =     0.01282654   -0.02591794    0.01734077
     atom   59 type  1   force =    -0.00869860    0.02721434   -0.02904511
     atom   60 type  1   force =     0.03674704    0.02534679   -0.00683627
     atom   61 type  1   force =     0.00202828    0.02777077    0.01602881
     atom   62 type  1   force =    -0.03137598    0.05312162    0.06343304
     atom   63 type  1   force =     0.00464410    0.00609092   -0.01750658
     atom   64 type  1   force =     0.00727917    0.00577698   -0.01029139

     Total force =     0.406304     Total SCF correction =     0.001281


     Computing stress (Cartesian axis) and pressure

          total   stress  (Ry/bohr**3)                   (kbar)     P=      -32.97
  -0.00024006   0.00001310  -0.00001563          -35.31        1.93       -2.30
   0.00001310  -0.00011806  -0.00002792            1.93      -17.37       -4.11
  -0.00001563  -0.00002792  -0.00031423           -2.30       -4.11      -46.23

 
     init_run     :      1.10s CPU      4.96s WALL (       1 calls)
     electrons    :      2.04s CPU      2.20s WALL (       1 calls)
     forces       :      0.03s CPU      0.04s WALL (       1 calls)
     stress       :      0.15s CPU      0.16s WALL (       1 calls)

     Called by init_run:
     wfcinit      :      0.55s CPU      4.24s WALL (       1 calls)
                                        4.24s GPU  (       1 calls)
     potinit      :      0.05s CPU      0.15s WALL (       1 calls)
     hinit0       :      0.47s CPU      0.49s WALL (       1 calls)

     Called by electrons:
     c_bands      :      1.24s CPU      1.31s WALL (      20 calls)
     sum_band     :      0.39s CPU      0.43s WALL (      20 calls)
     v_of_rho     :      0.19s CPU      0.30s WALL (      20 calls)
     mix_rho      :      0.19s CPU      0.20s WALL (      20 calls)

     Called by c_bands:
     init_us_2    :      0.07s CPU      0.08s WALL (      41 calls)
     init_us_2:gp :      0.07s CPU      0.07s WALL (      41 calls)
     regterg      :      1.07s CPU      1.13s WALL (      20 calls)

     Called by *egterg:
     rdiaghg      :      0.45s CPU      1.21s WALL (      95 calls)
                                        1.20s GPU  (      95 calls)
     h_psi        :      0.98s CPU      3.95s WALL (      97 calls)
                                        3.94s GPU  (      97 calls)
     g_psi        :      0.00s CPU      0.00s WALL (      76 calls)
                                        0.00s GPU  (      76 calls)

     Called by h_psi:
     h_psi:calbec :      0.52s CPU      3.41s WALL (      97 calls)
                                        3.41s GPU  (      97 calls)
     vloc_psi     :      0.40s CPU      0.47s WALL (      97 calls)
                                        0.47s GPU  (      97 calls)
     add_vuspsi   :      0.04s CPU      0.06s WALL (      97 calls)
                                        0.06s GPU  (      97 calls)

     General routines
     calbec       :      0.53s CPU      3.41s WALL (     102 calls)
     fft          :      0.63s CPU      0.76s WALL (     167 calls)
                                        0.14s GPU  (     106 calls)
     ffts         :      0.05s CPU      0.05s WALL (      20 calls)
     fftw         :      0.48s CPU      0.63s WALL (    2124 calls)
                                        0.55s GPU  (    2124 calls)
 
     Parallel routines
 
     PWSCF        :      3.38s CPU      7.45s WALL

 
   This run was terminated on:  10:39: 5  10May2023            

=------------------------------------------------------------------------------=
   JOB DONE.
=------------------------------------------------------------------------------=
