An instance of this daemon is already running
An instance of this daemon is already running

     Program PWSCF v.7.1 starts on 10May2023 at 10:39:27 

     This program is part of the open-source Quantum ESPRESSO suite
     for quantum simulation of materials; please cite
         "P. Giannozzi et al., J. Phys.:Condens. Matter 21 395502 (2009);
         "P. Giannozzi et al., J. Phys.:Condens. Matter 29 465901 (2017);
         "P. Giannozzi et al., J. Chem. Phys. 152 154105 (2020);
          URL http://www.quantum-espresso.org", 
     in publications or presentations arising from this work. More details at
     http://www.quantum-espresso.org/quote

     Parallel version (MPI & OpenMP), running on       4 processor cores
     Number of MPI processes:                 4
     Threads/MPI process:                     1

     MPI processes distributed on     1 nodes
     753576 MiB available memory on the printing compute node when the environment starts
 
     Reading input from pw-si-12.in
Warning: card &CELL ignored
Warning: card / ignored

     Current dimensions of program PWSCF are:
     Max number of different atomic species (ntypx) = 10
     Max number of k-points (npk) =  40000
     Max angular momentum in pseudopotentials (lmaxx) =  4

     IMPORTANT: XC functional enforced from input :
     Exchange-correlation= PBE
                           (   1   4   3   4   0   0   0)
     Any further DFT definition will be discarded
     Please, verify this is what you really want


     gamma-point specific algorithms are used
 
     K-points division:     npool     =       2
     R & G space division:  proc/nbgrp/npool/nimage =       2
     Subspace diagonalization in iterative solution of the eigenvalue problem:
     a serial algorithm will be used

     Message from routine divide_et_impera:
     suboptimal parallelization: some nodes have no k-points
 
     Parallelization info
     --------------------
     sticks:   dense  smooth     PW     G-vecs:    dense   smooth      PW
     Min        1933    1933    516                90543    90543   12416
     Max        1936    1936    517                90548    90548   12421
     Sum        3869    3869   1033               181091   181091   24837
 
     Using Slab Decomposition
 


     bravais-lattice index     =            0
     lattice parameter (alat)  =      20.1401  a.u.
     unit-cell volume          =    8169.2563 (a.u.)^3
     number of atoms/cell      =           64
     number of atomic types    =            1
     number of electrons       =       256.00
     number of Kohn-Sham states=          154
     kinetic-energy cutoff     =      30.0000  Ry
     charge density cutoff     =     120.0000  Ry
     scf convergence threshold =      1.0E-06
     mixing beta               =       0.5000
     number of iterations used =            8  plain     mixing
     Exchange-correlation= PBE
                           (   1   4   3   4   0   0   0)

     GPU acceleration is ACTIVE.
     GPU-aware MPI enabled

     Message from routine print_cuda_info:
     High GPU oversubscription detected. Are you sure this is what you want?

     celldm(1)=  20.140064  celldm(2)=   0.000000  celldm(3)=   0.000000
     celldm(4)=   0.000000  celldm(5)=   0.000000  celldm(6)=   0.000000

     crystal axes: (cart. coord. in units of alat)
               a(1) = (   1.000000   0.000000   0.000000 )  
               a(2) = (   0.000000   1.000000   0.000000 )  
               a(3) = (   0.000000   0.000000   1.000000 )  

     reciprocal axes: (cart. coord. in units 2 pi/alat)
               b(1) = (  1.000000  0.000000  0.000000 )  
               b(2) = (  0.000000  1.000000  0.000000 )  
               b(3) = (  0.000000  0.000000  1.000000 )  


     PseudoPot. # 1 for Si read from file:
     /home/ppiaggi/pseudos/Si_ONCV_PBE_sr.upf
     MD5 check sum: 8553c464762ac42b85b1eed164b4d029
     Pseudo is Norm-conserving, Zval =  4.0
     Generated using ONCVPSP code by D. R. Hamann
     Using radial grid of 1510 points,  4 beta functions with: 
                l(1) =   0
                l(2) =   0
                l(3) =   1
                l(4) =   1

     atomic species   valence    mass     pseudopotential
        Si             4.00    28.08500     Si( 1.00)

     No symmetry found



   Cartesian axes

     site n.     atom                  positions (alat units)
         1           Si  tau(   1) = (   0.4027330   0.0382769   0.6794510  )
         2           Si  tau(   2) = (   0.2173900   0.8398690   0.0751248  )
         3           Si  tau(   3) = (   0.0916078   0.6653200   0.8936410  )
         4           Si  tau(   4) = (   0.1699040   0.9253510   0.2929730  )
         5           Si  tau(   5) = (   0.3081230   0.8306880   0.6645100  )
         6           Si  tau(   6) = (   0.8297510   0.5885000   0.4237660  )
         7           Si  tau(   7) = (   0.6704690   0.4369590   0.6602650  )
         8           Si  tau(   8) = (   0.0000819   0.0910830   0.4535720  )
         9           Si  tau(   9) = (   0.3633790   0.0700552   0.3951130  )
        10           Si  tau(  10) = (   0.8897530   0.8002960   0.7005940  )
        11           Si  tau(  11) = (   0.4999650   0.1552000   0.2366550  )
        12           Si  tau(  12) = (   0.3270270   0.5694950   0.6771040  )
        13           Si  tau(  13) = (   0.2782900   0.2176870   0.7492670  )
        14           Si  tau(  14) = (   0.7964180   0.7802120   0.9480720  )
        15           Si  tau(  15) = (   0.9873900   0.7381340   0.4848980  )
        16           Si  tau(  16) = (   0.6758560   0.2390640   0.3208970  )
        17           Si  tau(  17) = (   0.9536650   0.5546390   0.7714510  )
        18           Si  tau(  18) = (   0.2356100   0.7847470   0.4402360  )
        19           Si  tau(  19) = (   0.4973170   0.3092640   0.9723860  )
        20           Si  tau(  20) = (   0.9473140   0.9100910   0.3306290  )
        21           Si  tau(  21) = (   0.5871820   0.8042600   0.0535833  )
        22           Si  tau(  22) = (   0.7234080   0.3731660   0.9539830  )
        23           Si  tau(  23) = (   0.7853320   0.1206420   0.5684730  )
        24           Si  tau(  24) = (   0.8982710   0.2156300   0.2671330  )
        25           Si  tau(  25) = (   0.1396490   0.8722760   0.8161990  )
        26           Si  tau(  26) = (   0.6786480   0.7126060   0.2989440  )
        27           Si  tau(  27) = (   0.2414450   0.0540545   0.9631960  )
        28           Si  tau(  28) = (   0.5591750   0.6453870   0.6255500  )
        29           Si  tau(  29) = (   0.5572660   0.1633790   0.5400660  )
        30           Si  tau(  30) = (   0.8477480   0.6527650   0.1291150  )
        31           Si  tau(  31) = (   0.2080910   0.1949390   0.4758610  )
        32           Si  tau(  32) = (   0.2439940   0.6353450   0.2919110  )
        33           Si  tau(  33) = (   0.1384450   0.5773840   0.5658590  )
        34           Si  tau(  34) = (   0.0665393   0.6058320   0.1046160  )
        35           Si  tau(  35) = (   0.0274512   0.3957880   0.3023480  )
        36           Si  tau(  36) = (   0.3089540   0.3719210   0.9159590  )
        37           Si  tau(  37) = (   0.4736250   0.0886666   0.9704940  )
        38           Si  tau(  38) = (   0.8970420   0.2420130   0.0639248  )
        39           Si  tau(  39) = (   0.4760160   0.6293230   0.4147080  )
        40           Si  tau(  40) = (   0.0581695   0.1863940   0.7160960  )
        41           Si  tau(  41) = (   0.5176750   0.4467720   0.1624130  )
        42           Si  tau(  42) = (   0.9515590   0.0015832   0.7663010  )
        43           Si  tau(  43) = (   0.2983560   0.2914160   0.2043720  )
        44           Si  tau(  44) = (   0.1149390   0.3802460   0.0660890  )
        45           Si  tau(  45) = (   0.7046090   0.1874010   0.7905400  )
        46           Si  tau(  46) = (   0.1498080   0.1219010   0.1763670  )
        47           Si  tau(  47) = (   0.4357570   0.3589970   0.6357770  )
        48           Si  tau(  48) = (   0.7534910   0.4468410   0.1931560  )
        49           Si  tau(  49) = (   0.6378890   0.0079416   0.1244310  )
        50           Si  tau(  50) = (   0.7318000   0.5836540   0.8498720  )
        51           Si  tau(  51) = (   0.5018610   0.7449060   0.8420140  )
        52           Si  tau(  52) = (   0.8204240   0.0614778   0.9850470  )
        53           Si  tau(  53) = (   0.3110420   0.6052720   0.8899250  )
        54           Si  tau(  54) = (   0.3983690   0.6646360   0.1052950  )
        55           Si  tau(  55) = (   0.0050719   0.3814270   0.5485490  )
        56           Si  tau(  56) = (   0.9750550   0.9000440   0.0388891  )
        57           Si  tau(  57) = (   0.5026550   0.4132810   0.4091670  )
        58           Si  tau(  58) = (   0.7146610   0.9638500   0.3415630  )
        59           Si  tau(  59) = (   0.4909560   0.8840880   0.4799930  )
        60           Si  tau(  60) = (   0.7884480   0.3576540   0.5106740  )
        61           Si  tau(  61) = (   0.0260126   0.3645270   0.8600890  )
        62           Si  tau(  62) = (   0.6921450   0.8528720   0.5984450  )
        63           Si  tau(  63) = (   0.5931640   0.9592710   0.8067410  )
        64           Si  tau(  64) = (   0.2579860   0.3921560   0.4235650  )

     number of k points=     1  Fermi-Dirac smearing, width (Ry)=  0.0100
                       cart. coord. in units 2pi/alat
        k(    1) = (   0.0000000   0.0000000   0.0000000), wk =   2.0000000

     Dense  grid:    90546 G-vectors     FFT dimensions: (  72,  72,  72)

     Estimated max dynamical RAM per process >     145.52 MB

     Estimated total dynamical RAM >     559.97 MB

     Initial potential from superposition of free atoms

     starting charge     255.9608, renormalised to     256.0000
     Starting wfcs are  256 randomized atomic wfcs

     total cpu time spent up to now is        5.0 secs

     Self-consistent Calculation

     iteration #  1     ecut=    30.00 Ry     beta= 0.50
     Davidson diagonalization with overlap
     ethr =  1.00E-02,  avg # of iterations =  3.0

     Threshold (ethr) on eigenvalues was too large:
     Diagonalizing with lowered threshold

     Davidson diagonalization with overlap
     ethr =  3.69E-04,  avg # of iterations =  4.0

     total cpu time spent up to now is        5.2 secs

     total energy              =    -501.40133758 Ry
     estimated scf accuracy    <       1.12553068 Ry

     iteration #  2     ecut=    30.00 Ry     beta= 0.50
     Davidson diagonalization with overlap
     ethr =  4.40E-04,  avg # of iterations =  2.0

     total cpu time spent up to now is        5.4 secs

     total energy              =    -501.28005220 Ry
     estimated scf accuracy    <       1.26632610 Ry

     iteration #  3     ecut=    30.00 Ry     beta= 0.50
     Davidson diagonalization with overlap
     ethr =  4.40E-04,  avg # of iterations =  3.0

     total cpu time spent up to now is        5.5 secs

     total energy              =    -501.33877756 Ry
     estimated scf accuracy    <       2.06414535 Ry

     iteration #  4     ecut=    30.00 Ry     beta= 0.50
     Davidson diagonalization with overlap
     ethr =  4.40E-04,  avg # of iterations =  3.0

     total cpu time spent up to now is        5.6 secs

     total energy              =    -501.49026498 Ry
     estimated scf accuracy    <       0.71563859 Ry

     iteration #  5     ecut=    30.00 Ry     beta= 0.50
     Davidson diagonalization with overlap
     ethr =  2.80E-04,  avg # of iterations =  2.0

     total cpu time spent up to now is        5.7 secs

     total energy              =    -501.54061735 Ry
     estimated scf accuracy    <       0.16438249 Ry

     iteration #  6     ecut=    30.00 Ry     beta= 0.50
     Davidson diagonalization with overlap
     ethr =  6.42E-05,  avg # of iterations =  3.0

     total cpu time spent up to now is        5.8 secs

     total energy              =    -501.56072972 Ry
     estimated scf accuracy    <       0.15751179 Ry

     iteration #  7     ecut=    30.00 Ry     beta= 0.50
     Davidson diagonalization with overlap
     ethr =  6.15E-05,  avg # of iterations =  1.0

     total cpu time spent up to now is        5.9 secs

     total energy              =    -501.57204761 Ry
     estimated scf accuracy    <       0.00756956 Ry

     iteration #  8     ecut=    30.00 Ry     beta= 0.50
     Davidson diagonalization with overlap
     ethr =  2.96E-06,  avg # of iterations = 19.0

     total cpu time spent up to now is        6.1 secs

     total energy              =    -501.57253658 Ry
     estimated scf accuracy    <       0.01944452 Ry

     iteration #  9     ecut=    30.00 Ry     beta= 0.50
     Davidson diagonalization with overlap
     ethr =  2.96E-06,  avg # of iterations =  3.0

     total cpu time spent up to now is        6.2 secs

     total energy              =    -501.57413743 Ry
     estimated scf accuracy    <       0.00269393 Ry

     iteration # 10     ecut=    30.00 Ry     beta= 0.50
     Davidson diagonalization with overlap
     ethr =  1.05E-06,  avg # of iterations =  2.0

     total cpu time spent up to now is        6.3 secs

     total energy              =    -501.57434245 Ry
     estimated scf accuracy    <       0.00081508 Ry

     iteration # 11     ecut=    30.00 Ry     beta= 0.50
     Davidson diagonalization with overlap
     ethr =  3.18E-07,  avg # of iterations =  2.0

     total cpu time spent up to now is        6.4 secs

     total energy              =    -501.57440144 Ry
     estimated scf accuracy    <       0.00041464 Ry

     iteration # 12     ecut=    30.00 Ry     beta= 0.50
     Davidson diagonalization with overlap
     ethr =  1.62E-07,  avg # of iterations =  2.0

     total cpu time spent up to now is        6.5 secs

     total energy              =    -501.57444820 Ry
     estimated scf accuracy    <       0.00019577 Ry

     iteration # 13     ecut=    30.00 Ry     beta= 0.50
     Davidson diagonalization with overlap
     ethr =  7.65E-08,  avg # of iterations =  2.0

     total cpu time spent up to now is        6.6 secs

     total energy              =    -501.57445781 Ry
     estimated scf accuracy    <       0.00004219 Ry

     iteration # 14     ecut=    30.00 Ry     beta= 0.50
     Davidson diagonalization with overlap
     ethr =  1.65E-08,  avg # of iterations =  4.0

     total cpu time spent up to now is        6.7 secs

     total energy              =    -501.57446251 Ry
     estimated scf accuracy    <       0.00005196 Ry

     iteration # 15     ecut=    30.00 Ry     beta= 0.50
     Davidson diagonalization with overlap
     ethr =  1.65E-08,  avg # of iterations =  2.0

     total cpu time spent up to now is        6.8 secs

     total energy              =    -501.57446558 Ry
     estimated scf accuracy    <       0.00000328 Ry

     iteration # 16     ecut=    30.00 Ry     beta= 0.50
     Davidson diagonalization with overlap
     ethr =  1.28E-09,  avg # of iterations =  4.0

     total cpu time spent up to now is        6.9 secs

     total energy              =    -501.57446615 Ry
     estimated scf accuracy    <       0.00001069 Ry

     iteration # 17     ecut=    30.00 Ry     beta= 0.50
     Davidson diagonalization with overlap
     ethr =  1.28E-09,  avg # of iterations =  3.0

     total cpu time spent up to now is        7.0 secs

     total energy              =    -501.57446667 Ry
     estimated scf accuracy    <       0.00000196 Ry

     iteration # 18     ecut=    30.00 Ry     beta= 0.50
     Davidson diagonalization with overlap
     ethr =  7.66E-10,  avg # of iterations =  2.0

     total cpu time spent up to now is        7.1 secs

     End of self-consistent calculation

          k = 0.0000 0.0000 0.0000 ( 11372 PWs)   bands (ev):

    -5.3744  -4.5075  -4.3674  -4.2219  -4.1227  -4.0350  -3.8584  -3.4727
    -3.3830  -3.2810  -3.1468  -3.1237  -3.0894  -2.9186  -2.8661  -2.7802
    -2.7267  -2.5999  -2.4838  -2.2146  -2.0699  -1.9987  -1.8217  -1.6817
    -1.6391  -1.5880  -1.3383  -0.9685  -0.8864  -0.7905  -0.6014  -0.4470
    -0.2898  -0.2014  -0.1225  -0.0483   0.0784   0.1199   0.1644   0.2479
     0.2673   0.3479   0.4216   0.4894   0.6371   0.7375   0.8676   0.9238
     1.0239   1.0835   1.1917   1.2859   1.3677   1.4120   1.5277   1.5710
     1.6782   1.7316   1.9212   2.0994   2.1299   2.2393   2.2806   2.4146
     2.5240   2.5701   2.6896   2.7036   2.7382   2.8873   2.9514   2.9765
     3.0643   3.1420   3.2279   3.2884   3.3788   3.4489   3.5463   3.6623
     3.7634   4.0954   4.1791   4.3073   4.4255   4.5103   4.5595   4.6181
     4.6894   4.7795   4.8549   4.8929   4.9615   5.0406   5.0794   5.1054
     5.2097   5.2805   5.3771   5.3870   5.4192   5.5348   5.5446   5.5848
     5.6955   5.7915   5.8003   5.8784   5.9118   5.9226   5.9761   6.0222
     6.0912   6.1348   6.1496   6.2782   6.3810   6.4541   6.4820   6.5652
     6.6248   6.6868   6.7366   6.8228   6.8586   6.9199   6.9733   7.0284
     7.1107   7.1842   7.2135   7.3334   7.3942   7.4735   7.4854   7.5921
     7.6436   7.7317   7.7437   7.8371   7.8839   7.9358   7.9970   8.0923
     8.1928   8.2214   8.2454   8.3073   8.4259   8.4989   8.5083   8.5530
     8.6006   8.6477

     the Fermi energy is     7.0828 ev

!    total energy              =    -501.57446616 Ry
     estimated scf accuracy    <       0.00000090 Ry
     smearing contrib. (-TS)   =      -0.13939659 Ry
     internal energy E=F+TS    =    -501.43506957 Ry

     The total energy is F=E-TS. E is the sum of the following terms:
     one-electron contribution =     187.46153387 Ry
     hartree contribution      =      24.06675545 Ry
     xc contribution           =    -150.93920833 Ry
     ewald contribution        =    -562.02415056 Ry

     convergence has been achieved in  18 iterations

     Forces acting on atoms (cartesian axes, Ry/au):

     atom    1 type  1   force =     0.04122713   -0.02504561   -0.00375948
     atom    2 type  1   force =    -0.01540442   -0.00224226    0.03048081
     atom    3 type  1   force =     0.04883898    0.03558440    0.01879371
     atom    4 type  1   force =    -0.01299463    0.04701393   -0.06510949
     atom    5 type  1   force =     0.02185049   -0.00509049   -0.01459081
     atom    6 type  1   force =     0.00285434   -0.03021483   -0.01832279
     atom    7 type  1   force =    -0.07970201    0.04140316    0.06047978
     atom    8 type  1   force =    -0.00847992    0.03440121   -0.00592581
     atom    9 type  1   force =     0.05016012   -0.03698006   -0.00760428
     atom   10 type  1   force =    -0.00678340   -0.01354445   -0.01897798
     atom   11 type  1   force =    -0.03986757    0.00162801   -0.02432866
     atom   12 type  1   force =     0.04667206    0.00121181   -0.02626033
     atom   13 type  1   force =     0.00019952   -0.00962404    0.01022833
     atom   14 type  1   force =    -0.00390303   -0.00969158    0.00097659
     atom   15 type  1   force =     0.00779199   -0.00432740    0.02446275
     atom   16 type  1   force =     0.04027579    0.04324531    0.05721889
     atom   17 type  1   force =    -0.04125260   -0.01530862   -0.03984536
     atom   18 type  1   force =     0.00831125    0.00250800    0.08719994
     atom   19 type  1   force =     0.07602769   -0.02596487    0.04421155
     atom   20 type  1   force =     0.00710418   -0.01779310   -0.00214561
     atom   21 type  1   force =     0.00800269   -0.01623082   -0.00629124
     atom   22 type  1   force =    -0.00335870    0.00780700   -0.00389947
     atom   23 type  1   force =    -0.00321475    0.00535997    0.00810560
     atom   24 type  1   force =     0.01918318   -0.01185415    0.08231098
     atom   25 type  1   force =    -0.00652319    0.02315081    0.01916393
     atom   26 type  1   force =    -0.00871943    0.00063521   -0.00605475
     atom   27 type  1   force =     0.01174585   -0.01418237    0.00097019
     atom   28 type  1   force =     0.00393905    0.00345434    0.00799984
     atom   29 type  1   force =    -0.01567964    0.01478466    0.00294299
     atom   30 type  1   force =    -0.01862442   -0.02379097    0.02174275
     atom   31 type  1   force =    -0.06645080   -0.03113705    0.03255125
     atom   32 type  1   force =     0.03557000   -0.04498846   -0.04850015
     atom   33 type  1   force =    -0.04066726   -0.02166362   -0.01607918
     atom   34 type  1   force =     0.01438154   -0.00609251    0.02697955
     atom   35 type  1   force =    -0.00857238    0.01358423    0.01323830
     atom   36 type  1   force =    -0.07523097    0.03646952   -0.03185483
     atom   37 type  1   force =    -0.00505570   -0.01320183   -0.01150260
     atom   38 type  1   force =     0.01565412    0.04666711   -0.06415207
     atom   39 type  1   force =     0.01766871    0.03581835   -0.02536416
     atom   40 type  1   force =     0.01569254    0.05818873   -0.03180175
     atom   41 type  1   force =    -0.00503389    0.00626179    0.00688770
     atom   42 type  1   force =    -0.01447427   -0.00565501    0.02803109
     atom   43 type  1   force =    -0.00058073    0.00184485    0.01046435
     atom   44 type  1   force =     0.01683594    0.01196910    0.02264026
     atom   45 type  1   force =     0.00996116   -0.01414769    0.00013501
     atom   46 type  1   force =    -0.00762202   -0.00635685   -0.01965829
     atom   47 type  1   force =     0.03253998    0.01008008   -0.02313347
     atom   48 type  1   force =    -0.00039699    0.01139584   -0.01874901
     atom   49 type  1   force =     0.00110016    0.00397163   -0.00623496
     atom   50 type  1   force =     0.01398439   -0.03261713   -0.01152393
     atom   51 type  1   force =    -0.01349718   -0.01027377   -0.02477797
     atom   52 type  1   force =    -0.00753595   -0.02687795   -0.04786883
     atom   53 type  1   force =    -0.00152907   -0.01577098    0.04181617
     atom   54 type  1   force =    -0.00965141   -0.01485051    0.00804616
     atom   55 type  1   force =     0.00816975   -0.00618240    0.01656095
     atom   56 type  1   force =    -0.00065859   -0.00135183    0.00073891
     atom   57 type  1   force =    -0.01599430   -0.02053191   -0.00546446
     atom   58 type  1   force =     0.00225906   -0.02381144    0.01079349
     atom   59 type  1   force =    -0.01131654   -0.00792515    0.01557744
     atom   60 type  1   force =     0.04285634   -0.02406978   -0.04996855
     atom   61 type  1   force =    -0.00850103   -0.02171156    0.00156493
     atom   62 type  1   force =    -0.02882067    0.01237118    0.01680012
     atom   63 type  1   force =    -0.03582778    0.03264204   -0.01821782
     atom   64 type  1   force =     0.00106724    0.06765081   -0.03214620

     Total force =     0.381373     Total SCF correction =     0.001902


     Computing stress (Cartesian axis) and pressure

          total   stress  (Ry/bohr**3)                   (kbar)     P=      -30.35
  -0.00031303   0.00004028   0.00003075          -46.05        5.92        4.52
   0.00004028  -0.00014508   0.00002279            5.92      -21.34        3.35
   0.00003075   0.00002279  -0.00016076            4.52        3.35      -23.65

 
     init_run     :      1.07s CPU      4.92s WALL (       1 calls)
     electrons    :      1.90s CPU      2.08s WALL (       1 calls)
     forces       :      0.03s CPU      0.04s WALL (       1 calls)
     stress       :      0.15s CPU      0.15s WALL (       1 calls)

     Called by init_run:
     wfcinit      :      0.53s CPU      4.20s WALL (       1 calls)
                                        4.20s GPU  (       1 calls)
     potinit      :      0.05s CPU      0.15s WALL (       1 calls)
     hinit0       :      0.46s CPU      0.50s WALL (       1 calls)

     Called by electrons:
     c_bands      :      1.13s CPU      1.21s WALL (      19 calls)
     sum_band     :      0.38s CPU      0.42s WALL (      19 calls)
     v_of_rho     :      0.18s CPU      0.29s WALL (      19 calls)
     mix_rho      :      0.18s CPU      0.19s WALL (      19 calls)

     Called by c_bands:
     init_us_2    :      0.07s CPU      0.07s WALL (      39 calls)
     init_us_2:gp :      0.07s CPU      0.07s WALL (      39 calls)
     regterg      :      0.97s CPU      1.05s WALL (      19 calls)

     Called by *egterg:
     rdiaghg      :      0.39s CPU      1.15s WALL (      84 calls)
                                        1.13s GPU  (      84 calls)
     h_psi        :      0.93s CPU      3.89s WALL (      86 calls)
                                        3.88s GPU  (      86 calls)
     g_psi        :      0.00s CPU      0.00s WALL (      66 calls)
                                        0.00s GPU  (      66 calls)

     Called by h_psi:
     h_psi:calbec :      0.49s CPU      3.37s WALL (      86 calls)
                                        3.37s GPU  (      86 calls)
     vloc_psi     :      0.39s CPU      0.46s WALL (      86 calls)
                                        0.46s GPU  (      86 calls)
     add_vuspsi   :      0.03s CPU      0.05s WALL (      86 calls)
                                        0.05s GPU  (      86 calls)

     General routines
     calbec       :      0.50s CPU      3.37s WALL (      91 calls)
     fft          :      0.62s CPU      0.76s WALL (     159 calls)
                                        0.14s GPU  (     101 calls)
     ffts         :      0.05s CPU      0.05s WALL (      19 calls)
     fftw         :      0.47s CPU      0.61s WALL (    2005 calls)
                                        0.54s GPU  (    2005 calls)
 
     Parallel routines
 
     PWSCF        :      3.20s CPU      7.28s WALL

 
   This run was terminated on:  10:39:34  10May2023            

=------------------------------------------------------------------------------=
   JOB DONE.
=------------------------------------------------------------------------------=
