An instance of this daemon is already running

     Program PWSCF v.7.1 starts on 10May2023 at 10:41:23 

     This program is part of the open-source Quantum ESPRESSO suite
     for quantum simulation of materials; please cite
         "P. Giannozzi et al., J. Phys.:Condens. Matter 21 395502 (2009);
         "P. Giannozzi et al., J. Phys.:Condens. Matter 29 465901 (2017);
         "P. Giannozzi et al., J. Chem. Phys. 152 154105 (2020);
          URL http://www.quantum-espresso.org", 
     in publications or presentations arising from this work. More details at
     http://www.quantum-espresso.org/quote

     Parallel version (MPI & OpenMP), running on       4 processor cores
     Number of MPI processes:                 4
     Threads/MPI process:                     1

     MPI processes distributed on     1 nodes
     753559 MiB available memory on the printing compute node when the environment starts
 
     Reading input from pw-si-24.in
Warning: card &CELL ignored
Warning: card / ignored

     Current dimensions of program PWSCF are:
     Max number of different atomic species (ntypx) = 10
     Max number of k-points (npk) =  40000
     Max angular momentum in pseudopotentials (lmaxx) =  4

     IMPORTANT: XC functional enforced from input :
     Exchange-correlation= PBE
                           (   1   4   3   4   0   0   0)
     Any further DFT definition will be discarded
     Please, verify this is what you really want


     gamma-point specific algorithms are used
 
     K-points division:     npool     =       2
     R & G space division:  proc/nbgrp/npool/nimage =       2
     Subspace diagonalization in iterative solution of the eigenvalue problem:
     a serial algorithm will be used

     Message from routine divide_et_impera:
     suboptimal parallelization: some nodes have no k-points
 
     Parallelization info
     --------------------
     sticks:   dense  smooth     PW     G-vecs:    dense   smooth      PW
     Min        1903    1903    502                88514    88514   12054
     Max        1906    1906    503                88515    88515   12057
     Sum        3809    3809   1005               177029   177029   24111
 
     Using Slab Decomposition
 


     bravais-lattice index     =            0
     lattice parameter (alat)  =      19.9794  a.u.
     unit-cell volume          =    7975.2635 (a.u.)^3
     number of atoms/cell      =           64
     number of atomic types    =            1
     number of electrons       =       256.00
     number of Kohn-Sham states=          154
     kinetic-energy cutoff     =      30.0000  Ry
     charge density cutoff     =     120.0000  Ry
     scf convergence threshold =      1.0E-06
     mixing beta               =       0.5000
     number of iterations used =            8  plain     mixing
     Exchange-correlation= PBE
                           (   1   4   3   4   0   0   0)

     GPU acceleration is ACTIVE.
     GPU-aware MPI enabled

     Message from routine print_cuda_info:
     High GPU oversubscription detected. Are you sure this is what you want?

     celldm(1)=  19.979365  celldm(2)=   0.000000  celldm(3)=   0.000000
     celldm(4)=   0.000000  celldm(5)=   0.000000  celldm(6)=   0.000000

     crystal axes: (cart. coord. in units of alat)
               a(1) = (   1.000000   0.000000   0.000000 )  
               a(2) = (   0.000000   1.000000   0.000000 )  
               a(3) = (   0.000000   0.000000   1.000000 )  

     reciprocal axes: (cart. coord. in units 2 pi/alat)
               b(1) = (  1.000000  0.000000  0.000000 )  
               b(2) = (  0.000000  1.000000  0.000000 )  
               b(3) = (  0.000000  0.000000  1.000000 )  


     PseudoPot. # 1 for Si read from file:
     /home/ppiaggi/pseudos/Si_ONCV_PBE_sr.upf
     MD5 check sum: 8553c464762ac42b85b1eed164b4d029
     Pseudo is Norm-conserving, Zval =  4.0
     Generated using ONCVPSP code by D. R. Hamann
     Using radial grid of 1510 points,  4 beta functions with: 
                l(1) =   0
                l(2) =   0
                l(3) =   1
                l(4) =   1

     atomic species   valence    mass     pseudopotential
        Si             4.00    28.08500     Si( 1.00)

     No symmetry found



   Cartesian axes

     site n.     atom                  positions (alat units)
         1           Si  tau(   1) = (   0.0957431   0.3999130   0.3386870  )
         2           Si  tau(   2) = (   0.9485740   0.3801220   0.9448970  )
         3           Si  tau(   3) = (   0.2828790   0.4488910   0.4667450  )
         4           Si  tau(   4) = (   0.3142940   0.9382700   0.2115960  )
         5           Si  tau(   5) = (   0.4667300   0.6020870   0.7414080  )
         6           Si  tau(   6) = (   0.5897660   0.7843530   0.8247520  )
         7           Si  tau(   7) = (   0.0586086   0.8635270   0.1599890  )
         8           Si  tau(   8) = (   0.2727450   0.7106470   0.4527190  )
         9           Si  tau(   9) = (   0.9758280   0.5824430   0.0003464  )
        10           Si  tau(  10) = (   0.3493660   0.8343850   0.9661670  )
        11           Si  tau(  11) = (   0.2609180   0.6918670   0.1993630  )
        12           Si  tau(  12) = (   0.1229320   0.7356440   0.9045290  )
        13           Si  tau(  13) = (   0.3160480   0.0380225   0.7442250  )
        14           Si  tau(  14) = (   0.1286640   0.0118287   0.8683160  )
        15           Si  tau(  15) = (   0.9025910   0.9981690   0.7851280  )
        16           Si  tau(  16) = (   0.5567850   0.0295041   0.0873696  )
        17           Si  tau(  17) = (   0.8832900   0.8902970   0.0030399  )
        18           Si  tau(  18) = (   0.7794440   0.6481520   0.2029010  )
        19           Si  tau(  19) = (   0.3916830   0.1580720   0.3101100  )
        20           Si  tau(  20) = (   0.7781270   0.8403630   0.6872750  )
        21           Si  tau(  21) = (   0.1418630   0.1711620   0.6214210  )
        22           Si  tau(  22) = (   0.6067330   0.5131200   0.5411420  )
        23           Si  tau(  23) = (   0.4976410   0.5487700   0.2595710  )
        24           Si  tau(  24) = (   0.8935700   0.6426270   0.5131360  )
        25           Si  tau(  25) = (   0.0614646   0.2793130   0.1136480  )
        26           Si  tau(  26) = (   0.7283220   0.4509440   0.3372760  )
        27           Si  tau(  27) = (   0.8562640   0.1425820   0.1028500  )
        28           Si  tau(  28) = (   0.7524380   0.4596960   0.7137310  )
        29           Si  tau(  29) = (   0.3858000   0.1313740   0.9600730  )
        30           Si  tau(  30) = (   0.3314570   0.7980500   0.7381670  )
        31           Si  tau(  31) = (   0.2561900   0.4514160   0.1070780  )
        32           Si  tau(  32) = (   0.4549610   0.3454600   0.8915550  )
        33           Si  tau(  33) = (   0.5300110   0.7318090   0.4309930  )
        34           Si  tau(  34) = (   0.7633750   0.6725120   0.9639230  )
        35           Si  tau(  35) = (   0.4997560   0.9220100   0.6063750  )
        36           Si  tau(  36) = (   0.4540030   0.3168740   0.1398130  )
        37           Si  tau(  37) = (   0.1820300   0.0937051   0.0532210  )
        38           Si  tau(  38) = (   0.1792600   0.1652090   0.3996460  )
        39           Si  tau(  39) = (   0.8071410   0.0472606   0.4479610  )
        40           Si  tau(  40) = (   0.4827610   0.6586280   0.0606104  )
        41           Si  tau(  41) = (   0.6326650   0.2242420   0.6745430  )
        42           Si  tau(  42) = (   0.7375290   0.8071350   0.4577280  )
        43           Si  tau(  43) = (   0.6991820   0.3530740   0.1470250  )
        44           Si  tau(  44) = (   0.3534870   0.2492420   0.6865140  )
        45           Si  tau(  45) = (   0.0116993   0.6024190   0.2351870  )
        46           Si  tau(  46) = (   0.6725820   0.4641740   0.9135940  )
        47           Si  tau(  47) = (   0.0028327   0.0343096   0.3050240  )
        48           Si  tau(  48) = (   0.5748110   0.0831597   0.4636890  )
        49           Si  tau(  49) = (   0.1213490   0.7221440   0.6840840  )
        50           Si  tau(  50) = (   0.2776530   0.5280970   0.8998360  )
        51           Si  tau(  51) = (   0.5329430   0.8420730   0.2047990  )
        52           Si  tau(  52) = (   0.7675290   0.8815230   0.2364120  )
        53           Si  tau(  53) = (   0.0186213   0.9611190   0.5818040  )
        54           Si  tau(  54) = (   0.8476210   0.2368880   0.6197700  )
        55           Si  tau(  55) = (   0.6574380   0.1377080   0.2485430  )
        56           Si  tau(  56) = (   0.1644820   0.5066330   0.6660630  )
        57           Si  tau(  57) = (   0.7884340   0.2062690   0.8973350  )
        58           Si  tau(  58) = (   0.3169160   0.9478170   0.4584000  )
        59           Si  tau(  59) = (   0.0485067   0.7934840   0.4315240  )
        60           Si  tau(  60) = (   0.0193024   0.3219480   0.7474070  )
        61           Si  tau(  61) = (   0.8800100   0.6542940   0.7485890  )
        62           Si  tau(  62) = (   0.9010630   0.4013090   0.4670360  )
        63           Si  tau(  63) = (   0.4652130   0.3371870   0.5157740  )
        64           Si  tau(  64) = (   0.6003010   0.0335884   0.8254640  )

     number of k points=     1  Fermi-Dirac smearing, width (Ry)=  0.0100
                       cart. coord. in units 2pi/alat
        k(    1) = (   0.0000000   0.0000000   0.0000000), wk =   2.0000000

     Dense  grid:    88515 G-vectors     FFT dimensions: (  72,  72,  72)

     Estimated max dynamical RAM per process >     142.46 MB

     Estimated total dynamical RAM >     548.22 MB

     Initial potential from superposition of free atoms

     starting charge     255.9608, renormalised to     256.0000
     Starting wfcs are  256 randomized atomic wfcs

     total cpu time spent up to now is        5.0 secs

     Self-consistent Calculation

     iteration #  1     ecut=    30.00 Ry     beta= 0.50
     Davidson diagonalization with overlap
     ethr =  1.00E-02,  avg # of iterations =  3.0

     Threshold (ethr) on eigenvalues was too large:
     Diagonalizing with lowered threshold

     Davidson diagonalization with overlap
     ethr =  3.72E-04,  avg # of iterations =  4.0

     total cpu time spent up to now is        5.3 secs

     total energy              =    -501.23583165 Ry
     estimated scf accuracy    <       1.13210455 Ry

     iteration #  2     ecut=    30.00 Ry     beta= 0.50
     Davidson diagonalization with overlap
     ethr =  4.42E-04,  avg # of iterations =  5.0

     total cpu time spent up to now is        5.4 secs

     total energy              =    -500.79106323 Ry
     estimated scf accuracy    <       5.23296639 Ry

     iteration #  3     ecut=    30.00 Ry     beta= 0.50
     Davidson diagonalization with overlap
     ethr =  4.42E-04,  avg # of iterations =  4.0

     total cpu time spent up to now is        5.5 secs

     total energy              =    -501.27235470 Ry
     estimated scf accuracy    <       1.84314828 Ry

     iteration #  4     ecut=    30.00 Ry     beta= 0.50
     Davidson diagonalization with overlap
     ethr =  4.42E-04,  avg # of iterations =  2.0

     total cpu time spent up to now is        5.6 secs

     total energy              =    -501.38948873 Ry
     estimated scf accuracy    <       0.72177701 Ry

     iteration #  5     ecut=    30.00 Ry     beta= 0.50
     Davidson diagonalization with overlap
     ethr =  2.82E-04,  avg # of iterations =  2.0

     total cpu time spent up to now is        5.7 secs

     total energy              =    -501.42526067 Ry
     estimated scf accuracy    <       0.44109013 Ry

     iteration #  6     ecut=    30.00 Ry     beta= 0.50
     Davidson diagonalization with overlap
     ethr =  1.72E-04,  avg # of iterations =  2.0

     total cpu time spent up to now is        5.8 secs

     total energy              =    -501.46763970 Ry
     estimated scf accuracy    <       0.06939220 Ry

     iteration #  7     ecut=    30.00 Ry     beta= 0.50
     Davidson diagonalization with overlap
     ethr =  2.71E-05,  avg # of iterations =  2.0

     total cpu time spent up to now is        5.9 secs

     total energy              =    -501.47431510 Ry
     estimated scf accuracy    <       0.02403483 Ry

     iteration #  8     ecut=    30.00 Ry     beta= 0.50
     Davidson diagonalization with overlap
     ethr =  9.39E-06,  avg # of iterations =  9.0

     total cpu time spent up to now is        6.1 secs

     total energy              =    -501.47671070 Ry
     estimated scf accuracy    <       0.02049279 Ry

     iteration #  9     ecut=    30.00 Ry     beta= 0.50
     Davidson diagonalization with overlap
     ethr =  8.00E-06,  avg # of iterations =  2.0

     total cpu time spent up to now is        6.1 secs

     total energy              =    -501.47829826 Ry
     estimated scf accuracy    <       0.00126823 Ry

     iteration # 10     ecut=    30.00 Ry     beta= 0.50
     Davidson diagonalization with overlap
     ethr =  4.95E-07,  avg # of iterations =  8.0

     total cpu time spent up to now is        6.3 secs

     total energy              =    -501.47844131 Ry
     estimated scf accuracy    <       0.00179942 Ry

     iteration # 11     ecut=    30.00 Ry     beta= 0.50
     Davidson diagonalization with overlap
     ethr =  4.95E-07,  avg # of iterations =  3.0

     total cpu time spent up to now is        6.4 secs

     total energy              =    -501.47855770 Ry
     estimated scf accuracy    <       0.00072135 Ry

     iteration # 12     ecut=    30.00 Ry     beta= 0.50
     Davidson diagonalization with overlap
     ethr =  2.82E-07,  avg # of iterations =  2.0

     total cpu time spent up to now is        6.5 secs

     total energy              =    -501.47863026 Ry
     estimated scf accuracy    <       0.00020276 Ry

     iteration # 13     ecut=    30.00 Ry     beta= 0.50
     Davidson diagonalization with overlap
     ethr =  7.92E-08,  avg # of iterations =  2.0

     total cpu time spent up to now is        6.6 secs

     total energy              =    -501.47864706 Ry
     estimated scf accuracy    <       0.00005028 Ry

     iteration # 14     ecut=    30.00 Ry     beta= 0.50
     Davidson diagonalization with overlap
     ethr =  1.96E-08,  avg # of iterations =  2.0

     total cpu time spent up to now is        6.7 secs

     total energy              =    -501.47865216 Ry
     estimated scf accuracy    <       0.00001547 Ry

     iteration # 15     ecut=    30.00 Ry     beta= 0.50
     Davidson diagonalization with overlap
     ethr =  6.04E-09,  avg # of iterations =  3.0

     total cpu time spent up to now is        6.8 secs

     total energy              =    -501.47865342 Ry
     estimated scf accuracy    <       0.00001780 Ry

     iteration # 16     ecut=    30.00 Ry     beta= 0.50
     Davidson diagonalization with overlap
     ethr =  6.04E-09,  avg # of iterations =  2.0

     total cpu time spent up to now is        6.9 secs

     total energy              =    -501.47865484 Ry
     estimated scf accuracy    <       0.00000393 Ry

     iteration # 17     ecut=    30.00 Ry     beta= 0.50
     Davidson diagonalization with overlap
     ethr =  1.53E-09,  avg # of iterations =  2.0

     total cpu time spent up to now is        7.0 secs

     total energy              =    -501.47865513 Ry
     estimated scf accuracy    <       0.00000115 Ry

     iteration # 18     ecut=    30.00 Ry     beta= 0.50
     Davidson diagonalization with overlap
     ethr =  4.50E-10,  avg # of iterations =  3.0

     total cpu time spent up to now is        7.1 secs

     total energy              =    -501.47865522 Ry
     estimated scf accuracy    <       0.00000143 Ry

     iteration # 19     ecut=    30.00 Ry     beta= 0.50
     Davidson diagonalization with overlap
     ethr =  4.50E-10,  avg # of iterations =  2.0

     total cpu time spent up to now is        7.2 secs

     End of self-consistent calculation

          k = 0.0000 0.0000 0.0000 ( 11060 PWs)   bands (ev):

    -5.2118  -4.2656  -4.1523  -4.0584  -3.9800  -3.7872  -3.7003  -3.1744
    -3.0944  -3.0655  -2.9746  -2.8091  -2.7780  -2.7272  -2.6238  -2.5474
    -2.5289  -2.4540  -2.4042  -1.8835  -1.7056  -1.6495  -1.5161  -1.4729
    -1.3406  -1.2505  -1.1991  -0.7370  -0.6370  -0.6071  -0.5023  -0.3122
    -0.1298   0.0143   0.1571   0.3406   0.3870   0.4642   0.5521   0.6170
     0.6915   0.7411   0.7755   0.8388   1.0058   1.0426   1.1217   1.2086
     1.2569   1.3674   1.4203   1.4864   1.5236   1.6755   1.7371   1.9100
     1.9760   2.0327   2.1487   2.2147   2.3682   2.4174   2.5597   2.6254
     2.7148   2.8404   2.8654   2.9618   2.9966   3.1122   3.1371   3.1954
     3.2591   3.3618   3.3802   3.4395   3.4955   3.5548   3.7235   3.8294
     3.8814   4.3958   4.4696   4.5039   4.5511   4.6441   4.7253   4.8177
     4.9203   5.0874   5.1145   5.2088   5.3345   5.4325   5.5006   5.5221
     5.5599   5.6779   5.7085   5.7974   5.8124   5.8931   5.9268   5.9414
     6.0052   6.1102   6.1272   6.1817   6.2207   6.2715   6.2985   6.4441
     6.4790   6.5374   6.5661   6.6316   6.6785   6.7188   6.8151   6.8709
     6.9173   6.9591   7.0295   7.1335   7.1992   7.2458   7.2845   7.3186
     7.4021   7.4675   7.4980   7.5617   7.6036   7.6814   7.7556   7.8076
     7.8212   7.8916   7.9579   8.0682   8.0965   8.1761   8.2249   8.2417
     8.3440   8.4806   8.5397   8.5623   8.6442   8.7462   8.7831   8.8482
     8.8747   8.9608

     the Fermi energy is     7.3680 ev

!    total energy              =    -501.47865516 Ry
     estimated scf accuracy    <       0.00000025 Ry
     smearing contrib. (-TS)   =      -0.15657286 Ry
     internal energy E=F+TS    =    -501.32208230 Ry

     The total energy is F=E-TS. E is the sum of the following terms:
     one-electron contribution =     199.39446352 Ry
     hartree contribution      =      20.76030411 Ry
     xc contribution           =    -151.12372854 Ry
     ewald contribution        =    -570.35312139 Ry

     convergence has been achieved in  19 iterations

     Forces acting on atoms (cartesian axes, Ry/au):

     atom    1 type  1   force =    -0.01838373   -0.02550659   -0.01712015
     atom    2 type  1   force =    -0.00612511   -0.05951028   -0.01165580
     atom    3 type  1   force =    -0.03440587    0.05158549    0.01571188
     atom    4 type  1   force =     0.00156444    0.01722409   -0.00003135
     atom    5 type  1   force =     0.00550708    0.00165037    0.00390633
     atom    6 type  1   force =     0.00668435    0.01190910    0.00834012
     atom    7 type  1   force =    -0.00379677    0.00818019    0.00236901
     atom    8 type  1   force =    -0.01442250   -0.00606759   -0.03426647
     atom    9 type  1   force =     0.01336839    0.04521977    0.01240299
     atom   10 type  1   force =    -0.01203577   -0.00473184    0.00132414
     atom   11 type  1   force =     0.00267598   -0.00899039    0.01499556
     atom   12 type  1   force =     0.02312917    0.01432875    0.01871162
     atom   13 type  1   force =     0.00890166   -0.01437151   -0.00494303
     atom   14 type  1   force =    -0.03596187   -0.05806993   -0.03745862
     atom   15 type  1   force =     0.02454671    0.03596317    0.02862464
     atom   16 type  1   force =    -0.02611408   -0.00382822   -0.05490563
     atom   17 type  1   force =     0.00827503   -0.00703934    0.02764003
     atom   18 type  1   force =     0.00806290    0.01164928   -0.01153833
     atom   19 type  1   force =     0.00960302    0.00189637    0.00969112
     atom   20 type  1   force =    -0.03677695   -0.00800670   -0.01344353
     atom   21 type  1   force =     0.00902597   -0.03601594   -0.00248839
     atom   22 type  1   force =    -0.02072334    0.02143524    0.00616139
     atom   23 type  1   force =    -0.01142996   -0.01129599    0.02055611
     atom   24 type  1   force =     0.00329281   -0.01428867    0.01883952
     atom   25 type  1   force =     0.01567195    0.00139647    0.02196654
     atom   26 type  1   force =    -0.01285138    0.04826912    0.00830203
     atom   27 type  1   force =    -0.00323840   -0.00482922    0.03088915
     atom   28 type  1   force =     0.02534881   -0.01023273   -0.05332078
     atom   29 type  1   force =     0.03320562   -0.00474496    0.00285834
     atom   30 type  1   force =     0.02132948    0.00568447   -0.00428586
     atom   31 type  1   force =     0.00084149   -0.01330791    0.02178286
     atom   32 type  1   force =    -0.00132323    0.01008187   -0.00805147
     atom   33 type  1   force =    -0.01196719   -0.01238031   -0.01919019
     atom   34 type  1   force =    -0.00885145    0.01578497    0.03494220
     atom   35 type  1   force =    -0.02322168   -0.01953020    0.01232215
     atom   36 type  1   force =     0.01264979    0.01062434    0.01073312
     atom   37 type  1   force =     0.02082201    0.01072663    0.06449172
     atom   38 type  1   force =    -0.02022923    0.01247576   -0.01039226
     atom   39 type  1   force =     0.01924041   -0.02492863   -0.00207896
     atom   40 type  1   force =    -0.00718457    0.02113987   -0.00742003
     atom   41 type  1   force =    -0.01864528   -0.01630671    0.01274627
     atom   42 type  1   force =     0.01068452    0.02046697    0.00872550
     atom   43 type  1   force =    -0.04394723   -0.05798266   -0.04447549
     atom   44 type  1   force =     0.00364365    0.01872854    0.02841854
     atom   45 type  1   force =     0.01391428    0.00194689   -0.01534626
     atom   46 type  1   force =    -0.04233004   -0.01696954    0.04114025
     atom   47 type  1   force =    -0.02217521   -0.00219534   -0.00212886
     atom   48 type  1   force =     0.00562285    0.03530791    0.00166217
     atom   49 type  1   force =    -0.03092977    0.00645368   -0.03467417
     atom   50 type  1   force =     0.01615047    0.00366983   -0.05701521
     atom   51 type  1   force =     0.00316879   -0.02575594    0.01306348
     atom   52 type  1   force =     0.00101641   -0.00371566    0.01120709
     atom   53 type  1   force =     0.00568555    0.02308518    0.01407785
     atom   54 type  1   force =     0.00904781    0.01486724   -0.00335848
     atom   55 type  1   force =     0.03171418    0.02662225   -0.00725625
     atom   56 type  1   force =     0.01368187   -0.04316118    0.02180837
     atom   57 type  1   force =    -0.00598494   -0.00682875   -0.01970941
     atom   58 type  1   force =    -0.00664795    0.01036313   -0.00961529
     atom   59 type  1   force =     0.02413632   -0.01398157    0.00222086
     atom   60 type  1   force =     0.01167114    0.04228645   -0.03565417
     atom   61 type  1   force =     0.02913485   -0.02627031   -0.02201594
     atom   62 type  1   force =     0.02492619    0.02373793   -0.00218263
     atom   63 type  1   force =     0.01792581   -0.02720313   -0.02219571
     atom   64 type  1   force =    -0.01616829    0.00328643    0.01558578

     Total force =     0.305493     Total SCF correction =     0.000975


     Computing stress (Cartesian axis) and pressure

          total   stress  (Ry/bohr**3)                   (kbar)     P=      -32.00
  -0.00022443  -0.00001597  -0.00005277          -33.01       -2.35       -7.76
  -0.00001597  -0.00024111   0.00000592           -2.35      -35.47        0.87
  -0.00005277   0.00000592  -0.00018696           -7.76        0.87      -27.50

 
     init_run     :      1.09s CPU      4.93s WALL (       1 calls)
     electrons    :      2.02s CPU      2.16s WALL (       1 calls)
     forces       :      0.03s CPU      0.04s WALL (       1 calls)
     stress       :      0.15s CPU      0.15s WALL (       1 calls)

     Called by init_run:
     wfcinit      :      0.55s CPU      4.21s WALL (       1 calls)
                                        4.21s GPU  (       1 calls)
     potinit      :      0.05s CPU      0.15s WALL (       1 calls)
     hinit0       :      0.47s CPU      0.50s WALL (       1 calls)

     Called by electrons:
     c_bands      :      1.19s CPU      1.25s WALL (      20 calls)
     sum_band     :      0.42s CPU      0.46s WALL (      20 calls)
     v_of_rho     :      0.19s CPU      0.30s WALL (      20 calls)
     mix_rho      :      0.18s CPU      0.20s WALL (      20 calls)

     Called by c_bands:
     init_us_2    :      0.07s CPU      0.08s WALL (      41 calls)
     init_us_2:gp :      0.07s CPU      0.08s WALL (      41 calls)
     regterg      :      1.01s CPU      1.06s WALL (      20 calls)

     Called by *egterg:
     rdiaghg      :      0.42s CPU      1.17s WALL (      83 calls)
                                        1.15s GPU  (      83 calls)
     h_psi        :      0.96s CPU      3.91s WALL (      85 calls)
                                        3.91s GPU  (      85 calls)
     g_psi        :      0.00s CPU      0.00s WALL (      64 calls)
                                        0.00s GPU  (      64 calls)

     Called by h_psi:
     h_psi:calbec :      0.51s CPU      3.39s WALL (      85 calls)
                                        3.39s GPU  (      85 calls)
     vloc_psi     :      0.39s CPU      0.46s WALL (      85 calls)
                                        0.46s GPU  (      85 calls)
     add_vuspsi   :      0.03s CPU      0.05s WALL (      85 calls)
                                        0.05s GPU  (      85 calls)

     General routines
     calbec       :      0.52s CPU      3.39s WALL (      90 calls)
     fft          :      0.63s CPU      0.77s WALL (     167 calls)
                                        0.14s GPU  (     106 calls)
     ffts         :      0.05s CPU      0.05s WALL (      20 calls)
     fftw         :      0.49s CPU      0.64s WALL (    2096 calls)
                                        0.55s GPU  (    2096 calls)
 
     Parallel routines
 
     PWSCF        :      3.34s CPU      7.36s WALL

 
   This run was terminated on:  10:41:31  10May2023            

=------------------------------------------------------------------------------=
   JOB DONE.
=------------------------------------------------------------------------------=
