An instance of this daemon is already running
An instance of this daemon is already running

     Program PWSCF v.7.1 starts on 10May2023 at 10:52:53 

     This program is part of the open-source Quantum ESPRESSO suite
     for quantum simulation of materials; please cite
         "P. Giannozzi et al., J. Phys.:Condens. Matter 21 395502 (2009);
         "P. Giannozzi et al., J. Phys.:Condens. Matter 29 465901 (2017);
         "P. Giannozzi et al., J. Chem. Phys. 152 154105 (2020);
          URL http://www.quantum-espresso.org", 
     in publications or presentations arising from this work. More details at
     http://www.quantum-espresso.org/quote

     Parallel version (MPI & OpenMP), running on       4 processor cores
     Number of MPI processes:                 4
     Threads/MPI process:                     1

     MPI processes distributed on     1 nodes
     753553 MiB available memory on the printing compute node when the environment starts
 
     Reading input from pw-si-95.in
Warning: card &CELL ignored
Warning: card / ignored

     Current dimensions of program PWSCF are:
     Max number of different atomic species (ntypx) = 10
     Max number of k-points (npk) =  40000
     Max angular momentum in pseudopotentials (lmaxx) =  4

     IMPORTANT: XC functional enforced from input :
     Exchange-correlation= PBE
                           (   1   4   3   4   0   0   0)
     Any further DFT definition will be discarded
     Please, verify this is what you really want


     gamma-point specific algorithms are used
 
     K-points division:     npool     =       2
     R & G space division:  proc/nbgrp/npool/nimage =       2
     Subspace diagonalization in iterative solution of the eigenvalue problem:
     a serial algorithm will be used

     Message from routine divide_et_impera:
     suboptimal parallelization: some nodes have no k-points
 
     Parallelization info
     --------------------
     sticks:   dense  smooth     PW     G-vecs:    dense   smooth      PW
     Min        1929    1929    515                90123    90123   12286
     Max        1932    1932    518                90128    90128   12287
     Sum        3861    3861   1033               180251   180251   24573
 
     Using Slab Decomposition
 


     bravais-lattice index     =            0
     lattice parameter (alat)  =      20.1070  a.u.
     unit-cell volume          =    8129.0844 (a.u.)^3
     number of atoms/cell      =           64
     number of atomic types    =            1
     number of electrons       =       256.00
     number of Kohn-Sham states=          154
     kinetic-energy cutoff     =      30.0000  Ry
     charge density cutoff     =     120.0000  Ry
     scf convergence threshold =      1.0E-06
     mixing beta               =       0.5000
     number of iterations used =            8  plain     mixing
     Exchange-correlation= PBE
                           (   1   4   3   4   0   0   0)

     GPU acceleration is ACTIVE.
     GPU-aware MPI enabled

     Message from routine print_cuda_info:
     High GPU oversubscription detected. Are you sure this is what you want?

     celldm(1)=  20.106997  celldm(2)=   0.000000  celldm(3)=   0.000000
     celldm(4)=   0.000000  celldm(5)=   0.000000  celldm(6)=   0.000000

     crystal axes: (cart. coord. in units of alat)
               a(1) = (   1.000000   0.000000   0.000000 )  
               a(2) = (   0.000000   1.000000   0.000000 )  
               a(3) = (   0.000000   0.000000   1.000000 )  

     reciprocal axes: (cart. coord. in units 2 pi/alat)
               b(1) = (  1.000000  0.000000  0.000000 )  
               b(2) = (  0.000000  1.000000  0.000000 )  
               b(3) = (  0.000000  0.000000  1.000000 )  


     PseudoPot. # 1 for Si read from file:
     /home/ppiaggi/pseudos/Si_ONCV_PBE_sr.upf
     MD5 check sum: 8553c464762ac42b85b1eed164b4d029
     Pseudo is Norm-conserving, Zval =  4.0
     Generated using ONCVPSP code by D. R. Hamann
     Using radial grid of 1510 points,  4 beta functions with: 
                l(1) =   0
                l(2) =   0
                l(3) =   1
                l(4) =   1

     atomic species   valence    mass     pseudopotential
        Si             4.00    28.08500     Si( 1.00)

     No symmetry found



   Cartesian axes

     site n.     atom                  positions (alat units)
         1           Si  tau(   1) = (   0.1047730   0.4966600   0.7533650  )
         2           Si  tau(   2) = (   0.3035780   0.5993990   0.6919840  )
         3           Si  tau(   3) = (   0.5279820   0.8813710   0.8326100  )
         4           Si  tau(   4) = (   0.7291470   0.5125310   0.8775290  )
         5           Si  tau(   5) = (   0.9907300   0.5200600   0.4254660  )
         6           Si  tau(   6) = (   0.9607220   0.2754820   0.4778490  )
         7           Si  tau(   7) = (   0.6855150   0.2839040   0.4574490  )
         8           Si  tau(   8) = (   0.6725040   0.8336800   0.6767040  )
         9           Si  tau(   9) = (   0.1454150   0.5997920   0.2601000  )
        10           Si  tau(  10) = (   0.0815283   0.3073380   0.2326130  )
        11           Si  tau(  11) = (   0.3292950   0.4558460   0.2408360  )
        12           Si  tau(  12) = (   0.1584080   0.7869510   0.6935690  )
        13           Si  tau(  13) = (   0.9948070   0.7875360   0.5363360  )
        14           Si  tau(  14) = (   0.9307690   0.9473440   0.2232330  )
        15           Si  tau(  15) = (   0.5930530   0.6991590   0.5121940  )
        16           Si  tau(  16) = (   0.3284770   0.9172010   0.7178860  )
        17           Si  tau(  17) = (   0.0898803   0.0901793   0.3964520  )
        18           Si  tau(  18) = (   0.8866560   0.4406330   0.0337404  )
        19           Si  tau(  19) = (   0.1657000   0.8631150   0.4057440  )
        20           Si  tau(  20) = (   0.0604138   0.0643595   0.7385510  )
        21           Si  tau(  21) = (   0.2040510   0.4236070   0.4696680  )
        22           Si  tau(  22) = (   0.8402420   0.0412846   0.6656120  )
        23           Si  tau(  23) = (   0.5572370   0.7004120   0.0062078  )
        24           Si  tau(  24) = (   0.5298200   0.9978410   0.4644940  )
        25           Si  tau(  25) = (   0.2666320   0.1806060   0.1466600  )
        26           Si  tau(  26) = (   0.6378590   0.5739230   0.2745670  )
        27           Si  tau(  27) = (   0.8758150   0.9577910   0.8903430  )
        28           Si  tau(  28) = (   0.4135860   0.2323180   0.8832730  )
        29           Si  tau(  29) = (   0.4375650   0.5189740   0.5204940  )
        30           Si  tau(  30) = (   0.5170350   0.3685810   0.3646000  )
        31           Si  tau(  31) = (   0.9193240   0.6010060   0.6608820  )
        32           Si  tau(  32) = (   0.7856620   0.7163980   0.8328770  )
        33           Si  tau(  33) = (   0.3942680   0.8353570   0.5227220  )
        34           Si  tau(  34) = (   0.5554410   0.4772050   0.0914652  )
        35           Si  tau(  35) = (   0.2024730   0.0322149   0.9438560  )
        36           Si  tau(  36) = (   0.0866798   0.6088750   0.0170883  )
        37           Si  tau(  37) = (   0.5141890   0.2399160   0.1208440  )
        38           Si  tau(  38) = (   0.3036410   0.8432800   0.0181698  )
        39           Si  tau(  39) = (   0.6098040   0.9846890   0.1377260  )
        40           Si  tau(  40) = (   0.6015970   0.1078050   0.6446600  )
        41           Si  tau(  41) = (   0.7884830   0.3759030   0.6577550  )
        42           Si  tau(  42) = (   0.9839930   0.1089870   0.0829776  )
        43           Si  tau(  43) = (   0.2451800   0.4065200   0.9988700  )
        44           Si  tau(  44) = (   0.4422950   0.8137480   0.1702590  )
        45           Si  tau(  45) = (   0.8853430   0.9569660   0.4625160  )
        46           Si  tau(  46) = (   0.3648920   0.7010680   0.3312220  )
        47           Si  tau(  47) = (   0.7005980   0.8204630   0.3506710  )
        48           Si  tau(  48) = (   0.3256610   0.1560340   0.6752530  )
        49           Si  tau(  49) = (   0.8644030   0.6772780   0.2012710  )
        50           Si  tau(  50) = (   0.7138540   0.0987740   0.3051710  )
        51           Si  tau(  51) = (   0.1189610   0.2744820   0.6596830  )
        52           Si  tau(  52) = (   0.5355490   0.3331400   0.6510990  )
        53           Si  tau(  53) = (   0.3432900   0.0284082   0.2882430  )
        54           Si  tau(  54) = (   0.7894260   0.2185370   0.8381460  )
        55           Si  tau(  55) = (   0.3417390   0.1875330   0.4639020  )
        56           Si  tau(  56) = (   0.7648060   0.2361800   0.0869806  )
        57           Si  tau(  57) = (   0.7617420   0.8142550   0.0580287  )
        58           Si  tau(  58) = (   0.5184270   0.4576600   0.8531070  )
        59           Si  tau(  59) = (   0.5893650   0.0920412   0.9032750  )
        60           Si  tau(  60) = (   0.3309360   0.6189410   0.9095690  )
        61           Si  tau(  61) = (   0.1174640   0.8085130   0.1476910  )
        62           Si  tau(  62) = (   0.0446098   0.2656240   0.8906900  )
        63           Si  tau(  63) = (   0.8251580   0.4069720   0.2932270  )
        64           Si  tau(  64) = (   0.0437780   0.7962600   0.8778660  )

     number of k points=     1  Fermi-Dirac smearing, width (Ry)=  0.0100
                       cart. coord. in units 2pi/alat
        k(    1) = (   0.0000000   0.0000000   0.0000000), wk =   2.0000000

     Dense  grid:    90126 G-vectors     FFT dimensions: (  72,  72,  72)

     Estimated max dynamical RAM per process >     144.88 MB

     Estimated total dynamical RAM >     557.54 MB

     Initial potential from superposition of free atoms

     starting charge     255.9608, renormalised to     256.0000
     Starting wfcs are  256 randomized atomic wfcs

     total cpu time spent up to now is        5.0 secs

     Self-consistent Calculation

     iteration #  1     ecut=    30.00 Ry     beta= 0.50
     Davidson diagonalization with overlap
     ethr =  1.00E-02,  avg # of iterations =  3.0

     Threshold (ethr) on eigenvalues was too large:
     Diagonalizing with lowered threshold

     Davidson diagonalization with overlap
     ethr =  4.11E-04,  avg # of iterations =  4.0

     total cpu time spent up to now is        5.3 secs

     total energy              =    -501.01207201 Ry
     estimated scf accuracy    <       1.27826090 Ry

     iteration #  2     ecut=    30.00 Ry     beta= 0.50
     Davidson diagonalization with overlap
     ethr =  4.99E-04,  avg # of iterations =  5.0

     total cpu time spent up to now is        5.4 secs

     total energy              =    -500.17450666 Ry
     estimated scf accuracy    <      13.15165781 Ry

     iteration #  3     ecut=    30.00 Ry     beta= 0.50
     Davidson diagonalization with overlap
     ethr =  4.99E-04,  avg # of iterations =  4.0

     total cpu time spent up to now is        5.5 secs

     total energy              =    -501.25524610 Ry
     estimated scf accuracy    <       0.94529139 Ry

     iteration #  4     ecut=    30.00 Ry     beta= 0.50
     Davidson diagonalization with overlap
     ethr =  3.69E-04,  avg # of iterations =  2.0

     total cpu time spent up to now is        5.6 secs

     total energy              =    -501.29902954 Ry
     estimated scf accuracy    <       0.67486126 Ry

     iteration #  5     ecut=    30.00 Ry     beta= 0.50
     Davidson diagonalization with overlap
     ethr =  2.64E-04,  avg # of iterations =  2.0

     total cpu time spent up to now is        5.7 secs

     total energy              =    -501.33455382 Ry
     estimated scf accuracy    <       0.44877082 Ry

     iteration #  6     ecut=    30.00 Ry     beta= 0.50
     Davidson diagonalization with overlap
     ethr =  1.75E-04,  avg # of iterations =  2.0

     total cpu time spent up to now is        5.8 secs

     total energy              =    -501.37494846 Ry
     estimated scf accuracy    <       0.05766550 Ry

     iteration #  7     ecut=    30.00 Ry     beta= 0.50
     Davidson diagonalization with overlap
     ethr =  2.25E-05,  avg # of iterations = 10.0

     total cpu time spent up to now is        6.0 secs

     total energy              =    -501.38090990 Ry
     estimated scf accuracy    <       0.03117497 Ry

     iteration #  8     ecut=    30.00 Ry     beta= 0.50
     Davidson diagonalization with overlap
     ethr =  1.22E-05,  avg # of iterations =  2.0

     total cpu time spent up to now is        6.1 secs

     total energy              =    -501.38390374 Ry
     estimated scf accuracy    <       0.01792206 Ry

     iteration #  9     ecut=    30.00 Ry     beta= 0.50
     Davidson diagonalization with overlap
     ethr =  7.00E-06,  avg # of iterations =  3.0

     total cpu time spent up to now is        6.1 secs

     total energy              =    -501.38529041 Ry
     estimated scf accuracy    <       0.00215472 Ry

     iteration # 10     ecut=    30.00 Ry     beta= 0.50
     Davidson diagonalization with overlap
     ethr =  8.42E-07,  avg # of iterations =  9.0

     total cpu time spent up to now is        6.3 secs

     total energy              =    -501.38548272 Ry
     estimated scf accuracy    <       0.00229241 Ry

     iteration # 11     ecut=    30.00 Ry     beta= 0.50
     Davidson diagonalization with overlap
     ethr =  8.42E-07,  avg # of iterations =  2.0

     total cpu time spent up to now is        6.4 secs

     total energy              =    -501.38564090 Ry
     estimated scf accuracy    <       0.00047804 Ry

     iteration # 12     ecut=    30.00 Ry     beta= 0.50
     Davidson diagonalization with overlap
     ethr =  1.87E-07,  avg # of iterations =  3.0

     total cpu time spent up to now is        6.5 secs

     total energy              =    -501.38568896 Ry
     estimated scf accuracy    <       0.00048668 Ry

     iteration # 13     ecut=    30.00 Ry     beta= 0.50
     Davidson diagonalization with overlap
     ethr =  1.87E-07,  avg # of iterations =  2.0

     total cpu time spent up to now is        6.6 secs

     total energy              =    -501.38571563 Ry
     estimated scf accuracy    <       0.00022913 Ry

     iteration # 14     ecut=    30.00 Ry     beta= 0.50
     Davidson diagonalization with overlap
     ethr =  8.95E-08,  avg # of iterations =  2.0

     total cpu time spent up to now is        6.7 secs

     total energy              =    -501.38573456 Ry
     estimated scf accuracy    <       0.00002451 Ry

     iteration # 15     ecut=    30.00 Ry     beta= 0.50
     Davidson diagonalization with overlap
     ethr =  9.58E-09,  avg # of iterations =  3.0

     total cpu time spent up to now is        6.8 secs

     total energy              =    -501.38573869 Ry
     estimated scf accuracy    <       0.00001612 Ry

     iteration # 16     ecut=    30.00 Ry     beta= 0.50
     Davidson diagonalization with overlap
     ethr =  6.30E-09,  avg # of iterations =  2.0

     total cpu time spent up to now is        6.9 secs

     total energy              =    -501.38573972 Ry
     estimated scf accuracy    <       0.00001212 Ry

     iteration # 17     ecut=    30.00 Ry     beta= 0.50
     Davidson diagonalization with overlap
     ethr =  4.73E-09,  avg # of iterations =  2.0

     total cpu time spent up to now is        7.0 secs

     total energy              =    -501.38574043 Ry
     estimated scf accuracy    <       0.00000395 Ry

     iteration # 18     ecut=    30.00 Ry     beta= 0.50
     Davidson diagonalization with overlap
     ethr =  1.54E-09,  avg # of iterations =  2.0

     total cpu time spent up to now is        7.1 secs

     total energy              =    -501.38574076 Ry
     estimated scf accuracy    <       0.00000293 Ry

     iteration # 19     ecut=    30.00 Ry     beta= 0.50
     Davidson diagonalization with overlap
     ethr =  1.14E-09,  avg # of iterations =  1.0

     total cpu time spent up to now is        7.2 secs

     End of self-consistent calculation

          k = 0.0000 0.0000 0.0000 ( 11324 PWs)   bands (ev):

    -5.2590  -4.2756  -4.2115  -4.1317  -4.0732  -3.9633  -3.7597  -3.3030
    -3.2426  -3.1152  -3.0575  -3.0140  -2.8986  -2.8671  -2.8338  -2.7102
    -2.6120  -2.4688  -2.2789  -2.0138  -1.9499  -1.8798  -1.7451  -1.5259
    -1.5174  -1.3873  -1.0070  -0.8844  -0.7674  -0.6694  -0.4803  -0.3751
    -0.1456  -0.0418   0.0092   0.1222   0.2211   0.2732   0.3412   0.3628
     0.3862   0.5754   0.6105   0.6199   0.7388   0.8556   0.8806   0.9720
     1.0916   1.1378   1.2636   1.2944   1.4071   1.5407   1.6040   1.6987
     1.9547   2.0092   2.0993   2.1183   2.2020   2.3031   2.3361   2.5089
     2.5416   2.6560   2.7158   2.7328   2.7937   2.8341   2.9642   3.0534
     3.0916   3.2029   3.2666   3.2815   3.4068   3.4957   3.6375   3.7416
     3.8697   4.1826   4.2120   4.4672   4.5098   4.6493   4.7192   4.7520
     4.7697   4.8577   4.8773   5.0383   5.0615   5.2709   5.3038   5.3826
     5.3989   5.4756   5.5150   5.5592   5.6094   5.7275   5.7787   5.8077
     5.8653   5.8928   5.9274   5.9821   6.0003   6.0123   6.0939   6.1757
     6.2502   6.3203   6.3883   6.4403   6.5270   6.5775   6.5994   6.6524
     6.6983   6.7434   6.8073   6.9031   6.9436   6.9686   6.9853   7.0977
     7.1710   7.1897   7.2814   7.3336   7.3620   7.4716   7.5158   7.5438
     7.5900   7.7171   7.8056   7.8542   7.9153   7.9596   8.0678   8.0893
     8.1199   8.2112   8.2805   8.3400   8.3903   8.5322   8.5653   8.6039
     8.6161   8.6984

     the Fermi energy is     7.1256 ev

!    total energy              =    -501.38574054 Ry
     estimated scf accuracy    <       0.00000051 Ry
     smearing contrib. (-TS)   =      -0.15509015 Ry
     internal energy E=F+TS    =    -501.23065039 Ry

     The total energy is F=E-TS. E is the sum of the following terms:
     one-electron contribution =     196.06084201 Ry
     hartree contribution      =      20.47268434 Ry
     xc contribution           =    -150.34072937 Ry
     ewald contribution        =    -567.42344738 Ry

     convergence has been achieved in  19 iterations

     Forces acting on atoms (cartesian axes, Ry/au):

     atom    1 type  1   force =     0.00489251   -0.01467780   -0.00901417
     atom    2 type  1   force =    -0.02894168    0.02483539   -0.00534045
     atom    3 type  1   force =    -0.03720868    0.00070393    0.01653690
     atom    4 type  1   force =     0.00147458   -0.01580365    0.01002492
     atom    5 type  1   force =     0.00119899   -0.00521970   -0.00879504
     atom    6 type  1   force =     0.00707136    0.00399578    0.00187976
     atom    7 type  1   force =     0.05104166   -0.03687244    0.02154898
     atom    8 type  1   force =     0.02404811    0.01382340   -0.00213471
     atom    9 type  1   force =     0.00571627    0.01006372   -0.00840884
     atom   10 type  1   force =     0.00902110   -0.03103736    0.01206768
     atom   11 type  1   force =    -0.00530790   -0.01070763   -0.01154377
     atom   12 type  1   force =     0.01027152   -0.02282401   -0.01095802
     atom   13 type  1   force =     0.03063675   -0.04138222    0.01898546
     atom   14 type  1   force =     0.02115042   -0.03200710    0.01245837
     atom   15 type  1   force =    -0.03435928    0.00077886   -0.00827507
     atom   16 type  1   force =     0.03138679    0.04522812    0.00988702
     atom   17 type  1   force =     0.00719202   -0.00027166   -0.01186028
     atom   18 type  1   force =     0.00089454   -0.01137679    0.01284170
     atom   19 type  1   force =     0.03873754    0.00854773   -0.04145709
     atom   20 type  1   force =     0.01276076    0.00378370    0.02178202
     atom   21 type  1   force =     0.01434124   -0.01781991   -0.00424310
     atom   22 type  1   force =    -0.05113088   -0.00868818    0.02094672
     atom   23 type  1   force =    -0.00499431    0.01233052   -0.02206123
     atom   24 type  1   force =    -0.00550310    0.01550291   -0.03507045
     atom   25 type  1   force =    -0.01640970    0.02153501   -0.02645999
     atom   26 type  1   force =     0.02166147   -0.00548742   -0.00096254
     atom   27 type  1   force =     0.01034920   -0.01482581    0.02143815
     atom   28 type  1   force =    -0.00924051    0.02023128   -0.00750123
     atom   29 type  1   force =    -0.00766348    0.01662662   -0.00960765
     atom   30 type  1   force =    -0.07589683    0.01653677   -0.03921420
     atom   31 type  1   force =    -0.00107496   -0.01637702   -0.00381424
     atom   32 type  1   force =     0.04872103    0.02448734   -0.00801579
     atom   33 type  1   force =     0.00335264   -0.01685026   -0.01057648
     atom   34 type  1   force =    -0.00924905   -0.00680781    0.00470539
     atom   35 type  1   force =    -0.02075234    0.01290907    0.01711422
     atom   36 type  1   force =    -0.01031484   -0.01299696    0.00097804
     atom   37 type  1   force =     0.00949454    0.02027397    0.01823307
     atom   38 type  1   force =    -0.05886923   -0.00415607   -0.04253754
     atom   39 type  1   force =     0.00929701   -0.03872966    0.00274672
     atom   40 type  1   force =     0.02634074    0.01739188    0.00834183
     atom   41 type  1   force =    -0.02073216    0.01217820    0.02364888
     atom   42 type  1   force =     0.00214718    0.01178050   -0.02459866
     atom   43 type  1   force =     0.00982656    0.00937458    0.01047052
     atom   44 type  1   force =     0.07833934    0.04753390    0.00929443
     atom   45 type  1   force =    -0.02667765    0.02294193   -0.03768642
     atom   46 type  1   force =    -0.02682114   -0.05917424    0.05230038
     atom   47 type  1   force =     0.00915063    0.00662331   -0.01396102
     atom   48 type  1   force =    -0.01112565   -0.01860350    0.03138644
     atom   49 type  1   force =    -0.01478525    0.00598566    0.02192406
     atom   50 type  1   force =    -0.01000301   -0.01021576    0.00985951
     atom   51 type  1   force =     0.01102089    0.01688036   -0.01858191
     atom   52 type  1   force =     0.02690634   -0.00458139    0.00335657
     atom   53 type  1   force =     0.00747707   -0.02789210    0.03610256
     atom   54 type  1   force =     0.01525529   -0.01067584   -0.00531433
     atom   55 type  1   force =     0.00116892    0.02241657   -0.04334968
     atom   56 type  1   force =     0.01689670    0.01251309    0.00197605
     atom   57 type  1   force =    -0.01621465    0.03421464   -0.02514033
     atom   58 type  1   force =    -0.02496417   -0.01082887   -0.00246753
     atom   59 type  1   force =     0.01135711   -0.00725860    0.00320985
     atom   60 type  1   force =     0.02295654   -0.00247713    0.01493602
     atom   61 type  1   force =    -0.01473429    0.01078057    0.02106096
     atom   62 type  1   force =    -0.03446464    0.01104709    0.00345416
     atom   63 type  1   force =     0.00884402    0.01128555   -0.00835915
     atom   64 type  1   force =    -0.04495998   -0.00851506    0.03181355

     Total force =     0.308511     Total SCF correction =     0.001424


     Computing stress (Cartesian axis) and pressure

          total   stress  (Ry/bohr**3)                   (kbar)     P=      -43.69
  -0.00026976   0.00000852   0.00000204          -39.68        1.25        0.30
   0.00000852  -0.00037714  -0.00006694            1.25      -55.48       -9.85
   0.00000204  -0.00006694  -0.00024419            0.30       -9.85      -35.92

 
     init_run     :      1.07s CPU      4.94s WALL (       1 calls)
     electrons    :      1.99s CPU      2.14s WALL (       1 calls)
     forces       :      0.03s CPU      0.04s WALL (       1 calls)
     stress       :      0.15s CPU      0.16s WALL (       1 calls)

     Called by init_run:
     wfcinit      :      0.53s CPU      4.22s WALL (       1 calls)
                                        4.22s GPU  (       1 calls)
     potinit      :      0.05s CPU      0.15s WALL (       1 calls)
     hinit0       :      0.46s CPU      0.50s WALL (       1 calls)

     Called by electrons:
     c_bands      :      1.16s CPU      1.24s WALL (      20 calls)
     sum_band     :      0.40s CPU      0.45s WALL (      20 calls)
     v_of_rho     :      0.19s CPU      0.30s WALL (      20 calls)
     mix_rho      :      0.19s CPU      0.20s WALL (      20 calls)

     Called by c_bands:
     init_us_2    :      0.07s CPU      0.08s WALL (      41 calls)
     init_us_2:gp :      0.07s CPU      0.08s WALL (      41 calls)
     regterg      :      0.99s CPU      1.06s WALL (      20 calls)

     Called by *egterg:
     rdiaghg      :      0.40s CPU      1.16s WALL (      84 calls)
                                        1.15s GPU  (      84 calls)
     h_psi        :      0.94s CPU      3.91s WALL (      86 calls)
                                        3.91s GPU  (      86 calls)
     g_psi        :      0.00s CPU      0.00s WALL (      65 calls)
                                        0.00s GPU  (      65 calls)

     Called by h_psi:
     h_psi:calbec :      0.49s CPU      3.39s WALL (      86 calls)
                                        3.39s GPU  (      86 calls)
     vloc_psi     :      0.39s CPU      0.47s WALL (      86 calls)
                                        0.46s GPU  (      86 calls)
     add_vuspsi   :      0.03s CPU      0.05s WALL (      86 calls)
                                        0.05s GPU  (      86 calls)

     General routines
     calbec       :      0.50s CPU      3.39s WALL (      91 calls)
     fft          :      0.63s CPU      0.77s WALL (     167 calls)
                                        0.14s GPU  (     106 calls)
     ffts         :      0.05s CPU      0.05s WALL (      20 calls)
     fftw         :      0.48s CPU      0.62s WALL (    2096 calls)
                                        0.54s GPU  (    2096 calls)
 
     Parallel routines
 
     PWSCF        :      3.28s CPU      7.36s WALL

 
   This run was terminated on:  10:53: 1  10May2023            

=------------------------------------------------------------------------------=
   JOB DONE.
=------------------------------------------------------------------------------=
