An instance of this daemon is already running
An instance of this daemon is already running

     Program PWSCF v.7.1 starts on 10May2023 at 10:39:36 

     This program is part of the open-source Quantum ESPRESSO suite
     for quantum simulation of materials; please cite
         "P. Giannozzi et al., J. Phys.:Condens. Matter 21 395502 (2009);
         "P. Giannozzi et al., J. Phys.:Condens. Matter 29 465901 (2017);
         "P. Giannozzi et al., J. Chem. Phys. 152 154105 (2020);
          URL http://www.quantum-espresso.org", 
     in publications or presentations arising from this work. More details at
     http://www.quantum-espresso.org/quote

     Parallel version (MPI & OpenMP), running on       4 processor cores
     Number of MPI processes:                 4
     Threads/MPI process:                     1

     MPI processes distributed on     1 nodes
     753568 MiB available memory on the printing compute node when the environment starts
 
     Reading input from pw-si-13.in
Warning: card &CELL ignored
Warning: card / ignored

     Current dimensions of program PWSCF are:
     Max number of different atomic species (ntypx) = 10
     Max number of k-points (npk) =  40000
     Max angular momentum in pseudopotentials (lmaxx) =  4

     IMPORTANT: XC functional enforced from input :
     Exchange-correlation= PBE
                           (   1   4   3   4   0   0   0)
     Any further DFT definition will be discarded
     Please, verify this is what you really want


     gamma-point specific algorithms are used
 
     K-points division:     npool     =       2
     R & G space division:  proc/nbgrp/npool/nimage =       2
     Subspace diagonalization in iterative solution of the eigenvalue problem:
     a serial algorithm will be used

     Message from routine divide_et_impera:
     suboptimal parallelization: some nodes have no k-points
 
     Parallelization info
     --------------------
     sticks:   dense  smooth     PW     G-vecs:    dense   smooth      PW
     Min        1930    1930    504                90041    90041   12201
     Max        1931    1931    505                90042    90042   12204
     Sum        3861    3861   1009               180083   180083   24405
 
     Using Slab Decomposition
 


     bravais-lattice index     =            0
     lattice parameter (alat)  =      20.0903  a.u.
     unit-cell volume          =    8108.8167 (a.u.)^3
     number of atoms/cell      =           64
     number of atomic types    =            1
     number of electrons       =       256.00
     number of Kohn-Sham states=          154
     kinetic-energy cutoff     =      30.0000  Ry
     charge density cutoff     =     120.0000  Ry
     scf convergence threshold =      1.0E-06
     mixing beta               =       0.5000
     number of iterations used =            8  plain     mixing
     Exchange-correlation= PBE
                           (   1   4   3   4   0   0   0)

     GPU acceleration is ACTIVE.
     GPU-aware MPI enabled

     Message from routine print_cuda_info:
     High GPU oversubscription detected. Are you sure this is what you want?

     celldm(1)=  20.090273  celldm(2)=   0.000000  celldm(3)=   0.000000
     celldm(4)=   0.000000  celldm(5)=   0.000000  celldm(6)=   0.000000

     crystal axes: (cart. coord. in units of alat)
               a(1) = (   1.000000   0.000000   0.000000 )  
               a(2) = (   0.000000   1.000000   0.000000 )  
               a(3) = (   0.000000   0.000000   1.000000 )  

     reciprocal axes: (cart. coord. in units 2 pi/alat)
               b(1) = (  1.000000  0.000000  0.000000 )  
               b(2) = (  0.000000  1.000000  0.000000 )  
               b(3) = (  0.000000  0.000000  1.000000 )  


     PseudoPot. # 1 for Si read from file:
     /home/ppiaggi/pseudos/Si_ONCV_PBE_sr.upf
     MD5 check sum: 8553c464762ac42b85b1eed164b4d029
     Pseudo is Norm-conserving, Zval =  4.0
     Generated using ONCVPSP code by D. R. Hamann
     Using radial grid of 1510 points,  4 beta functions with: 
                l(1) =   0
                l(2) =   0
                l(3) =   1
                l(4) =   1

     atomic species   valence    mass     pseudopotential
        Si             4.00    28.08500     Si( 1.00)

     No symmetry found



   Cartesian axes

     site n.     atom                  positions (alat units)
         1           Si  tau(   1) = (   0.5212800   0.8314740   0.1057380  )
         2           Si  tau(   2) = (   0.4916900   0.6267020   0.1794420  )
         3           Si  tau(   3) = (   0.9162250   0.0207452   0.3905730  )
         4           Si  tau(   4) = (   0.2160380   0.7485860   0.9995810  )
         5           Si  tau(   5) = (   0.3369020   0.5512680   0.0240009  )
         6           Si  tau(   6) = (   0.6883510   0.6854710   0.4548040  )
         7           Si  tau(   7) = (   0.6037120   0.5591570   0.8279540  )
         8           Si  tau(   8) = (   0.9647350   0.5183580   0.3945950  )
         9           Si  tau(   9) = (   0.0890510   0.1466690   0.0408103  )
        10           Si  tau(  10) = (   0.2210250   0.9162680   0.8524890  )
        11           Si  tau(  11) = (   0.3834430   0.6595600   0.3789880  )
        12           Si  tau(  12) = (   0.4903000   0.6692490   0.5806840  )
        13           Si  tau(  13) = (   0.7382560   0.9320660   0.5075860  )
        14           Si  tau(  14) = (   0.4179970   0.9849460   0.5724140  )
        15           Si  tau(  15) = (   0.9324850   0.7948970   0.5763660  )
        16           Si  tau(  16) = (   0.8373890   0.5935020   0.6156740  )
        17           Si  tau(  17) = (   0.7344630   0.2753760   0.0847294  )
        18           Si  tau(  18) = (   0.2909770   0.8573350   0.4465070  )
        19           Si  tau(  19) = (   0.8757870   0.3212330   0.5175730  )
        20           Si  tau(  20) = (   0.9479420   0.1823650   0.6507570  )
        21           Si  tau(  21) = (   0.7526940   0.0802103   0.7291790  )
        22           Si  tau(  22) = (   0.1965260   0.4746100   0.2039630  )
        23           Si  tau(  23) = (   0.7701070   0.4182540   0.7523840  )
        24           Si  tau(  24) = (   0.7084430   0.5864930   0.2294260  )
        25           Si  tau(  25) = (   0.2467530   0.1427980   0.5715340  )
        26           Si  tau(  26) = (   0.6551850   0.0117629   0.1670870  )
        27           Si  tau(  27) = (   0.6277580   0.8981790   0.8808510  )
        28           Si  tau(  28) = (   0.8835780   0.7873940   0.3104620  )
        29           Si  tau(  29) = (   0.9868600   0.9467710   0.8052110  )
        30           Si  tau(  30) = (   0.0472420   0.6698910   0.1649900  )
        31           Si  tau(  31) = (   0.8982450   0.5503950   0.0439311  )
        32           Si  tau(  32) = (   0.1185510   0.3599700   0.9635810  )
        33           Si  tau(  33) = (   0.7440400   0.7026610   0.9444460  )
        34           Si  tau(  34) = (   0.3578220   0.2769460   0.7448020  )
        35           Si  tau(  35) = (   0.0651248   0.1706900   0.2569890  )
        36           Si  tau(  36) = (   0.1299420   0.3271320   0.7357390  )
        37           Si  tau(  37) = (   0.2480610   0.2137340   0.3649820  )
        38           Si  tau(  38) = (   0.8733730   0.3310710   0.9120600  )
        39           Si  tau(  39) = (   0.1885760   0.5742450   0.6688190  )
        40           Si  tau(  40) = (   0.6207810   0.3970730   0.3033640  )
        41           Si  tau(  41) = (   0.5596390   0.4621980   0.9934940  )
        42           Si  tau(  42) = (   0.2828230   0.0647832   0.9978010  )
        43           Si  tau(  43) = (   0.8887220   0.0573050   0.9617880  )
        44           Si  tau(  44) = (   0.9573500   0.3764790   0.2097710  )
        45           Si  tau(  45) = (   0.8001070   0.8658600   0.1154860  )
        46           Si  tau(  46) = (   0.9273100   0.7311390   0.8033010  )
        47           Si  tau(  47) = (   0.3159970   0.9195250   0.1531600  )
        48           Si  tau(  48) = (   0.3600420   0.6461300   0.7936280  )
        49           Si  tau(  49) = (   0.4465040   0.0904625   0.2913830  )
        50           Si  tau(  50) = (   0.4008630   0.2823120   0.9948370  )
        51           Si  tau(  51) = (   0.4183750   0.3339590   0.2258530  )
        52           Si  tau(  52) = (   0.4164140   0.8545130   0.7744350  )
        53           Si  tau(  53) = (   0.0818176   0.5851450   0.8721540  )
        54           Si  tau(  54) = (   0.6310650   0.3429200   0.5308580  )
        55           Si  tau(  55) = (   0.1194620   0.6828800   0.4677410  )
        56           Si  tau(  56) = (   0.0869472   0.0048556   0.5749080  )
        57           Si  tau(  57) = (   0.2357510   0.4500310   0.4367440  )
        58           Si  tau(  58) = (   0.7863460   0.2060850   0.3157220  )
        59           Si  tau(  59) = (   0.5635560   0.8767190   0.3666980  )
        60           Si  tau(  60) = (   0.4133590   0.4494060   0.6141590  )
        61           Si  tau(  61) = (   0.5898190   0.1111690   0.9801080  )
        62           Si  tau(  62) = (   0.6018610   0.1157910   0.4992370  )
        63           Si  tau(  63) = (   0.1158080   0.8997090   0.2844850  )
        64           Si  tau(  64) = (   0.6145790   0.2540330   0.8050800  )

     number of k points=     1  Fermi-Dirac smearing, width (Ry)=  0.0100
                       cart. coord. in units 2pi/alat
        k(    1) = (   0.0000000   0.0000000   0.0000000), wk =   2.0000000

     Dense  grid:    90042 G-vectors     FFT dimensions: (  72,  72,  72)

     Estimated max dynamical RAM per process >     144.59 MB

     Estimated total dynamical RAM >     556.39 MB

     Initial potential from superposition of free atoms

     starting charge     255.9608, renormalised to     256.0000
     Starting wfcs are  256 randomized atomic wfcs

     total cpu time spent up to now is        5.0 secs

     Self-consistent Calculation

     iteration #  1     ecut=    30.00 Ry     beta= 0.50
     Davidson diagonalization with overlap
     ethr =  1.00E-02,  avg # of iterations =  3.0

     Threshold (ethr) on eigenvalues was too large:
     Diagonalizing with lowered threshold

     Davidson diagonalization with overlap
     ethr =  3.88E-04,  avg # of iterations =  4.0

     total cpu time spent up to now is        5.3 secs

     total energy              =    -501.39429806 Ry
     estimated scf accuracy    <       1.17825410 Ry

     iteration #  2     ecut=    30.00 Ry     beta= 0.50
     Davidson diagonalization with overlap
     ethr =  4.60E-04,  avg # of iterations =  4.0

     total cpu time spent up to now is        5.4 secs

     total energy              =    -501.05592120 Ry
     estimated scf accuracy    <       3.21030367 Ry

     iteration #  3     ecut=    30.00 Ry     beta= 0.50
     Davidson diagonalization with overlap
     ethr =  4.60E-04,  avg # of iterations =  4.0

     total cpu time spent up to now is        5.5 secs

     total energy              =    -501.35989793 Ry
     estimated scf accuracy    <       2.60441692 Ry

     iteration #  4     ecut=    30.00 Ry     beta= 0.50
     Davidson diagonalization with overlap
     ethr =  4.60E-04,  avg # of iterations =  2.0

     total cpu time spent up to now is        5.6 secs

     total energy              =    -501.51897999 Ry
     estimated scf accuracy    <       0.57033822 Ry

     iteration #  5     ecut=    30.00 Ry     beta= 0.50
     Davidson diagonalization with overlap
     ethr =  2.23E-04,  avg # of iterations =  2.0

     total cpu time spent up to now is        5.7 secs

     total energy              =    -501.54764729 Ry
     estimated scf accuracy    <       0.53085245 Ry

     iteration #  6     ecut=    30.00 Ry     beta= 0.50
     Davidson diagonalization with overlap
     ethr =  2.07E-04,  avg # of iterations =  1.0

     total cpu time spent up to now is        5.8 secs

     total energy              =    -501.59206790 Ry
     estimated scf accuracy    <       0.07887010 Ry

     iteration #  7     ecut=    30.00 Ry     beta= 0.50
     Davidson diagonalization with overlap
     ethr =  3.08E-05,  avg # of iterations = 12.0

     total cpu time spent up to now is        5.9 secs

     total energy              =    -501.59983053 Ry
     estimated scf accuracy    <       0.02841127 Ry

     iteration #  8     ecut=    30.00 Ry     beta= 0.50
     Davidson diagonalization with overlap
     ethr =  1.11E-05,  avg # of iterations = 13.0

     total cpu time spent up to now is        6.1 secs

     total energy              =    -501.60252613 Ry
     estimated scf accuracy    <       0.02374668 Ry

     iteration #  9     ecut=    30.00 Ry     beta= 0.50
     Davidson diagonalization with overlap
     ethr =  9.28E-06,  avg # of iterations =  2.0

     total cpu time spent up to now is        6.2 secs

     total energy              =    -501.60416785 Ry
     estimated scf accuracy    <       0.00236485 Ry

     iteration # 10     ecut=    30.00 Ry     beta= 0.50
     Davidson diagonalization with overlap
     ethr =  9.24E-07,  avg # of iterations = 15.0

     total cpu time spent up to now is        6.4 secs

     total energy              =    -501.60442986 Ry
     estimated scf accuracy    <       0.00345855 Ry

     iteration # 11     ecut=    30.00 Ry     beta= 0.50
     Davidson diagonalization with overlap
     ethr =  9.24E-07,  avg # of iterations =  2.0

     total cpu time spent up to now is        6.5 secs

     total energy              =    -501.60470164 Ry
     estimated scf accuracy    <       0.00023639 Ry

     iteration # 12     ecut=    30.00 Ry     beta= 0.50
     Davidson diagonalization with overlap
     ethr =  9.23E-08,  avg # of iterations =  4.0

     total cpu time spent up to now is        6.6 secs

     total energy              =    -501.60473606 Ry
     estimated scf accuracy    <       0.00014077 Ry

     iteration # 13     ecut=    30.00 Ry     beta= 0.50
     Davidson diagonalization with overlap
     ethr =  5.50E-08,  avg # of iterations =  3.0

     total cpu time spent up to now is        6.7 secs

     total energy              =    -501.60474219 Ry
     estimated scf accuracy    <       0.00024965 Ry

     iteration # 14     ecut=    30.00 Ry     beta= 0.50
     Davidson diagonalization with overlap
     ethr =  5.50E-08,  avg # of iterations =  2.0

     total cpu time spent up to now is        6.8 secs

     total energy              =    -501.60475835 Ry
     estimated scf accuracy    <       0.00001372 Ry

     iteration # 15     ecut=    30.00 Ry     beta= 0.50
     Davidson diagonalization with overlap
     ethr =  5.36E-09,  avg # of iterations =  4.0

     total cpu time spent up to now is        6.9 secs

     total energy              =    -501.60475945 Ry
     estimated scf accuracy    <       0.00003023 Ry

     iteration # 16     ecut=    30.00 Ry     beta= 0.50
     Davidson diagonalization with overlap
     ethr =  5.36E-09,  avg # of iterations =  2.0

     total cpu time spent up to now is        7.0 secs

     total energy              =    -501.60476180 Ry
     estimated scf accuracy    <       0.00000427 Ry

     iteration # 17     ecut=    30.00 Ry     beta= 0.50
     Davidson diagonalization with overlap
     ethr =  1.67E-09,  avg # of iterations =  2.0

     total cpu time spent up to now is        7.1 secs

     total energy              =    -501.60476200 Ry
     estimated scf accuracy    <       0.00000140 Ry

     iteration # 18     ecut=    30.00 Ry     beta= 0.50
     Davidson diagonalization with overlap
     ethr =  5.48E-10,  avg # of iterations =  3.0

     total cpu time spent up to now is        7.2 secs

     total energy              =    -501.60476206 Ry
     estimated scf accuracy    <       0.00000221 Ry

     iteration # 19     ecut=    30.00 Ry     beta= 0.50
     Davidson diagonalization with overlap
     ethr =  5.48E-10,  avg # of iterations =  2.0

     total cpu time spent up to now is        7.3 secs

     End of self-consistent calculation

          k = 0.0000 0.0000 0.0000 ( 11288 PWs)   bands (ev):

    -5.3585  -4.4369  -4.3384  -4.2642  -4.0903  -4.0526  -3.9853  -3.4216
    -3.3456  -3.1912  -3.1734  -3.0907  -3.0759  -2.9602  -2.9361  -2.8480
    -2.6490  -2.5754  -2.4334  -2.1879  -1.9617  -1.9227  -1.8333  -1.7910
    -1.5943  -1.4366  -1.1820  -1.0856  -0.8808  -0.5383  -0.5201  -0.3659
    -0.2394  -0.2105  -0.1474  -0.0106   0.0603   0.0961   0.2190   0.2391
     0.3175   0.4118   0.5692   0.6158   0.6801   0.7793   0.9036   0.9957
     1.0861   1.1419   1.2118   1.2770   1.3285   1.4462   1.5660   1.6967
     1.8501   1.9169   1.9759   2.1421   2.1953   2.2473   2.4065   2.4789
     2.5900   2.6344   2.6980   2.7822   2.8399   2.9955   3.0049   3.0820
     3.1867   3.2383   3.3006   3.3240   3.3545   3.4426   3.5879   3.6885
     3.9592   4.0900   4.3066   4.4119   4.4989   4.5771   4.6635   4.6862
     4.7684   4.8060   4.8995   4.9538   5.0196   5.0886   5.1842   5.2039
     5.2653   5.2904   5.3362   5.4625   5.4793   5.5171   5.5981   5.6788
     5.7011   5.7990   5.8441   5.9606   5.9918   6.0106   6.0945   6.1460
     6.1769   6.2509   6.3055   6.3468   6.3833   6.4751   6.5153   6.5895
     6.6740   6.7267   6.8053   6.8717   6.9418   7.0118   7.0800   7.1382
     7.1896   7.2553   7.2711   7.3268   7.4185   7.5073   7.5495   7.6028
     7.7053   7.8065   7.8636   7.8857   7.9260   8.0349   8.1373   8.1560
     8.2218   8.2485   8.3059   8.4277   8.4535   8.5327   8.6265   8.6330
     8.7049   8.8121

     the Fermi energy is     7.1522 ev

!    total energy              =    -501.60476212 Ry
     estimated scf accuracy    <       0.00000015 Ry
     smearing contrib. (-TS)   =      -0.14481733 Ry
     internal energy E=F+TS    =    -501.45994479 Ry

     The total energy is F=E-TS. E is the sum of the following terms:
     one-electron contribution =     188.17499765 Ry
     hartree contribution      =      24.41345660 Ry
     xc contribution           =    -151.26464297 Ry
     ewald contribution        =    -562.78375608 Ry

     convergence has been achieved in  19 iterations

     Forces acting on atoms (cartesian axes, Ry/au):

     atom    1 type  1   force =     0.00282212    0.00896334   -0.01390161
     atom    2 type  1   force =     0.01854519   -0.00081261   -0.00515684
     atom    3 type  1   force =     0.02234773    0.00306469    0.00415820
     atom    4 type  1   force =    -0.02040173   -0.02962954    0.02545858
     atom    5 type  1   force =    -0.00710633   -0.00342870    0.00157258
     atom    6 type  1   force =     0.01309815    0.00564034    0.00421147
     atom    7 type  1   force =     0.02340403    0.07576119   -0.10303596
     atom    8 type  1   force =     0.00113640   -0.01660789    0.02282477
     atom    9 type  1   force =    -0.03167709    0.01271657   -0.00256524
     atom   10 type  1   force =    -0.03657327   -0.00716732   -0.00593636
     atom   11 type  1   force =    -0.01395606    0.00902492    0.00552549
     atom   12 type  1   force =     0.00510386   -0.00183955   -0.00349617
     atom   13 type  1   force =     0.03052606    0.00464041    0.01664648
     atom   14 type  1   force =     0.02022944    0.01175872    0.03063895
     atom   15 type  1   force =     0.01462250    0.03073421   -0.01475975
     atom   16 type  1   force =    -0.00561163   -0.01001830   -0.02228505
     atom   17 type  1   force =     0.00014797    0.00536613    0.01035406
     atom   18 type  1   force =    -0.04324866   -0.02873763   -0.04546339
     atom   19 type  1   force =    -0.04391066    0.06621615   -0.07596962
     atom   20 type  1   force =     0.04471065   -0.05151860    0.04904226
     atom   21 type  1   force =     0.01285248   -0.01154043   -0.00532073
     atom   22 type  1   force =    -0.00619665    0.00344892   -0.02381102
     atom   23 type  1   force =    -0.03542343    0.03758911   -0.05666691
     atom   24 type  1   force =     0.01440362    0.00787238    0.01098604
     atom   25 type  1   force =     0.06102011    0.01965493    0.03475383
     atom   26 type  1   force =    -0.04537995    0.03346486    0.05408239
     atom   27 type  1   force =    -0.05050975    0.00710952    0.00274894
     atom   28 type  1   force =     0.00759656   -0.00644125   -0.00871040
     atom   29 type  1   force =     0.05654360   -0.01527457   -0.06603979
     atom   30 type  1   force =     0.03008963    0.01620876    0.00761681
     atom   31 type  1   force =    -0.01188620   -0.02445320    0.01431148
     atom   32 type  1   force =    -0.03856080    0.01646922    0.00027762
     atom   33 type  1   force =     0.01204139    0.01501870   -0.00345094
     atom   34 type  1   force =     0.01327416   -0.01091685    0.01576131
     atom   35 type  1   force =    -0.02398735   -0.01346030    0.00594635
     atom   36 type  1   force =    -0.00257464    0.00737643   -0.00967196
     atom   37 type  1   force =     0.03317352    0.03345752    0.00153954
     atom   38 type  1   force =     0.05331051    0.00037722    0.06815040
     atom   39 type  1   force =    -0.00607049   -0.02218625   -0.01587921
     atom   40 type  1   force =     0.00560892   -0.02283554    0.01643460
     atom   41 type  1   force =    -0.04348158   -0.08972816    0.12987943
     atom   42 type  1   force =     0.02988060    0.03069304   -0.00341890
     atom   43 type  1   force =    -0.00634798    0.02301269    0.02072655
     atom   44 type  1   force =     0.00491562    0.01538227    0.00045518
     atom   45 type  1   force =     0.02418365   -0.02760293   -0.02699931
     atom   46 type  1   force =    -0.02652589   -0.00938648   -0.01825981
     atom   47 type  1   force =     0.00649816   -0.00008812    0.02529191
     atom   48 type  1   force =     0.02275399   -0.03809981    0.01438021
     atom   49 type  1   force =     0.01035175   -0.01098637    0.00189110
     atom   50 type  1   force =     0.01533909   -0.01155204   -0.00706957
     atom   51 type  1   force =    -0.03471337   -0.02330076   -0.01722750
     atom   52 type  1   force =     0.04375127    0.03763545   -0.04609075
     atom   53 type  1   force =     0.02008285   -0.00193747    0.02269158
     atom   54 type  1   force =    -0.00075313    0.01053685   -0.00825497
     atom   55 type  1   force =    -0.01264619   -0.00201023    0.03363029
     atom   56 type  1   force =    -0.09334530   -0.03525056    0.00826602
     atom   57 type  1   force =     0.01352537    0.00138288   -0.00223245
     atom   58 type  1   force =    -0.00307877   -0.00261409   -0.00519527
     atom   59 type  1   force =    -0.01722894   -0.00327363   -0.00043691
     atom   60 type  1   force =     0.00995579    0.01049892   -0.02642300
     atom   61 type  1   force =    -0.01754471    0.02249589   -0.00629861
     atom   62 type  1   force =    -0.02317927   -0.01712531   -0.00921821
     atom   63 type  1   force =     0.02525030   -0.01818714    0.01774112
     atom   64 type  1   force =    -0.02117723   -0.01556057   -0.01874931

     Total force =     0.401537     Total SCF correction =     0.000738


     Computing stress (Cartesian axis) and pressure

          total   stress  (Ry/bohr**3)                   (kbar)     P=      -23.53
  -0.00021188  -0.00007958  -0.00001946          -31.17      -11.71       -2.86
  -0.00007958  -0.00017507  -0.00005511          -11.71      -25.75       -8.11
  -0.00001946  -0.00005511  -0.00009284           -2.86       -8.11      -13.66

 
     init_run     :      1.08s CPU      4.94s WALL (       1 calls)
     electrons    :      2.11s CPU      2.28s WALL (       1 calls)
     forces       :      0.03s CPU      0.04s WALL (       1 calls)
     stress       :      0.15s CPU      0.15s WALL (       1 calls)

     Called by init_run:
     wfcinit      :      0.53s CPU      4.21s WALL (       1 calls)
                                        4.21s GPU  (       1 calls)
     potinit      :      0.06s CPU      0.15s WALL (       1 calls)
     hinit0       :      0.47s CPU      0.50s WALL (       1 calls)

     Called by electrons:
     c_bands      :      1.29s CPU      1.37s WALL (      20 calls)
     sum_band     :      0.41s CPU      0.46s WALL (      20 calls)
     v_of_rho     :      0.19s CPU      0.30s WALL (      20 calls)
     mix_rho      :      0.19s CPU      0.21s WALL (      20 calls)

     Called by c_bands:
     init_us_2    :      0.07s CPU      0.08s WALL (      41 calls)
     init_us_2:gp :      0.07s CPU      0.07s WALL (      41 calls)
     regterg      :      1.11s CPU      1.18s WALL (      20 calls)

     Called by *egterg:
     rdiaghg      :      0.48s CPU      1.24s WALL (     105 calls)
                                        1.22s GPU  (     105 calls)
     h_psi        :      0.96s CPU      3.93s WALL (     107 calls)
                                        3.93s GPU  (     107 calls)
     g_psi        :      0.00s CPU      0.00s WALL (      86 calls)
                                        0.00s GPU  (      86 calls)

     Called by h_psi:
     h_psi:calbec :      0.50s CPU      3.38s WALL (     107 calls)
                                        3.38s GPU  (     107 calls)
     vloc_psi     :      0.40s CPU      0.47s WALL (     107 calls)
                                        0.47s GPU  (     107 calls)
     add_vuspsi   :      0.04s CPU      0.06s WALL (     107 calls)
                                        0.06s GPU  (     107 calls)

     General routines
     calbec       :      0.50s CPU      3.39s WALL (     112 calls)
     fft          :      0.64s CPU      0.77s WALL (     167 calls)
                                        0.14s GPU  (     106 calls)
     ffts         :      0.05s CPU      0.06s WALL (      20 calls)
     fftw         :      0.49s CPU      0.64s WALL (    2136 calls)
                                        0.56s GPU  (    2136 calls)
 
     Parallel routines
 
     PWSCF        :      3.42s CPU      7.50s WALL

 
   This run was terminated on:  10:39:44  10May2023            

=------------------------------------------------------------------------------=
   JOB DONE.
=------------------------------------------------------------------------------=
