An instance of this daemon is already running
An instance of this daemon is already running

     Program PWSCF v.7.1 starts on 10May2023 at 10:44:37 

     This program is part of the open-source Quantum ESPRESSO suite
     for quantum simulation of materials; please cite
         "P. Giannozzi et al., J. Phys.:Condens. Matter 21 395502 (2009);
         "P. Giannozzi et al., J. Phys.:Condens. Matter 29 465901 (2017);
         "P. Giannozzi et al., J. Chem. Phys. 152 154105 (2020);
          URL http://www.quantum-espresso.org", 
     in publications or presentations arising from this work. More details at
     http://www.quantum-espresso.org/quote

     Parallel version (MPI & OpenMP), running on       4 processor cores
     Number of MPI processes:                 4
     Threads/MPI process:                     1

     MPI processes distributed on     1 nodes
     753558 MiB available memory on the printing compute node when the environment starts
 
     Reading input from pw-si-44.in
Warning: card &CELL ignored
Warning: card / ignored

     Current dimensions of program PWSCF are:
     Max number of different atomic species (ntypx) = 10
     Max number of k-points (npk) =  40000
     Max angular momentum in pseudopotentials (lmaxx) =  4

     IMPORTANT: XC functional enforced from input :
     Exchange-correlation= PBE
                           (   1   4   3   4   0   0   0)
     Any further DFT definition will be discarded
     Please, verify this is what you really want


     gamma-point specific algorithms are used
 
     K-points division:     npool     =       2
     R & G space division:  proc/nbgrp/npool/nimage =       2
     Subspace diagonalization in iterative solution of the eigenvalue problem:
     a serial algorithm will be used

     Message from routine divide_et_impera:
     suboptimal parallelization: some nodes have no k-points
 
     Parallelization info
     --------------------
     sticks:   dense  smooth     PW     G-vecs:    dense   smooth      PW
     Min        1896    1896    498                87912    87912   11922
     Max        1897    1897    499                87917    87917   11925
     Sum        3793    3793    997               175829   175829   23847
 
     Using Slab Decomposition
 


     bravais-lattice index     =            0
     lattice parameter (alat)  =      19.9386  a.u.
     unit-cell volume          =    7926.5436 (a.u.)^3
     number of atoms/cell      =           64
     number of atomic types    =            1
     number of electrons       =       256.00
     number of Kohn-Sham states=          154
     kinetic-energy cutoff     =      30.0000  Ry
     charge density cutoff     =     120.0000  Ry
     scf convergence threshold =      1.0E-06
     mixing beta               =       0.5000
     number of iterations used =            8  plain     mixing
     Exchange-correlation= PBE
                           (   1   4   3   4   0   0   0)

     GPU acceleration is ACTIVE.
     GPU-aware MPI enabled

     Message from routine print_cuda_info:
     High GPU oversubscription detected. Are you sure this is what you want?

     celldm(1)=  19.938598  celldm(2)=   0.000000  celldm(3)=   0.000000
     celldm(4)=   0.000000  celldm(5)=   0.000000  celldm(6)=   0.000000

     crystal axes: (cart. coord. in units of alat)
               a(1) = (   1.000000   0.000000   0.000000 )  
               a(2) = (   0.000000   1.000000   0.000000 )  
               a(3) = (   0.000000   0.000000   1.000000 )  

     reciprocal axes: (cart. coord. in units 2 pi/alat)
               b(1) = (  1.000000  0.000000  0.000000 )  
               b(2) = (  0.000000  1.000000  0.000000 )  
               b(3) = (  0.000000  0.000000  1.000000 )  


     PseudoPot. # 1 for Si read from file:
     /home/ppiaggi/pseudos/Si_ONCV_PBE_sr.upf
     MD5 check sum: 8553c464762ac42b85b1eed164b4d029
     Pseudo is Norm-conserving, Zval =  4.0
     Generated using ONCVPSP code by D. R. Hamann
     Using radial grid of 1510 points,  4 beta functions with: 
                l(1) =   0
                l(2) =   0
                l(3) =   1
                l(4) =   1

     atomic species   valence    mass     pseudopotential
        Si             4.00    28.08500     Si( 1.00)

     No symmetry found



   Cartesian axes

     site n.     atom                  positions (alat units)
         1           Si  tau(   1) = (   0.1213110   0.1765270   0.2195550  )
         2           Si  tau(   2) = (   0.3912590   0.2058480   0.4282550  )
         3           Si  tau(   3) = (   0.2842970   0.0891593   0.9230210  )
         4           Si  tau(   4) = (   0.8461030   0.1667350   0.5584860  )
         5           Si  tau(   5) = (   0.3945860   0.4031860   0.2236870  )
         6           Si  tau(   6) = (   0.0055906   0.7465680   0.7358080  )
         7           Si  tau(   7) = (   0.2239110   0.6144720   0.4310990  )
         8           Si  tau(   8) = (   0.0512780   0.3619490   0.5126400  )
         9           Si  tau(   9) = (   0.6051830   0.5363400   0.9375230  )
        10           Si  tau(  10) = (   0.4767380   0.8829210   0.0341953  )
        11           Si  tau(  11) = (   0.4050590   0.7040600   0.1370000  )
        12           Si  tau(  12) = (   0.3478850   0.7845210   0.3304010  )
        13           Si  tau(  13) = (   0.2364010   0.9612280   0.0982427  )
        14           Si  tau(  14) = (   0.2247050   0.8322570   0.5934800  )
        15           Si  tau(  15) = (   0.8604200   0.4372050   0.3977430  )
        16           Si  tau(  16) = (   0.6314890   0.1538660   0.3709080  )
        17           Si  tau(  17) = (   0.3015010   0.5292780   0.0377963  )
        18           Si  tau(  18) = (   0.5776280   0.0881363   0.1092310  )
        19           Si  tau(  19) = (   0.5598540   0.4254050   0.4040880  )
        20           Si  tau(  20) = (   0.1959370   0.3485200   0.3275160  )
        21           Si  tau(  21) = (   0.8295080   0.7969450   0.5577110  )
        22           Si  tau(  22) = (   0.1112470   0.1066410   0.5358230  )
        23           Si  tau(  23) = (   0.4982970   0.7465230   0.5139230  )
        24           Si  tau(  24) = (   0.8995370   0.1170440   0.9275450  )
        25           Si  tau(  25) = (   0.7248820   0.8389110   0.8046360  )
        26           Si  tau(  26) = (   0.5839170   0.3221710   0.0811780  )
        27           Si  tau(  27) = (   0.8650720   0.4807340   0.0696162  )
        28           Si  tau(  28) = (   0.7917640   0.3119470   0.2099800  )
        29           Si  tau(  29) = (   0.3826210   0.4644800   0.5542020  )
        30           Si  tau(  30) = (   0.9201450   0.0937712   0.2990410  )
        31           Si  tau(  31) = (   0.2154420   0.7476600   0.9418350  )
        32           Si  tau(  32) = (   0.8038780   0.5990180   0.8658050  )
        33           Si  tau(  33) = (   0.3872110   0.0442229   0.2498800  )
        34           Si  tau(  34) = (   0.0951001   0.2211540   0.9743490  )
        35           Si  tau(  35) = (   0.6343550   0.0523386   0.8707900  )
        36           Si  tau(  36) = (   0.6754220   0.9856420   0.5465240  )
        37           Si  tau(  37) = (   0.7362250   0.8366780   0.0452484  )
        38           Si  tau(  38) = (   0.1447300   0.0079012   0.7193580  )
        39           Si  tau(  39) = (   0.3955360   0.8973610   0.8066190  )
        40           Si  tau(  40) = (   0.9195560   0.3621180   0.7461300  )
        41           Si  tau(  41) = (   0.1437470   0.3716740   0.8120330  )
        42           Si  tau(  42) = (   0.8006150   0.5192660   0.6364570  )
        43           Si  tau(  43) = (   0.7720360   0.7210790   0.2329390  )
        44           Si  tau(  44) = (   0.4262210   0.0015214   0.5428530  )
        45           Si  tau(  45) = (   0.9152220   0.0090049   0.7392950  )
        46           Si  tau(  46) = (   0.2907050   0.2786390   0.6562200  )
        47           Si  tau(  47) = (   0.9738760   0.7354950   0.9679590  )
        48           Si  tau(  48) = (   0.4042450   0.2994760   0.9136960  )
        49           Si  tau(  49) = (   0.6698780   0.6409040   0.4554460  )
        50           Si  tau(  50) = (   0.1683020   0.9518010   0.3858810  )
        51           Si  tau(  51) = (   0.0208820   0.5830400   0.2999090  )
        52           Si  tau(  52) = (   0.5892300   0.5817110   0.1669780  )
        53           Si  tau(  53) = (   0.5415490   0.7534200   0.7330970  )
        54           Si  tau(  54) = (   0.9708400   0.8248210   0.3521450  )
        55           Si  tau(  55) = (   0.5296990   0.1504590   0.7078490  )
        56           Si  tau(  56) = (   0.0716100   0.4446180   0.0998269  )
        57           Si  tau(  57) = (   0.5176390   0.4602270   0.7629390  )
        58           Si  tau(  58) = (   0.1011370   0.5618720   0.6741030  )
        59           Si  tau(  59) = (   0.0246050   0.9026280   0.1276100  )
        60           Si  tau(  60) = (   0.8045330   0.0454251   0.1141480  )
        61           Si  tau(  61) = (   0.3119370   0.6194210   0.7347130  )
        62           Si  tau(  62) = (   0.6579390   0.3008430   0.5943240  )
        63           Si  tau(  63) = (   0.7611950   0.3095710   0.8845420  )
        64           Si  tau(  64) = (   0.6090030   0.9105600   0.2920640  )

     number of k points=     1  Fermi-Dirac smearing, width (Ry)=  0.0100
                       cart. coord. in units 2pi/alat
        k(    1) = (   0.0000000   0.0000000   0.0000000), wk =   2.0000000

     Dense  grid:    87915 G-vectors     FFT dimensions: (  72,  72,  72)

     Estimated max dynamical RAM per process >     141.67 MB

     Estimated total dynamical RAM >     545.21 MB

     Initial potential from superposition of free atoms

     starting charge     255.9608, renormalised to     256.0000
     Starting wfcs are  256 randomized atomic wfcs

     total cpu time spent up to now is        5.0 secs

     Self-consistent Calculation

     iteration #  1     ecut=    30.00 Ry     beta= 0.50
     Davidson diagonalization with overlap
     ethr =  1.00E-02,  avg # of iterations =  3.0

     Threshold (ethr) on eigenvalues was too large:
     Diagonalizing with lowered threshold

     Davidson diagonalization with overlap
     ethr =  3.54E-04,  avg # of iterations =  5.0

     total cpu time spent up to now is        5.3 secs

     total energy              =    -501.18088790 Ry
     estimated scf accuracy    <       1.09865056 Ry

     iteration #  2     ecut=    30.00 Ry     beta= 0.50
     Davidson diagonalization with overlap
     ethr =  4.29E-04,  avg # of iterations =  3.0

     total cpu time spent up to now is        5.4 secs

     total energy              =    -500.87690446 Ry
     estimated scf accuracy    <       3.08198248 Ry

     iteration #  3     ecut=    30.00 Ry     beta= 0.50
     Davidson diagonalization with overlap
     ethr =  4.29E-04,  avg # of iterations =  4.0

     total cpu time spent up to now is        5.5 secs

     total energy              =    -501.13664582 Ry
     estimated scf accuracy    <       2.46163741 Ry

     iteration #  4     ecut=    30.00 Ry     beta= 0.50
     Davidson diagonalization with overlap
     ethr =  4.29E-04,  avg # of iterations =  3.0

     total cpu time spent up to now is        5.6 secs

     total energy              =    -501.30411384 Ry
     estimated scf accuracy    <       0.70710616 Ry

     iteration #  5     ecut=    30.00 Ry     beta= 0.50
     Davidson diagonalization with overlap
     ethr =  2.76E-04,  avg # of iterations =  2.0

     total cpu time spent up to now is        5.7 secs

     total energy              =    -501.35778979 Ry
     estimated scf accuracy    <       0.11163996 Ry

     iteration #  6     ecut=    30.00 Ry     beta= 0.50
     Davidson diagonalization with overlap
     ethr =  4.36E-05,  avg # of iterations =  9.0

     total cpu time spent up to now is        5.8 secs

     total energy              =    -501.37084096 Ry
     estimated scf accuracy    <       0.17406571 Ry

     iteration #  7     ecut=    30.00 Ry     beta= 0.50
     Davidson diagonalization with overlap
     ethr =  4.36E-05,  avg # of iterations =  2.0

     total cpu time spent up to now is        5.9 secs

     total energy              =    -501.38409647 Ry
     estimated scf accuracy    <       0.00860504 Ry

     iteration #  8     ecut=    30.00 Ry     beta= 0.50
     Davidson diagonalization with overlap
     ethr =  3.36E-06,  avg # of iterations = 12.0

     total cpu time spent up to now is        6.1 secs

     total energy              =    -501.38540722 Ry
     estimated scf accuracy    <       0.00787100 Ry

     iteration #  9     ecut=    30.00 Ry     beta= 0.50
     Davidson diagonalization with overlap
     ethr =  3.07E-06,  avg # of iterations =  2.0

     total cpu time spent up to now is        6.2 secs

     total energy              =    -501.38594220 Ry
     estimated scf accuracy    <       0.00656276 Ry

     iteration # 10     ecut=    30.00 Ry     beta= 0.50
     Davidson diagonalization with overlap
     ethr =  2.56E-06,  avg # of iterations =  1.0

     total cpu time spent up to now is        6.3 secs

     total energy              =    -501.38640531 Ry
     estimated scf accuracy    <       0.00055528 Ry

     iteration # 11     ecut=    30.00 Ry     beta= 0.50
     Davidson diagonalization with overlap
     ethr =  2.17E-07,  avg # of iterations =  4.0

     total cpu time spent up to now is        6.4 secs

     total energy              =    -501.38644798 Ry
     estimated scf accuracy    <       0.00052928 Ry

     iteration # 12     ecut=    30.00 Ry     beta= 0.50
     Davidson diagonalization with overlap
     ethr =  2.07E-07,  avg # of iterations =  2.0

     total cpu time spent up to now is        6.5 secs

     total energy              =    -501.38649957 Ry
     estimated scf accuracy    <       0.00020880 Ry

     iteration # 13     ecut=    30.00 Ry     beta= 0.50
     Davidson diagonalization with overlap
     ethr =  8.16E-08,  avg # of iterations =  2.0

     total cpu time spent up to now is        6.6 secs

     total energy              =    -501.38651020 Ry
     estimated scf accuracy    <       0.00008146 Ry

     iteration # 14     ecut=    30.00 Ry     beta= 0.50
     Davidson diagonalization with overlap
     ethr =  3.18E-08,  avg # of iterations =  2.0

     total cpu time spent up to now is        6.7 secs

     total energy              =    -501.38651849 Ry
     estimated scf accuracy    <       0.00004170 Ry

     iteration # 15     ecut=    30.00 Ry     beta= 0.50
     Davidson diagonalization with overlap
     ethr =  1.63E-08,  avg # of iterations =  1.0

     total cpu time spent up to now is        6.8 secs

     total energy              =    -501.38652059 Ry
     estimated scf accuracy    <       0.00000662 Ry

     iteration # 16     ecut=    30.00 Ry     beta= 0.50
     Davidson diagonalization with overlap
     ethr =  2.59E-09,  avg # of iterations =  3.0

     total cpu time spent up to now is        6.9 secs

     total energy              =    -501.38652157 Ry
     estimated scf accuracy    <       0.00000591 Ry

     iteration # 17     ecut=    30.00 Ry     beta= 0.50
     Davidson diagonalization with overlap
     ethr =  2.31E-09,  avg # of iterations =  2.0

     total cpu time spent up to now is        7.0 secs

     total energy              =    -501.38652169 Ry
     estimated scf accuracy    <       0.00000762 Ry

     iteration # 18     ecut=    30.00 Ry     beta= 0.50
     Davidson diagonalization with overlap
     ethr =  2.31E-09,  avg # of iterations =  2.0

     total cpu time spent up to now is        7.1 secs

     total energy              =    -501.38652215 Ry
     estimated scf accuracy    <       0.00000142 Ry

     iteration # 19     ecut=    30.00 Ry     beta= 0.50
     Davidson diagonalization with overlap
     ethr =  5.55E-10,  avg # of iterations =  2.0

     total cpu time spent up to now is        7.2 secs

     End of self-consistent calculation

          k = 0.0000 0.0000 0.0000 ( 11060 PWs)   bands (ev):

    -5.1679  -4.2202  -4.0769  -3.9236  -3.8775  -3.8349  -3.6129  -3.1509
    -3.0874  -2.9651  -2.8928  -2.8386  -2.7670  -2.5990  -2.5450  -2.5099
    -2.4588  -2.3014  -2.1595  -1.9197  -1.6085  -1.5456  -1.4839  -1.4263
    -1.3655  -1.2180  -1.1467  -0.5638  -0.4711  -0.3996  -0.2596  -0.1129
    -0.0557   0.0744   0.2464   0.3178   0.4401   0.4758   0.5618   0.5985
     0.6821   0.7132   0.8216   0.8978   0.9825   1.0391   1.1660   1.3205
     1.3415   1.4071   1.5613   1.6407   1.7581   1.8074   1.8424   1.9810
     2.0155   2.1727   2.2266   2.2660   2.3814   2.4912   2.5553   2.6636
     2.6883   2.7104   2.8463   2.9257   3.0073   3.0992   3.1155   3.2264
     3.2335   3.4205   3.4621   3.6078   3.6586   3.7501   3.7849   3.8758
     4.0417   4.6896   4.7584   4.7894   4.8447   4.9061   4.9897   5.0404
     5.0988   5.1709   5.2410   5.3075   5.3859   5.4105   5.4622   5.5571
     5.6283   5.7423   5.7699   5.8504   5.8831   5.8912   5.9682   6.0464
     6.0706   6.1069   6.1966   6.2590   6.2915   6.3853   6.4355   6.4502
     6.4737   6.5292   6.6404   6.6943   6.7669   6.8522   6.8977   6.9126
     6.9509   7.0357   7.0854   7.1470   7.1805   7.2766   7.3185   7.3849
     7.4258   7.4373   7.5133   7.5672   7.6070   7.6672   7.7607   7.8255
     7.9492   7.9958   8.0688   8.1532   8.2188   8.2379   8.3012   8.3881
     8.4171   8.5319   8.6045   8.7075   8.7559   8.8113   8.8570   8.8973
     8.9619   9.0134

     the Fermi energy is     7.3905 ev

!    total energy              =    -501.38652221 Ry
     estimated scf accuracy    <       0.00000018 Ry
     smearing contrib. (-TS)   =      -0.16090533 Ry
     internal energy E=F+TS    =    -501.22561688 Ry

     The total energy is F=E-TS. E is the sum of the following terms:
     one-electron contribution =     202.82431556 Ry
     hartree contribution      =      19.74896457 Ry
     xc contribution           =    -151.14231068 Ry
     ewald contribution        =    -572.65658634 Ry

     convergence has been achieved in  19 iterations

     Forces acting on atoms (cartesian axes, Ry/au):

     atom    1 type  1   force =    -0.01398505   -0.04162530   -0.05314291
     atom    2 type  1   force =    -0.00296370   -0.01392578   -0.02187847
     atom    3 type  1   force =    -0.01472437    0.00104521   -0.05265501
     atom    4 type  1   force =     0.02158535    0.00086332    0.00406146
     atom    5 type  1   force =     0.03811130    0.00627281    0.01809671
     atom    6 type  1   force =    -0.01940097    0.04308197    0.00248379
     atom    7 type  1   force =    -0.01347149   -0.00582220    0.02981685
     atom    8 type  1   force =    -0.01458788   -0.00541742    0.00426522
     atom    9 type  1   force =     0.02150615    0.00141755    0.05939631
     atom   10 type  1   force =     0.03086127    0.03799998   -0.04252868
     atom   11 type  1   force =    -0.00039430   -0.02001762   -0.00193256
     atom   12 type  1   force =    -0.01709896    0.03192418    0.04399037
     atom   13 type  1   force =     0.01438040    0.00233129    0.01236402
     atom   14 type  1   force =     0.01141110   -0.01210255    0.00159127
     atom   15 type  1   force =     0.02951286    0.02260749    0.00788493
     atom   16 type  1   force =    -0.01134647   -0.00507123    0.00009511
     atom   17 type  1   force =    -0.03709006   -0.01883049   -0.02180453
     atom   18 type  1   force =    -0.00369100   -0.00244857   -0.01262284
     atom   19 type  1   force =    -0.01742269   -0.00214061   -0.00341903
     atom   20 type  1   force =     0.01938117    0.01663902    0.02122073
     atom   21 type  1   force =     0.00571427    0.00309917   -0.00484588
     atom   22 type  1   force =    -0.01821175    0.07478040   -0.01882965
     atom   23 type  1   force =    -0.05995644    0.04943884    0.00855522
     atom   24 type  1   force =    -0.00459607    0.03973878    0.02241511
     atom   25 type  1   force =     0.05028497    0.03937400    0.02111820
     atom   26 type  1   force =    -0.00542626   -0.00394817   -0.00465354
     atom   27 type  1   force =    -0.03271462    0.01929470   -0.03374280
     atom   28 type  1   force =    -0.01949836   -0.01193694    0.02257947
     atom   29 type  1   force =    -0.00417178    0.02075139    0.00335021
     atom   30 type  1   force =     0.00065359    0.01116205    0.01307338
     atom   31 type  1   force =    -0.00046549   -0.00533461   -0.00791257
     atom   32 type  1   force =     0.02235136    0.00229597    0.00286601
     atom   33 type  1   force =     0.00037736   -0.00246731    0.01742717
     atom   34 type  1   force =    -0.00565099   -0.00225715    0.03380373
     atom   35 type  1   force =     0.01644149   -0.02291013    0.04227128
     atom   36 type  1   force =    -0.01299233   -0.01138347   -0.03093046
     atom   37 type  1   force =    -0.00381307    0.01834431   -0.01144194
     atom   38 type  1   force =     0.00676279   -0.02172819    0.07299683
     atom   39 type  1   force =    -0.04072860    0.01855030    0.03896737
     atom   40 type  1   force =     0.03969761   -0.01328444   -0.03611235
     atom   41 type  1   force =    -0.00644187    0.00898003    0.00133058
     atom   42 type  1   force =    -0.01307538    0.00958248   -0.02866643
     atom   43 type  1   force =    -0.02738898   -0.02428110    0.02264877
     atom   44 type  1   force =     0.01982544   -0.00684374    0.01817106
     atom   45 type  1   force =    -0.00135409   -0.02934010   -0.01746833
     atom   46 type  1   force =     0.00623914   -0.01803634   -0.00542006
     atom   47 type  1   force =     0.01312897   -0.00237316   -0.00828244
     atom   48 type  1   force =     0.00258606    0.01586091   -0.01636735
     atom   49 type  1   force =     0.08477944   -0.04511403   -0.03369628
     atom   50 type  1   force =     0.01534105   -0.04830997   -0.01209976
     atom   51 type  1   force =    -0.00215622   -0.00377223    0.00926913
     atom   52 type  1   force =     0.00953556   -0.00817860    0.00000182
     atom   53 type  1   force =    -0.03233536   -0.03836892   -0.01947666
     atom   54 type  1   force =     0.00458422    0.00553017   -0.01695096
     atom   55 type  1   force =    -0.03705604    0.00457879   -0.02626880
     atom   56 type  1   force =     0.07492358    0.00837685    0.01888108
     atom   57 type  1   force =    -0.04168050   -0.03148206   -0.04490260
     atom   58 type  1   force =     0.01933696   -0.04709123   -0.03655989
     atom   59 type  1   force =    -0.01694603   -0.01419641    0.01714649
     atom   60 type  1   force =    -0.00457964   -0.02160894   -0.01309332
     atom   61 type  1   force =     0.01555345    0.02036964   -0.00785363
     atom   62 type  1   force =     0.00983036    0.02977366    0.00236097
     atom   63 type  1   force =    -0.03595547   -0.00377022    0.04222724
     atom   64 type  1   force =    -0.01132501    0.00135398    0.00883179

     Total force =     0.347230     Total SCF correction =     0.000813


     Computing stress (Cartesian axis) and pressure

          total   stress  (Ry/bohr**3)                   (kbar)     P=      -27.12
  -0.00019433  -0.00002129  -0.00005010          -28.59       -3.13       -7.37
  -0.00002129  -0.00020911  -0.00002471           -3.13      -30.76       -3.64
  -0.00005010  -0.00002471  -0.00014969           -7.37       -3.64      -22.02

 
     init_run     :      1.08s CPU      4.93s WALL (       1 calls)
     electrons    :      2.00s CPU      2.16s WALL (       1 calls)
     forces       :      0.04s CPU      0.04s WALL (       1 calls)
     stress       :      0.15s CPU      0.16s WALL (       1 calls)

     Called by init_run:
     wfcinit      :      0.53s CPU      4.22s WALL (       1 calls)
                                        4.22s GPU  (       1 calls)
     potinit      :      0.05s CPU      0.15s WALL (       1 calls)
     hinit0       :      0.47s CPU      0.50s WALL (       1 calls)

     Called by electrons:
     c_bands      :      1.19s CPU      1.27s WALL (      20 calls)
     sum_band     :      0.40s CPU      0.44s WALL (      20 calls)
     v_of_rho     :      0.19s CPU      0.29s WALL (      20 calls)
     mix_rho      :      0.19s CPU      0.20s WALL (      20 calls)

     Called by c_bands:
     init_us_2    :      0.07s CPU      0.08s WALL (      41 calls)
     init_us_2:gp :      0.07s CPU      0.07s WALL (      41 calls)
     regterg      :      1.02s CPU      1.09s WALL (      20 calls)

     Called by *egterg:
     rdiaghg      :      0.43s CPU      1.19s WALL (      85 calls)
                                        1.18s GPU  (      85 calls)
     h_psi        :      0.94s CPU      3.91s WALL (      87 calls)
                                        3.91s GPU  (      87 calls)
     g_psi        :      0.00s CPU      0.00s WALL (      66 calls)
                                        0.00s GPU  (      66 calls)

     Called by h_psi:
     h_psi:calbec :      0.50s CPU      3.39s WALL (      87 calls)
                                        3.39s GPU  (      87 calls)
     vloc_psi     :      0.39s CPU      0.47s WALL (      87 calls)
                                        0.46s GPU  (      87 calls)
     add_vuspsi   :      0.03s CPU      0.05s WALL (      87 calls)
                                        0.05s GPU  (      87 calls)

     General routines
     calbec       :      0.50s CPU      3.39s WALL (      92 calls)
     fft          :      0.63s CPU      0.76s WALL (     167 calls)
                                        0.14s GPU  (     106 calls)
     ffts         :      0.05s CPU      0.05s WALL (      20 calls)
     fftw         :      0.47s CPU      0.62s WALL (    2096 calls)
                                        0.54s GPU  (    2096 calls)
 
     Parallel routines
 
     PWSCF        :      3.32s CPU      7.38s WALL

 
   This run was terminated on:  10:44:45  10May2023            

=------------------------------------------------------------------------------=
   JOB DONE.
=------------------------------------------------------------------------------=
