An instance of this daemon is already running

     Program PWSCF v.7.1 starts on  9May2023 at 15: 8: 9 

     This program is part of the open-source Quantum ESPRESSO suite
     for quantum simulation of materials; please cite
         "P. Giannozzi et al., J. Phys.:Condens. Matter 21 395502 (2009);
         "P. Giannozzi et al., J. Phys.:Condens. Matter 29 465901 (2017);
         "P. Giannozzi et al., J. Chem. Phys. 152 154105 (2020);
          URL http://www.quantum-espresso.org", 
     in publications or presentations arising from this work. More details at
     http://www.quantum-espresso.org/quote

     Parallel version (MPI & OpenMP), running on       4 processor cores
     Number of MPI processes:                 4
     Threads/MPI process:                     1

     MPI processes distributed on     1 nodes
     75230 MiB available memory on the printing compute node when the environment starts
 
     Reading input from pw-si-18.in
Warning: card &CELL ignored
Warning: card / ignored

     Current dimensions of program PWSCF are:
     Max number of different atomic species (ntypx) = 10
     Max number of k-points (npk) =  40000
     Max angular momentum in pseudopotentials (lmaxx) =  4

     IMPORTANT: XC functional enforced from input :
     Exchange-correlation= PBE
                           (   1   4   3   4   0   0   0)
     Any further DFT definition will be discarded
     Please, verify this is what you really want


     gamma-point specific algorithms are used
 
     K-points division:     npool     =       2
     R & G space division:  proc/nbgrp/npool/nimage =       2
     Subspace diagonalization in iterative solution of the eigenvalue problem:
     a serial algorithm will be used

     Message from routine divide_et_impera:
     suboptimal parallelization: some nodes have no k-points
 
     Parallelization info
     --------------------
     sticks:   dense  smooth     PW     G-vecs:    dense   smooth      PW
     Min        1992    1992    524                93875    93875   12765
     Max        1993    1993    525                93876    93876   12768
     Sum        3985    3985   1049               187751   187751   25533
 
     Using Slab Decomposition
 


     bravais-lattice index     =            0
     lattice parameter (alat)  =      20.3701  a.u.
     unit-cell volume          =    8452.4497 (a.u.)^3
     number of atoms/cell      =           64
     number of atomic types    =            1
     number of electrons       =       256.00
     number of Kohn-Sham states=          128
     kinetic-energy cutoff     =      30.0000  Ry
     charge density cutoff     =     120.0000  Ry
     scf convergence threshold =      1.0E-06
     mixing beta               =       0.5000
     number of iterations used =            8  plain     mixing
     Exchange-correlation= PBE
                           (   1   4   3   4   0   0   0)

     GPU acceleration is ACTIVE.
     GPU-aware MPI enabled

     Message from routine print_cuda_info:
     High GPU oversubscription detected. Are you sure this is what you want?

     celldm(1)=  20.370149  celldm(2)=   0.000000  celldm(3)=   0.000000
     celldm(4)=   0.000000  celldm(5)=   0.000000  celldm(6)=   0.000000

     crystal axes: (cart. coord. in units of alat)
               a(1) = (   1.000000   0.000000   0.000000 )  
               a(2) = (   0.000000   1.000000   0.000000 )  
               a(3) = (   0.000000   0.000000   1.000000 )  

     reciprocal axes: (cart. coord. in units 2 pi/alat)
               b(1) = (  1.000000  0.000000  0.000000 )  
               b(2) = (  0.000000  1.000000  0.000000 )  
               b(3) = (  0.000000  0.000000  1.000000 )  


     PseudoPot. # 1 for Si read from file:
     /home/ppiaggi/pseudos/Si_ONCV_PBE_sr.upf
     MD5 check sum: 8553c464762ac42b85b1eed164b4d029
     Pseudo is Norm-conserving, Zval =  4.0
     Generated using ONCVPSP code by D. R. Hamann
     Using radial grid of 1510 points,  4 beta functions with: 
                l(1) =   0
                l(2) =   0
                l(3) =   1
                l(4) =   1

     atomic species   valence    mass     pseudopotential
        Si             4.00    28.08500     Si( 1.00)

     No symmetry found



   Cartesian axes

     site n.     atom                  positions (alat units)
         1           Si  tau(   1) = (   0.3778680   0.7414640   0.9400560  )
         2           Si  tau(   2) = (   0.3299070   0.7970080   0.3191240  )
         3           Si  tau(   3) = (   0.8091440   0.6089000   0.7204040  )
         4           Si  tau(   4) = (   0.2587140   0.6975770   0.7299460  )
         5           Si  tau(   5) = (   0.7895150   0.0475444   0.1031570  )
         6           Si  tau(   6) = (   0.0125119   0.4875130   0.0923924  )
         7           Si  tau(   7) = (   0.5136570   0.1862760   0.7265710  )
         8           Si  tau(   8) = (   0.1741340   0.4574990   0.9311040  )
         9           Si  tau(   9) = (   0.7192370   0.1576950   0.8848810  )
        10           Si  tau(  10) = (   0.7436850   0.3657930   0.5885510  )
        11           Si  tau(  11) = (   0.2918970   0.8173210   0.5557020  )
        12           Si  tau(  12) = (   0.8635890   0.5091650   0.4985840  )
        13           Si  tau(  13) = (   0.4800330   0.4063200   0.7266230  )
        14           Si  tau(  14) = (   0.9063520   0.8738890   0.6064820  )
        15           Si  tau(  15) = (   0.5002890   0.3171000   0.1185130  )
        16           Si  tau(  16) = (   0.0617472   0.8059070   0.4087250  )
        17           Si  tau(  17) = (   0.2839720   0.2862090   0.9444700  )
        18           Si  tau(  18) = (   0.2505020   0.0491193   0.1996200  )
        19           Si  tau(  19) = (   0.8705560   0.2987500   0.0964789  )
        20           Si  tau(  20) = (   0.1315220   0.4614750   0.3197820  )
        21           Si  tau(  21) = (   0.2605030   0.1144640   0.8080010  )
        22           Si  tau(  22) = (   0.5544180   0.8916340   0.8006920  )
        23           Si  tau(  23) = (   0.4521390   0.0193338   0.3158580  )
        24           Si  tau(  24) = (   0.4830540   0.6657590   0.5395560  )
        25           Si  tau(  25) = (   0.7458900   0.9963940   0.3371270  )
        26           Si  tau(  26) = (   0.3479210   0.9802810   0.9784500  )
        27           Si  tau(  27) = (   0.5482270   0.8725760   0.1376040  )
        28           Si  tau(  28) = (   0.3794040   0.0060856   0.6344770  )
        29           Si  tau(  29) = (   0.0758523   0.5494080   0.5547210  )
        30           Si  tau(  30) = (   0.1379640   0.2645710   0.6715560  )
        31           Si  tau(  31) = (   0.3084300   0.5481630   0.0849961  )
        32           Si  tau(  32) = (   0.6890780   0.3651390   0.2600690  )
        33           Si  tau(  33) = (   0.8612780   0.7745260   0.3065190  )
        34           Si  tau(  34) = (   0.0341171   0.0838670   0.9015120  )
        35           Si  tau(  35) = (   0.6565550   0.6418500   0.0587259  )
        36           Si  tau(  36) = (   0.5050510   0.3812030   0.5039670  )
        37           Si  tau(  37) = (   0.7256580   0.5905540   0.3166450  )
        38           Si  tau(  38) = (   0.9928310   0.0311567   0.4029140  )
        39           Si  tau(  39) = (   0.2122480   0.7696340   0.1291050  )
        40           Si  tau(  40) = (   0.2547260   0.4633170   0.7125960  )
        41           Si  tau(  41) = (   0.7672910   0.1569770   0.5040890  )
        42           Si  tau(  42) = (   0.9903230   0.8027160   0.1379380  )
        43           Si  tau(  43) = (   0.5687110   0.6515680   0.7608990  )
        44           Si  tau(  44) = (   0.0247657   0.0371186   0.1221390  )
        45           Si  tau(  45) = (   0.6979370   0.0159691   0.6594310  )
        46           Si  tau(  46) = (   0.2951150   0.3574310   0.4689420  )
        47           Si  tau(  47) = (   0.7841790   0.3590660   0.7974590  )
        48           Si  tau(  48) = (   0.0302969   0.7364350   0.7146860  )
        49           Si  tau(  49) = (   0.9905890   0.2988840   0.8849380  )
        50           Si  tau(  50) = (   0.4225190   0.4830750   0.2755670  )
        51           Si  tau(  51) = (   0.5187040   0.4656340   0.9748020  )
        52           Si  tau(  52) = (   0.9301880   0.7424040   0.9377940  )
        53           Si  tau(  53) = (   0.7221670   0.8815170   0.9478070  )
        54           Si  tau(  54) = (   0.8750920   0.9494510   0.8203120  )
        55           Si  tau(  55) = (   0.7241610   0.7418950   0.5244460  )
        56           Si  tau(  56) = (   0.0172385   0.2472220   0.2609720  )
        57           Si  tau(  57) = (   0.2714270   0.2604440   0.1869580  )
        58           Si  tau(  58) = (   0.5252900   0.6888900   0.3100980  )
        59           Si  tau(  59) = (   0.9770040   0.2766130   0.5101540  )
        60           Si  tau(  60) = (   0.5015920   0.1396190   0.9570470  )
        61           Si  tau(  61) = (   0.5723540   0.9223260   0.4845670  )
        62           Si  tau(  62) = (   0.8201920   0.5359000   0.9699850  )
        63           Si  tau(  63) = (   0.5519710   0.2136480   0.3703440  )
        64           Si  tau(  64) = (   0.2589430   0.1116730   0.4702640  )

     number of k points=     1
                       cart. coord. in units 2pi/alat
        k(    1) = (   0.0000000   0.0000000   0.0000000), wk =   2.0000000

     Dense  grid:    93876 G-vectors     FFT dimensions: (  72,  72,  72)

     Estimated max dynamical RAM per process >     137.64 MB

     Estimated total dynamical RAM >     527.65 MB

     Initial potential from superposition of free atoms

     starting charge     255.9608, renormalised to     256.0000
     Starting wfcs are  256 randomized atomic wfcs

     total cpu time spent up to now is        4.1 secs

     Self-consistent Calculation

     iteration #  1     ecut=    30.00 Ry     beta= 0.50
     Davidson diagonalization with overlap
     ethr =  1.00E-02,  avg # of iterations =  2.0

     Threshold (ethr) on eigenvalues was too large:
     Diagonalizing with lowered threshold

     Davidson diagonalization with overlap
     ethr =  3.99E-04,  avg # of iterations =  6.0

     total cpu time spent up to now is        4.2 secs

     total energy              =    -500.93441848 Ry
     estimated scf accuracy    <       1.31419531 Ry

     iteration #  2     ecut=    30.00 Ry     beta= 0.50
     Davidson diagonalization with overlap
     ethr =  5.13E-04,  avg # of iterations = 13.0

     total cpu time spent up to now is        4.4 secs

     total energy              =    -500.47243276 Ry
     estimated scf accuracy    <       6.17217412 Ry

     iteration #  3     ecut=    30.00 Ry     beta= 0.50
     Davidson diagonalization with overlap
     ethr =  5.13E-04,  avg # of iterations = 12.0

     total cpu time spent up to now is        4.5 secs

     total energy              =    -500.99449030 Ry
     estimated scf accuracy    <       2.52868043 Ry

     iteration #  4     ecut=    30.00 Ry     beta= 0.50
     Davidson diagonalization with overlap
     ethr =  5.13E-04,  avg # of iterations =  7.0

     total cpu time spent up to now is        4.6 secs

     total energy              =    -501.18620048 Ry
     estimated scf accuracy    <       0.40723652 Ry

     iteration #  5     ecut=    30.00 Ry     beta= 0.50
     Davidson diagonalization with overlap
     ethr =  1.59E-04,  avg # of iterations = 16.0

     total cpu time spent up to now is        4.8 secs

     total energy              =    -501.22104684 Ry
     estimated scf accuracy    <       0.38685212 Ry

     iteration #  6     ecut=    30.00 Ry     beta= 0.50
     Davidson diagonalization with overlap
     ethr =  1.51E-04,  avg # of iterations =  3.0

     total cpu time spent up to now is        4.9 secs

     total energy              =    -501.25157675 Ry
     estimated scf accuracy    <       0.08768324 Ry

     iteration #  7     ecut=    30.00 Ry     beta= 0.50
     Davidson diagonalization with overlap
     ethr =  3.43E-05,  avg # of iterations = 13.0

     total cpu time spent up to now is        5.0 secs

     total energy              =    -501.25720926 Ry
     estimated scf accuracy    <       0.03398960 Ry

     iteration #  8     ecut=    30.00 Ry     beta= 0.50
     Davidson diagonalization with overlap
     ethr =  1.33E-05,  avg # of iterations =  8.0

     total cpu time spent up to now is        5.1 secs

     total energy              =    -501.26009454 Ry
     estimated scf accuracy    <       0.00997216 Ry

     iteration #  9     ecut=    30.00 Ry     beta= 0.50
     Davidson diagonalization with overlap
     c_bands:  1 eigenvalues not converged
     ethr =  3.90E-06,  avg # of iterations = 20.0

     total cpu time spent up to now is        5.3 secs

     total energy              =    -501.26409283 Ry
     estimated scf accuracy    <       0.04636447 Ry

     iteration # 10     ecut=    30.00 Ry     beta= 0.50
     Davidson diagonalization with overlap
     c_bands:  1 eigenvalues not converged
     ethr =  3.90E-06,  avg # of iterations = 20.0

     total cpu time spent up to now is        5.4 secs

     total energy              =    -501.26501005 Ry
     estimated scf accuracy    <       0.02570340 Ry

     iteration # 11     ecut=    30.00 Ry     beta= 0.50
     Davidson diagonalization with overlap
     ethr =  3.90E-06,  avg # of iterations =  2.0

     total cpu time spent up to now is        5.5 secs

     total energy              =    -501.26316548 Ry
     estimated scf accuracy    <       0.02119334 Ry

     iteration # 12     ecut=    30.00 Ry     beta= 0.50
     Davidson diagonalization with overlap
     ethr =  3.90E-06,  avg # of iterations =  2.0

     total cpu time spent up to now is        5.6 secs

     total energy              =    -501.26208893 Ry
     estimated scf accuracy    <       0.01352642 Ry

     iteration # 13     ecut=    30.00 Ry     beta= 0.50
     Davidson diagonalization with overlap
     ethr =  3.90E-06,  avg # of iterations = 15.0

     total cpu time spent up to now is        5.7 secs

     total energy              =    -501.26248339 Ry
     estimated scf accuracy    <       0.00447510 Ry

     iteration # 14     ecut=    30.00 Ry     beta= 0.50
     Davidson diagonalization with overlap
     ethr =  1.75E-06,  avg # of iterations =  8.0

     total cpu time spent up to now is        5.8 secs

     total energy              =    -501.26226024 Ry
     estimated scf accuracy    <       0.00224265 Ry

     iteration # 15     ecut=    30.00 Ry     beta= 0.50
     Davidson diagonalization with overlap
     c_bands:  1 eigenvalues not converged
     ethr =  8.76E-07,  avg # of iterations = 20.0

     total cpu time spent up to now is        6.0 secs

     total energy              =    -501.26575025 Ry
     estimated scf accuracy    <       0.05952790 Ry

     iteration # 16     ecut=    30.00 Ry     beta= 0.50
     Davidson diagonalization with overlap
     c_bands:  1 eigenvalues not converged
     ethr =  8.76E-07,  avg # of iterations = 20.0

     total cpu time spent up to now is        6.1 secs

     total energy              =    -501.26538421 Ry
     estimated scf accuracy    <       0.03119834 Ry

     iteration # 17     ecut=    30.00 Ry     beta= 0.50
     Davidson diagonalization with overlap
     ethr =  8.76E-07,  avg # of iterations = 15.0

     total cpu time spent up to now is        6.3 secs

     total energy              =    -501.26469642 Ry
     estimated scf accuracy    <       0.02388893 Ry

     iteration # 18     ecut=    30.00 Ry     beta= 0.50
     Davidson diagonalization with overlap
     ethr =  8.76E-07,  avg # of iterations =  2.0

     total cpu time spent up to now is        6.3 secs

     total energy              =    -501.26372790 Ry
     estimated scf accuracy    <       0.01992598 Ry

     iteration # 19     ecut=    30.00 Ry     beta= 0.50
     Davidson diagonalization with overlap
     c_bands:  1 eigenvalues not converged
     ethr =  8.76E-07,  avg # of iterations = 20.0

     total cpu time spent up to now is        6.5 secs

     total energy              =    -501.26358713 Ry
     estimated scf accuracy    <       0.01243588 Ry

     iteration # 20     ecut=    30.00 Ry     beta= 0.50
     Davidson diagonalization with overlap
     ethr =  8.76E-07,  avg # of iterations = 14.0

     total cpu time spent up to now is        6.6 secs

     total energy              =    -501.26350196 Ry
     estimated scf accuracy    <       0.01011665 Ry

     iteration # 21     ecut=    30.00 Ry     beta= 0.50
     Davidson diagonalization with overlap
     ethr =  8.76E-07,  avg # of iterations =  2.0

     total cpu time spent up to now is        6.7 secs

     total energy              =    -501.26257539 Ry
     estimated scf accuracy    <       0.00883291 Ry

     iteration # 22     ecut=    30.00 Ry     beta= 0.50
     Davidson diagonalization with overlap
     c_bands:  1 eigenvalues not converged
     ethr =  8.76E-07,  avg # of iterations = 20.0

     total cpu time spent up to now is        6.8 secs

     total energy              =    -501.26270544 Ry
     estimated scf accuracy    <       0.00358054 Ry

     iteration # 23     ecut=    30.00 Ry     beta= 0.50
     Davidson diagonalization with overlap
     c_bands:  1 eigenvalues not converged
     ethr =  8.76E-07,  avg # of iterations = 20.0

     total cpu time spent up to now is        7.0 secs

     total energy              =    -501.26384211 Ry
     estimated scf accuracy    <       0.00485003 Ry

     iteration # 24     ecut=    30.00 Ry     beta= 0.50
     Davidson diagonalization with overlap
     c_bands:  1 eigenvalues not converged
     ethr =  8.76E-07,  avg # of iterations = 20.0

     total cpu time spent up to now is        7.1 secs

     total energy              =    -501.26501487 Ry
     estimated scf accuracy    <       0.02653883 Ry

     iteration # 25     ecut=    30.00 Ry     beta= 0.50
     Davidson diagonalization with overlap
     c_bands:  1 eigenvalues not converged
     ethr =  8.76E-07,  avg # of iterations = 20.0

     total cpu time spent up to now is        7.3 secs

     total energy              =    -501.26498323 Ry
     estimated scf accuracy    <       0.02303973 Ry

     iteration # 26     ecut=    30.00 Ry     beta= 0.50
     Davidson diagonalization with overlap
     ethr =  8.76E-07,  avg # of iterations = 10.0

     total cpu time spent up to now is        7.4 secs

     total energy              =    -501.26483074 Ry
     estimated scf accuracy    <       0.01709783 Ry

     iteration # 27     ecut=    30.00 Ry     beta= 0.50
     Davidson diagonalization with overlap
     ethr =  8.76E-07,  avg # of iterations =  1.0

     total cpu time spent up to now is        7.5 secs

     total energy              =    -501.26446208 Ry
     estimated scf accuracy    <       0.01544285 Ry

     iteration # 28     ecut=    30.00 Ry     beta= 0.50
     Davidson diagonalization with overlap
     ethr =  8.76E-07,  avg # of iterations =  1.0

     total cpu time spent up to now is        7.6 secs

     total energy              =    -501.26420457 Ry
     estimated scf accuracy    <       0.01349243 Ry

     iteration # 29     ecut=    30.00 Ry     beta= 0.50
     Davidson diagonalization with overlap
     ethr =  8.76E-07,  avg # of iterations =  2.0

     total cpu time spent up to now is        7.6 secs

     total energy              =    -501.26379206 Ry
     estimated scf accuracy    <       0.01188653 Ry

     iteration # 30     ecut=    30.00 Ry     beta= 0.50
     Davidson diagonalization with overlap
     ethr =  8.76E-07,  avg # of iterations =  1.0

     total cpu time spent up to now is        7.7 secs

     total energy              =    -501.26003839 Ry
     estimated scf accuracy    <       0.00970788 Ry

     iteration # 31     ecut=    30.00 Ry     beta= 0.50
     Davidson diagonalization with overlap
     c_bands:  2 eigenvalues not converged
     ethr =  8.76E-07,  avg # of iterations = 20.0

     total cpu time spent up to now is        7.9 secs

     total energy              =    -501.27002047 Ry
     estimated scf accuracy    <       0.08655547 Ry

     iteration # 32     ecut=    30.00 Ry     beta= 0.50
     Davidson diagonalization with overlap
     ethr =  8.76E-07,  avg # of iterations = 16.0

     total cpu time spent up to now is        8.0 secs

     total energy              =    -501.26365153 Ry
     estimated scf accuracy    <       0.05688283 Ry

     iteration # 33     ecut=    30.00 Ry     beta= 0.50
     Davidson diagonalization with overlap
     ethr =  8.76E-07,  avg # of iterations = 15.0

     total cpu time spent up to now is        8.2 secs

     total energy              =    -501.26426822 Ry
     estimated scf accuracy    <       0.01554702 Ry

     iteration # 34     ecut=    30.00 Ry     beta= 0.50
     Davidson diagonalization with overlap
     ethr =  8.76E-07,  avg # of iterations =  2.0

     total cpu time spent up to now is        8.3 secs

     total energy              =    -501.26402199 Ry
     estimated scf accuracy    <       0.01185639 Ry

     iteration # 35     ecut=    30.00 Ry     beta= 0.50
     Davidson diagonalization with overlap
     ethr =  8.76E-07,  avg # of iterations =  1.0

     total cpu time spent up to now is        8.3 secs

     total energy              =    -501.26362925 Ry
     estimated scf accuracy    <       0.01033656 Ry

     iteration # 36     ecut=    30.00 Ry     beta= 0.50
     Davidson diagonalization with overlap
     ethr =  8.76E-07,  avg # of iterations =  1.0

     total cpu time spent up to now is        8.4 secs

     total energy              =    -501.26331508 Ry
     estimated scf accuracy    <       0.00846984 Ry

     iteration # 37     ecut=    30.00 Ry     beta= 0.50
     Davidson diagonalization with overlap
     ethr =  8.76E-07,  avg # of iterations =  2.0

     total cpu time spent up to now is        8.5 secs

     total energy              =    -501.26289349 Ry
     estimated scf accuracy    <       0.00678308 Ry

     iteration # 38     ecut=    30.00 Ry     beta= 0.50
     Davidson diagonalization with overlap
     ethr =  8.76E-07,  avg # of iterations =  2.0

     total cpu time spent up to now is        8.5 secs

     total energy              =    -501.26292156 Ry
     estimated scf accuracy    <       0.00469892 Ry

     iteration # 39     ecut=    30.00 Ry     beta= 0.50
     Davidson diagonalization with overlap
     ethr =  8.76E-07,  avg # of iterations =  1.0

     total cpu time spent up to now is        8.6 secs

     total energy              =    -501.26173716 Ry
     estimated scf accuracy    <       0.00421482 Ry

     iteration # 40     ecut=    30.00 Ry     beta= 0.50
     Davidson diagonalization with overlap
     c_bands:  1 eigenvalues not converged
     ethr =  8.76E-07,  avg # of iterations = 20.0

     total cpu time spent up to now is        8.8 secs

     total energy              =    -501.26677005 Ry
     estimated scf accuracy    <       0.03962031 Ry

     iteration # 41     ecut=    30.00 Ry     beta= 0.50
     Davidson diagonalization with overlap
     ethr =  8.76E-07,  avg # of iterations = 18.0

     total cpu time spent up to now is        8.9 secs

     total energy              =    -501.26507932 Ry
     estimated scf accuracy    <       0.03039323 Ry

     iteration # 42     ecut=    30.00 Ry     beta= 0.50
     Davidson diagonalization with overlap
     ethr =  8.76E-07,  avg # of iterations = 14.0

     total cpu time spent up to now is        9.1 secs

     total energy              =    -501.26465583 Ry
     estimated scf accuracy    <       0.01881035 Ry

     iteration # 43     ecut=    30.00 Ry     beta= 0.50
     Davidson diagonalization with overlap
     ethr =  8.76E-07,  avg # of iterations =  2.0

     total cpu time spent up to now is        9.1 secs

     total energy              =    -501.26415484 Ry
     estimated scf accuracy    <       0.01534108 Ry

     iteration # 44     ecut=    30.00 Ry     beta= 0.50
     Davidson diagonalization with overlap
     ethr =  8.76E-07,  avg # of iterations =  2.0

     total cpu time spent up to now is        9.2 secs

     total energy              =    -501.26361808 Ry
     estimated scf accuracy    <       0.01277140 Ry

     iteration # 45     ecut=    30.00 Ry     beta= 0.50
     Davidson diagonalization with overlap
     ethr =  8.76E-07,  avg # of iterations = 13.0

     total cpu time spent up to now is        9.3 secs

     total energy              =    -501.26377945 Ry
     estimated scf accuracy    <       0.00914553 Ry

     iteration # 46     ecut=    30.00 Ry     beta= 0.50
     Davidson diagonalization with overlap
     ethr =  8.76E-07,  avg # of iterations =  1.0

     total cpu time spent up to now is        9.4 secs

     total energy              =    -501.26474828 Ry
     estimated scf accuracy    <       0.00882188 Ry

     iteration # 47     ecut=    30.00 Ry     beta= 0.50
     Davidson diagonalization with overlap
     ethr =  8.76E-07,  avg # of iterations =  3.0

     total cpu time spent up to now is        9.5 secs

     total energy              =    -501.26414876 Ry
     estimated scf accuracy    <       0.01245569 Ry

     iteration # 48     ecut=    30.00 Ry     beta= 0.50
     Davidson diagonalization with overlap
     ethr =  8.76E-07,  avg # of iterations =  1.0

     total cpu time spent up to now is        9.5 secs

     total energy              =    -501.26089555 Ry
     estimated scf accuracy    <       0.01060845 Ry

     iteration # 49     ecut=    30.00 Ry     beta= 0.50
     Davidson diagonalization with overlap
     c_bands:  1 eigenvalues not converged
     ethr =  8.76E-07,  avg # of iterations = 20.0

     total cpu time spent up to now is        9.7 secs

     total energy              =    -501.26736710 Ry
     estimated scf accuracy    <       0.04826702 Ry

     iteration # 50     ecut=    30.00 Ry     beta= 0.50
     Davidson diagonalization with overlap
     ethr =  8.76E-07,  avg # of iterations =  5.0

     total cpu time spent up to now is        9.8 secs

     total energy              =    -501.26362179 Ry
     estimated scf accuracy    <       0.03700779 Ry

     iteration # 51     ecut=    30.00 Ry     beta= 0.50
     Davidson diagonalization with overlap
     c_bands:  2 eigenvalues not converged
     ethr =  8.76E-07,  avg # of iterations = 20.0

     total cpu time spent up to now is       10.0 secs

     total energy              =    -501.26459209 Ry
     estimated scf accuracy    <       0.01247507 Ry

     iteration # 52     ecut=    30.00 Ry     beta= 0.50
     Davidson diagonalization with overlap
     ethr =  8.76E-07,  avg # of iterations = 13.0

     total cpu time spent up to now is       10.1 secs

     total energy              =    -501.26447772 Ry
     estimated scf accuracy    <       0.01251292 Ry

     iteration # 53     ecut=    30.00 Ry     beta= 0.50
     Davidson diagonalization with overlap
     ethr =  8.76E-07,  avg # of iterations =  1.0

     total cpu time spent up to now is       10.1 secs

     total energy              =    -501.26425148 Ry
     estimated scf accuracy    <       0.01181873 Ry

     iteration # 54     ecut=    30.00 Ry     beta= 0.50
     Davidson diagonalization with overlap
     ethr =  8.76E-07,  avg # of iterations =  1.0

     total cpu time spent up to now is       10.2 secs

     total energy              =    -501.26397413 Ry
     estimated scf accuracy    <       0.01090634 Ry

     iteration # 55     ecut=    30.00 Ry     beta= 0.50
     Davidson diagonalization with overlap
     ethr =  8.76E-07,  avg # of iterations =  1.0

     total cpu time spent up to now is       10.3 secs

     total energy              =    -501.26344939 Ry
     estimated scf accuracy    <       0.00975535 Ry

     iteration # 56     ecut=    30.00 Ry     beta= 0.50
     Davidson diagonalization with overlap
     ethr =  8.76E-07,  avg # of iterations =  1.0

     total cpu time spent up to now is       10.3 secs

     total energy              =    -501.26341851 Ry
     estimated scf accuracy    <       0.00753652 Ry

     iteration # 57     ecut=    30.00 Ry     beta= 0.50
     Davidson diagonalization with overlap
     ethr =  8.76E-07,  avg # of iterations =  1.0

     total cpu time spent up to now is       10.4 secs

     total energy              =    -501.26160950 Ry
     estimated scf accuracy    <       0.00709434 Ry

     iteration # 58     ecut=    30.00 Ry     beta= 0.50
     Davidson diagonalization with overlap
     c_bands:  1 eigenvalues not converged
     ethr =  8.76E-07,  avg # of iterations = 20.0

     total cpu time spent up to now is       10.6 secs

     total energy              =    -501.26693634 Ry
     estimated scf accuracy    <       0.03518393 Ry

     iteration # 59     ecut=    30.00 Ry     beta= 0.50
     Davidson diagonalization with overlap
     c_bands:  1 eigenvalues not converged
     ethr =  8.76E-07,  avg # of iterations = 20.0

     total cpu time spent up to now is       10.7 secs

     total energy              =    -501.26431159 Ry
     estimated scf accuracy    <       0.02958325 Ry

     iteration # 60     ecut=    30.00 Ry     beta= 0.50
     Davidson diagonalization with overlap
     c_bands:  1 eigenvalues not converged
     ethr =  8.76E-07,  avg # of iterations = 20.0

     total cpu time spent up to now is       10.9 secs

     total energy              =    -501.26440308 Ry
     estimated scf accuracy    <       0.01369394 Ry

     iteration # 61     ecut=    30.00 Ry     beta= 0.50
     Davidson diagonalization with overlap
     ethr =  8.76E-07,  avg # of iterations =  2.0

     total cpu time spent up to now is       11.0 secs

     total energy              =    -501.26418607 Ry
     estimated scf accuracy    <       0.01121015 Ry

     iteration # 62     ecut=    30.00 Ry     beta= 0.50
     Davidson diagonalization with overlap
     ethr =  8.76E-07,  avg # of iterations =  1.0

     total cpu time spent up to now is       11.0 secs

     total energy              =    -501.26403713 Ry
     estimated scf accuracy    <       0.00988118 Ry

     iteration # 63     ecut=    30.00 Ry     beta= 0.50
     Davidson diagonalization with overlap
     ethr =  8.76E-07,  avg # of iterations =  1.0

     total cpu time spent up to now is       11.1 secs

     total energy              =    -501.26397468 Ry
     estimated scf accuracy    <       0.00885005 Ry

     iteration # 64     ecut=    30.00 Ry     beta= 0.50
     Davidson diagonalization with overlap
     ethr =  8.76E-07,  avg # of iterations =  1.0

     total cpu time spent up to now is       11.2 secs

     total energy              =    -501.26400433 Ry
     estimated scf accuracy    <       0.00823667 Ry

     iteration # 65     ecut=    30.00 Ry     beta= 0.50
     Davidson diagonalization with overlap
     ethr =  8.76E-07,  avg # of iterations =  1.0

     total cpu time spent up to now is       11.2 secs

     total energy              =    -501.26386679 Ry
     estimated scf accuracy    <       0.00851277 Ry

     iteration # 66     ecut=    30.00 Ry     beta= 0.50
     Davidson diagonalization with overlap
     ethr =  8.76E-07,  avg # of iterations =  2.0

     total cpu time spent up to now is       11.3 secs

     total energy              =    -501.26192036 Ry
     estimated scf accuracy    <       0.00769219 Ry

     iteration # 67     ecut=    30.00 Ry     beta= 0.50
     Davidson diagonalization with overlap
     c_bands:  1 eigenvalues not converged
     ethr =  8.76E-07,  avg # of iterations = 20.0

     total cpu time spent up to now is       11.5 secs

     total energy              =    -501.26631414 Ry
     estimated scf accuracy    <       0.06985369 Ry

     iteration # 68     ecut=    30.00 Ry     beta= 0.50
     Davidson diagonalization with overlap
     ethr =  8.76E-07,  avg # of iterations = 18.0

     total cpu time spent up to now is       11.7 secs

     total energy              =    -501.26542417 Ry
     estimated scf accuracy    <       0.04408562 Ry

     iteration # 69     ecut=    30.00 Ry     beta= 0.50
     Davidson diagonalization with overlap
     c_bands:  1 eigenvalues not converged
     ethr =  8.76E-07,  avg # of iterations = 20.0

     total cpu time spent up to now is       11.8 secs

     total energy              =    -501.26531199 Ry
     estimated scf accuracy    <       0.02574570 Ry

     iteration # 70     ecut=    30.00 Ry     beta= 0.50
     Davidson diagonalization with overlap
     ethr =  8.76E-07,  avg # of iterations = 16.0

     total cpu time spent up to now is       12.0 secs

     total energy              =    -501.26465393 Ry
     estimated scf accuracy    <       0.02267220 Ry

     iteration # 71     ecut=    30.00 Ry     beta= 0.50
     Davidson diagonalization with overlap
     ethr =  8.76E-07,  avg # of iterations =  2.0

     total cpu time spent up to now is       12.0 secs

     total energy              =    -501.26401924 Ry
     estimated scf accuracy    <       0.01857818 Ry

     iteration # 72     ecut=    30.00 Ry     beta= 0.50
     Davidson diagonalization with overlap
     ethr =  8.76E-07,  avg # of iterations =  2.0

     total cpu time spent up to now is       12.1 secs

     total energy              =    -501.26358047 Ry
     estimated scf accuracy    <       0.01552944 Ry

     iteration # 73     ecut=    30.00 Ry     beta= 0.50
     Davidson diagonalization with overlap
     ethr =  8.76E-07,  avg # of iterations =  1.0

     total cpu time spent up to now is       12.2 secs

     total energy              =    -501.26335063 Ry
     estimated scf accuracy    <       0.01310056 Ry

     iteration # 74     ecut=    30.00 Ry     beta= 0.50
     Davidson diagonalization with overlap
     ethr =  8.76E-07,  avg # of iterations =  1.0

     total cpu time spent up to now is       12.2 secs

     total energy              =    -501.26273424 Ry
     estimated scf accuracy    <       0.01157658 Ry

     iteration # 75     ecut=    30.00 Ry     beta= 0.50
     Davidson diagonalization with overlap
     ethr =  8.76E-07,  avg # of iterations =  6.0

     total cpu time spent up to now is       12.3 secs

     total energy              =    -501.26079138 Ry
     estimated scf accuracy    <       0.00763936 Ry

     iteration # 76     ecut=    30.00 Ry     beta= 0.50
     Davidson diagonalization with overlap
     ethr =  8.76E-07,  avg # of iterations = 20.0

     total cpu time spent up to now is       12.5 secs

     total energy              =    -501.26769997 Ry
     estimated scf accuracy    <       0.04900265 Ry

     iteration # 77     ecut=    30.00 Ry     beta= 0.50
     Davidson diagonalization with overlap
     ethr =  8.76E-07,  avg # of iterations =  5.0

     total cpu time spent up to now is       12.6 secs

     total energy              =    -501.26436677 Ry
     estimated scf accuracy    <       0.03842067 Ry

     iteration # 78     ecut=    30.00 Ry     beta= 0.50
     Davidson diagonalization with overlap
     c_bands:  1 eigenvalues not converged
     ethr =  8.76E-07,  avg # of iterations = 20.0

     total cpu time spent up to now is       12.8 secs

     total energy              =    -501.26410748 Ry
     estimated scf accuracy    <       0.01777871 Ry

     iteration # 79     ecut=    30.00 Ry     beta= 0.50
     Davidson diagonalization with overlap
     ethr =  8.76E-07,  avg # of iterations = 12.0

     total cpu time spent up to now is       12.9 secs

     total energy              =    -501.26404266 Ry
     estimated scf accuracy    <       0.01125019 Ry

     iteration # 80     ecut=    30.00 Ry     beta= 0.50
     Davidson diagonalization with overlap
     ethr =  8.76E-07,  avg # of iterations =  2.0

     total cpu time spent up to now is       13.0 secs

     total energy              =    -501.26419300 Ry
     estimated scf accuracy    <       0.00966211 Ry

     iteration # 81     ecut=    30.00 Ry     beta= 0.50
     Davidson diagonalization with overlap
     ethr =  8.76E-07,  avg # of iterations =  1.0

     total cpu time spent up to now is       13.0 secs

     total energy              =    -501.26421731 Ry
     estimated scf accuracy    <       0.00971748 Ry

     iteration # 82     ecut=    30.00 Ry     beta= 0.50
     Davidson diagonalization with overlap
     ethr =  8.76E-07,  avg # of iterations =  2.0

     total cpu time spent up to now is       13.1 secs

     total energy              =    -501.26411755 Ry
     estimated scf accuracy    <       0.01005698 Ry

     iteration # 83     ecut=    30.00 Ry     beta= 0.50
     Davidson diagonalization with overlap
     ethr =  8.76E-07,  avg # of iterations =  2.0

     total cpu time spent up to now is       13.2 secs

     total energy              =    -501.26360263 Ry
     estimated scf accuracy    <       0.00981360 Ry

     iteration # 84     ecut=    30.00 Ry     beta= 0.50
     Davidson diagonalization with overlap
     ethr =  8.76E-07,  avg # of iterations =  1.0

     total cpu time spent up to now is       13.2 secs

     total energy              =    -501.26174782 Ry
     estimated scf accuracy    <       0.00772391 Ry

     iteration # 85     ecut=    30.00 Ry     beta= 0.50
     Davidson diagonalization with overlap
     c_bands:  1 eigenvalues not converged
     ethr =  8.76E-07,  avg # of iterations = 20.0

     total cpu time spent up to now is       13.4 secs

     total energy              =    -501.26611630 Ry
     estimated scf accuracy    <       0.04848538 Ry

     iteration # 86     ecut=    30.00 Ry     beta= 0.50
     Davidson diagonalization with overlap
     c_bands:  1 eigenvalues not converged
     ethr =  8.76E-07,  avg # of iterations = 20.0

     total cpu time spent up to now is       13.6 secs

     total energy              =    -501.26504861 Ry
     estimated scf accuracy    <       0.02943701 Ry

     iteration # 87     ecut=    30.00 Ry     beta= 0.50
     Davidson diagonalization with overlap
     c_bands:  1 eigenvalues not converged
     ethr =  8.76E-07,  avg # of iterations = 20.0

     total cpu time spent up to now is       13.8 secs

     total energy              =    -501.26457654 Ry
     estimated scf accuracy    <       0.02284528 Ry

     iteration # 88     ecut=    30.00 Ry     beta= 0.50
     Davidson diagonalization with overlap
     ethr =  8.76E-07,  avg # of iterations =  8.0

     total cpu time spent up to now is       13.9 secs

     total energy              =    -501.26436578 Ry
     estimated scf accuracy    <       0.01716712 Ry

     iteration # 89     ecut=    30.00 Ry     beta= 0.50
     Davidson diagonalization with overlap
     ethr =  8.76E-07,  avg # of iterations =  1.0

     total cpu time spent up to now is       13.9 secs

     total energy              =    -501.26429523 Ry
     estimated scf accuracy    <       0.01543233 Ry

     iteration # 90     ecut=    30.00 Ry     beta= 0.50
     Davidson diagonalization with overlap
     ethr =  8.76E-07,  avg # of iterations =  1.0

     total cpu time spent up to now is       14.0 secs

     total energy              =    -501.26445678 Ry
     estimated scf accuracy    <       0.01450723 Ry

     iteration # 91     ecut=    30.00 Ry     beta= 0.50
     Davidson diagonalization with overlap
     ethr =  8.76E-07,  avg # of iterations =  1.0

     total cpu time spent up to now is       14.1 secs

     total energy              =    -501.26381569 Ry
     estimated scf accuracy    <       0.01439850 Ry

     iteration # 92     ecut=    30.00 Ry     beta= 0.50
     Davidson diagonalization with overlap
     ethr =  8.76E-07,  avg # of iterations =  2.0

     total cpu time spent up to now is       14.1 secs

     total energy              =    -501.26370811 Ry
     estimated scf accuracy    <       0.01199903 Ry

     iteration # 93     ecut=    30.00 Ry     beta= 0.50
     Davidson diagonalization with overlap
     ethr =  8.76E-07,  avg # of iterations =  1.0

     total cpu time spent up to now is       14.2 secs

     total energy              =    -501.26040559 Ry
     estimated scf accuracy    <       0.01099351 Ry

     iteration # 94     ecut=    30.00 Ry     beta= 0.50
     Davidson diagonalization with overlap
     c_bands:  2 eigenvalues not converged
     ethr =  8.76E-07,  avg # of iterations = 20.0

     total cpu time spent up to now is       14.4 secs

     total energy              =    -501.26650166 Ry
     estimated scf accuracy    <       0.06906076 Ry

     iteration # 95     ecut=    30.00 Ry     beta= 0.50
     Davidson diagonalization with overlap
     c_bands:  1 eigenvalues not converged
     ethr =  8.76E-07,  avg # of iterations = 20.0

     total cpu time spent up to now is       14.5 secs

     total energy              =    -501.26382562 Ry
     estimated scf accuracy    <       0.04941353 Ry

     iteration # 96     ecut=    30.00 Ry     beta= 0.50
     Davidson diagonalization with overlap
     c_bands:  1 eigenvalues not converged
     ethr =  8.76E-07,  avg # of iterations = 20.0

     total cpu time spent up to now is       14.7 secs

     total energy              =    -501.26448508 Ry
     estimated scf accuracy    <       0.02540384 Ry

     iteration # 97     ecut=    30.00 Ry     beta= 0.50
     Davidson diagonalization with overlap
     ethr =  8.76E-07,  avg # of iterations = 13.0

     total cpu time spent up to now is       14.8 secs

     total energy              =    -501.26466612 Ry
     estimated scf accuracy    <       0.01462270 Ry

     iteration # 98     ecut=    30.00 Ry     beta= 0.50
     Davidson diagonalization with overlap
     ethr =  8.76E-07,  avg # of iterations =  1.0

     total cpu time spent up to now is       14.9 secs

     total energy              =    -501.26445511 Ry
     estimated scf accuracy    <       0.01279005 Ry

     iteration # 99     ecut=    30.00 Ry     beta= 0.50
     Davidson diagonalization with overlap
     ethr =  8.76E-07,  avg # of iterations =  1.0

     total cpu time spent up to now is       15.0 secs

     total energy              =    -501.26426802 Ry
     estimated scf accuracy    <       0.01173224 Ry

     iteration #100     ecut=    30.00 Ry     beta= 0.50
     Davidson diagonalization with overlap
     ethr =  8.76E-07,  avg # of iterations =  1.0

     total cpu time spent up to now is       15.0 secs

     total energy              =    -501.26414462 Ry
     estimated scf accuracy    <       0.01069270 Ry

     End of self-consistent calculation

     convergence NOT achieved after 100 iterations: stopping

     Writing config to output data dir ./pwscf.save/
     Message from routine punch:
     wavefunctions written to file
 
     init_run     :      0.94s CPU      4.02s WALL (       1 calls)
     electrons    :     10.50s CPU     10.98s WALL (       1 calls)

     Called by init_run:
     wfcinit      :      0.43s CPU      3.37s WALL (       1 calls)
                                        3.37s GPU  (       1 calls)
     potinit      :      0.04s CPU      0.11s WALL (       1 calls)
     hinit0       :      0.45s CPU      0.47s WALL (       1 calls)

     Called by electrons:
     c_bands      :      7.37s CPU      7.63s WALL (     101 calls)
     sum_band     :      1.47s CPU      1.62s WALL (     101 calls)
     v_of_rho     :      0.56s CPU      0.66s WALL (     101 calls)
     mix_rho      :      0.90s CPU      0.93s WALL (     101 calls)

     Called by c_bands:
     init_us_2    :      0.25s CPU      0.27s WALL (     203 calls)
     init_us_2:gp :      0.24s CPU      0.26s WALL (     203 calls)
     regterg      :      6.61s CPU      6.83s WALL (     101 calls)

     Called by *egterg:
     rdiaghg      :      3.24s CPU      3.89s WALL (    1001 calls)
                                        3.75s GPU  (    1001 calls)
     h_psi        :      2.87s CPU      5.35s WALL (    1003 calls)
                                        5.33s GPU  (    1003 calls)
     g_psi        :      0.00s CPU      0.02s WALL (     901 calls)
                                        0.02s GPU  (     901 calls)

     Called by h_psi:
     h_psi:calbec :      0.69s CPU      3.01s WALL (    1003 calls)
                                        3.01s GPU  (    1003 calls)
     vloc_psi     :      1.61s CPU      1.76s WALL (    1003 calls)
                                        1.74s GPU  (    1003 calls)
     add_vuspsi   :      0.44s CPU      0.52s WALL (    1003 calls)
                                        0.52s GPU  (    1003 calls)

     General routines
     calbec       :      0.68s CPU      3.00s WALL (    1003 calls)
     fft          :      0.90s CPU      1.04s WALL (     809 calls)
                                        0.17s GPU  (     505 calls)
     ffts         :      0.16s CPU      0.18s WALL (     101 calls)
     fftw         :      1.96s CPU      2.44s WALL (    9878 calls)
                                        2.11s GPU  (    9878 calls)
     davcio       :      0.00s CPU      0.01s WALL (      19 calls)
 
     Parallel routines
 
     PWSCF        :     11.48s CPU     15.08s WALL

 
   This run was terminated on:  15: 8:24   9May2023            

=------------------------------------------------------------------------------=
   JOB DONE.
=------------------------------------------------------------------------------=
