An instance of this daemon is already running
An instance of this daemon is already running
An instance of this daemon is already running

     Program PWSCF v.7.1 starts on  9May2023 at 15:12:12 

     This program is part of the open-source Quantum ESPRESSO suite
     for quantum simulation of materials; please cite
         "P. Giannozzi et al., J. Phys.:Condens. Matter 21 395502 (2009);
         "P. Giannozzi et al., J. Phys.:Condens. Matter 29 465901 (2017);
         "P. Giannozzi et al., J. Chem. Phys. 152 154105 (2020);
          URL http://www.quantum-espresso.org", 
     in publications or presentations arising from this work. More details at
     http://www.quantum-espresso.org/quote

     Parallel version (MPI & OpenMP), running on       4 processor cores
     Number of MPI processes:                 4
     Threads/MPI process:                     1

     MPI processes distributed on     1 nodes
     66261 MiB available memory on the printing compute node when the environment starts
 
     Reading input from pw-si-35.in
Warning: card &CELL ignored
Warning: card / ignored

     Current dimensions of program PWSCF are:
     Max number of different atomic species (ntypx) = 10
     Max number of k-points (npk) =  40000
     Max angular momentum in pseudopotentials (lmaxx) =  4

     IMPORTANT: XC functional enforced from input :
     Exchange-correlation= PBE
                           (   1   4   3   4   0   0   0)
     Any further DFT definition will be discarded
     Please, verify this is what you really want


     gamma-point specific algorithms are used
 
     K-points division:     npool     =       2
     R & G space division:  proc/nbgrp/npool/nimage =       2
     Subspace diagonalization in iterative solution of the eigenvalue problem:
     a serial algorithm will be used

     Message from routine divide_et_impera:
     suboptimal parallelization: some nodes have no k-points
 
     Parallelization info
     --------------------
     sticks:   dense  smooth     PW     G-vecs:    dense   smooth      PW
     Min        1954    1954    520                92150    92150   12584
     Max        1955    1955    521                92157    92157   12589
     Sum        3909    3909   1041               184307   184307   25173
 
     Using Slab Decomposition
 


     bravais-lattice index     =            0
     lattice parameter (alat)  =      20.2477  a.u.
     unit-cell volume          =    8300.9341 (a.u.)^3
     number of atoms/cell      =           64
     number of atomic types    =            1
     number of electrons       =       256.00
     number of Kohn-Sham states=          128
     kinetic-energy cutoff     =      30.0000  Ry
     charge density cutoff     =     120.0000  Ry
     scf convergence threshold =      1.0E-06
     mixing beta               =       0.5000
     number of iterations used =            8  plain     mixing
     Exchange-correlation= PBE
                           (   1   4   3   4   0   0   0)

     GPU acceleration is ACTIVE.
     GPU-aware MPI enabled

     Message from routine print_cuda_info:
     High GPU oversubscription detected. Are you sure this is what you want?

     celldm(1)=  20.247698  celldm(2)=   0.000000  celldm(3)=   0.000000
     celldm(4)=   0.000000  celldm(5)=   0.000000  celldm(6)=   0.000000

     crystal axes: (cart. coord. in units of alat)
               a(1) = (   1.000000   0.000000   0.000000 )  
               a(2) = (   0.000000   1.000000   0.000000 )  
               a(3) = (   0.000000   0.000000   1.000000 )  

     reciprocal axes: (cart. coord. in units 2 pi/alat)
               b(1) = (  1.000000  0.000000  0.000000 )  
               b(2) = (  0.000000  1.000000  0.000000 )  
               b(3) = (  0.000000  0.000000  1.000000 )  


     PseudoPot. # 1 for Si read from file:
     /home/ppiaggi/pseudos/Si_ONCV_PBE_sr.upf
     MD5 check sum: 8553c464762ac42b85b1eed164b4d029
     Pseudo is Norm-conserving, Zval =  4.0
     Generated using ONCVPSP code by D. R. Hamann
     Using radial grid of 1510 points,  4 beta functions with: 
                l(1) =   0
                l(2) =   0
                l(3) =   1
                l(4) =   1

     atomic species   valence    mass     pseudopotential
        Si             4.00    28.08500     Si( 1.00)

     No symmetry found



   Cartesian axes

     site n.     atom                  positions (alat units)
         1           Si  tau(   1) = (   0.5110310   0.5668670   0.7836010  )
         2           Si  tau(   2) = (   0.3859230   0.3914580   0.4079900  )
         3           Si  tau(   3) = (   0.7333090   0.8859220   0.9668820  )
         4           Si  tau(   4) = (   0.1482700   0.2133140   0.2942560  )
         5           Si  tau(   5) = (   0.6505520   0.3647280   0.7595100  )
         6           Si  tau(   6) = (   0.3970410   0.1621580   0.9095540  )
         7           Si  tau(   7) = (   0.4551600   0.7858690   0.8457630  )
         8           Si  tau(   8) = (   0.7956600   0.4853210   0.6140120  )
         9           Si  tau(   9) = (   0.8513430   0.9046650   0.7478850  )
        10           Si  tau(  10) = (   0.3453530   0.4256890   0.8104850  )
        11           Si  tau(  11) = (   0.5995520   0.4010870   0.1386520  )
        12           Si  tau(  12) = (   0.5684270   0.9519840   0.7689600  )
        13           Si  tau(  13) = (   0.1361990   0.8679780   0.3587390  )
        14           Si  tau(  14) = (   0.5882620   0.0580542   0.0138533  )
        15           Si  tau(  15) = (   0.6641910   0.1599500   0.4603810  )
        16           Si  tau(  16) = (   0.8460160   0.7071930   0.5154750  )
        17           Si  tau(  17) = (   0.8317630   0.2907730   0.1706610  )
        18           Si  tau(  18) = (   0.7276300   0.2603180   0.9493260  )
        19           Si  tau(  19) = (   0.2665990   0.7647200   0.7208190  )
        20           Si  tau(  20) = (   0.1468690   0.4072230   0.0705733  )
        21           Si  tau(  21) = (   0.0476571   0.7878500   0.5368600  )
        22           Si  tau(  22) = (   0.4372230   0.5913400   0.0783132  )
        23           Si  tau(  23) = (   0.6226470   0.9553950   0.2916500  )
        24           Si  tau(  24) = (   0.8871110   0.2148240   0.5466460  )
        25           Si  tau(  25) = (   0.6693450   0.6532910   0.0217469  )
        26           Si  tau(  26) = (   0.2086630   0.5339050   0.3821940  )
        27           Si  tau(  27) = (   0.3530510   0.9950660   0.1190260  )
        28           Si  tau(  28) = (   0.3097410   0.8135240   0.0230109  )
        29           Si  tau(  29) = (   0.0244209   0.1695150   0.0900222  )
        30           Si  tau(  30) = (   0.1827870   0.0866353   0.9134140  )
        31           Si  tau(  31) = (   0.7138670   0.9056620   0.5288590  )
        32           Si  tau(  32) = (   0.0414389   0.3881130   0.3509470  )
        33           Si  tau(  33) = (   0.3652920   0.3649550   0.0345386  )
        34           Si  tau(  34) = (   0.0048719   0.4210840   0.6144970  )
        35           Si  tau(  35) = (   0.3791430   0.6669510   0.2891140  )
        36           Si  tau(  36) = (   0.9681140   0.2557960   0.8759230  )
        37           Si  tau(  37) = (   0.9377930   0.4958330   0.1835040  )
        38           Si  tau(  38) = (   0.4484780   0.6039740   0.5754500  )
        39           Si  tau(  39) = (   0.0525528   0.9464450   0.7219140  )
        40           Si  tau(  40) = (   0.2747730   0.1142830   0.5193320  )
        41           Si  tau(  41) = (   0.3743400   0.9100250   0.3463300  )
        42           Si  tau(  42) = (   0.5871110   0.1874120   0.2463920  )
        43           Si  tau(  43) = (   0.0387709   0.0544184   0.4450590  )
        44           Si  tau(  44) = (   0.0984771   0.4468390   0.8526230  )
        45           Si  tau(  45) = (   0.7490190   0.4062040   0.4115830  )
        46           Si  tau(  46) = (   0.5107160   0.8208600   0.5224570  )
        47           Si  tau(  47) = (   0.1019800   0.1884890   0.6775100  )
        48           Si  tau(  48) = (   0.8238970   0.6359930   0.3219400  )
        49           Si  tau(  49) = (   0.3611230   0.9517740   0.6264320  )
        50           Si  tau(  50) = (   0.6861800   0.7594490   0.2212480  )
        51           Si  tau(  51) = (   0.3737500   0.2218080   0.2347220  )
        52           Si  tau(  52) = (   0.9867720   0.7940060   0.2126650  )
        53           Si  tau(  53) = (   0.1523970   0.6381530   0.1551940  )
        54           Si  tau(  54) = (   0.8188280   0.5072160   0.9780440  )
        55           Si  tau(  55) = (   0.0244939   0.6471340   0.8217950  )
        56           Si  tau(  56) = (   0.1700050   0.5890770   0.6085690  )
        57           Si  tau(  57) = (   0.8632110   0.0495260   0.2615230  )
        58           Si  tau(  58) = (   0.7852020   0.1264540   0.7272870  )
        59           Si  tau(  59) = (   0.5744850   0.5338290   0.3262640  )
        60           Si  tau(  60) = (   0.9619950   0.9360820   0.0489730  )
        61           Si  tau(  61) = (   0.8168180   0.6774320   0.7619320  )
        62           Si  tau(  62) = (   0.5275890   0.1858710   0.6476910  )
        63           Si  tau(  63) = (   0.3388150   0.3229720   0.6273950  )
        64           Si  tau(  64) = (   0.1281330   0.8481820   0.9299290  )

     number of k points=     1
                       cart. coord. in units 2pi/alat
        k(    1) = (   0.0000000   0.0000000   0.0000000), wk =   2.0000000

     Dense  grid:    92154 G-vectors     FFT dimensions: (  72,  72,  72)

     Estimated max dynamical RAM per process >     135.44 MB

     Estimated total dynamical RAM >     519.26 MB

     Initial potential from superposition of free atoms

     starting charge     255.9608, renormalised to     256.0000
     Starting wfcs are  256 randomized atomic wfcs

     total cpu time spent up to now is        4.2 secs

     Self-consistent Calculation

     iteration #  1     ecut=    30.00 Ry     beta= 0.50
     Davidson diagonalization with overlap
     ethr =  1.00E-02,  avg # of iterations =  2.0

     Threshold (ethr) on eigenvalues was too large:
     Diagonalizing with lowered threshold

     Davidson diagonalization with overlap
     ethr =  3.73E-04,  avg # of iterations =  6.0

     total cpu time spent up to now is        4.4 secs

     total energy              =    -501.10791536 Ry
     estimated scf accuracy    <       1.20304584 Ry

     iteration #  2     ecut=    30.00 Ry     beta= 0.50
     Davidson diagonalization with overlap
     ethr =  4.70E-04,  avg # of iterations = 12.0

     total cpu time spent up to now is        4.6 secs

     total energy              =    -500.56328201 Ry
     estimated scf accuracy    <       7.02965546 Ry

     iteration #  3     ecut=    30.00 Ry     beta= 0.50
     Davidson diagonalization with overlap
     ethr =  4.70E-04,  avg # of iterations = 11.0

     total cpu time spent up to now is        4.7 secs

     total energy              =    -501.21125201 Ry
     estimated scf accuracy    <       1.41886288 Ry

     iteration #  4     ecut=    30.00 Ry     beta= 0.50
     Davidson diagonalization with overlap
     ethr =  4.70E-04,  avg # of iterations =  6.0

     total cpu time spent up to now is        4.8 secs

     total energy              =    -501.30270716 Ry
     estimated scf accuracy    <       0.41025983 Ry

     iteration #  5     ecut=    30.00 Ry     beta= 0.50
     Davidson diagonalization with overlap
     ethr =  1.60E-04,  avg # of iterations = 13.0

     total cpu time spent up to now is        4.9 secs

     total energy              =    -501.33533284 Ry
     estimated scf accuracy    <       0.21844281 Ry

     iteration #  6     ecut=    30.00 Ry     beta= 0.50
     Davidson diagonalization with overlap
     ethr =  8.53E-05,  avg # of iterations = 17.0

     total cpu time spent up to now is        5.1 secs

     total energy              =    -501.36442421 Ry
     estimated scf accuracy    <       0.09167150 Ry

     iteration #  7     ecut=    30.00 Ry     beta= 0.50
     Davidson diagonalization with overlap
     ethr =  3.58E-05,  avg # of iterations =  7.0

     total cpu time spent up to now is        5.2 secs

     total energy              =    -501.36542349 Ry
     estimated scf accuracy    <       0.03866013 Ry

     iteration #  8     ecut=    30.00 Ry     beta= 0.50
     Davidson diagonalization with overlap
     ethr =  1.51E-05,  avg # of iterations = 19.0

     total cpu time spent up to now is        5.3 secs

     total energy              =    -501.36933633 Ry
     estimated scf accuracy    <       0.02406974 Ry

     iteration #  9     ecut=    30.00 Ry     beta= 0.50
     Davidson diagonalization with overlap
     ethr =  9.40E-06,  avg # of iterations = 11.0

     total cpu time spent up to now is        5.5 secs

     total energy              =    -501.37061364 Ry
     estimated scf accuracy    <       0.00749897 Ry

     iteration # 10     ecut=    30.00 Ry     beta= 0.50
     Davidson diagonalization with overlap
     c_bands:  1 eigenvalues not converged
     ethr =  2.93E-06,  avg # of iterations = 20.0

     total cpu time spent up to now is        5.6 secs

     total energy              =    -501.37114950 Ry
     estimated scf accuracy    <       0.00430131 Ry

     iteration # 11     ecut=    30.00 Ry     beta= 0.50
     Davidson diagonalization with overlap
     ethr =  1.68E-06,  avg # of iterations = 18.0

     total cpu time spent up to now is        5.8 secs

     total energy              =    -501.37155322 Ry
     estimated scf accuracy    <       0.00362309 Ry

     iteration # 12     ecut=    30.00 Ry     beta= 0.50
     Davidson diagonalization with overlap
     ethr =  1.42E-06,  avg # of iterations =  8.0

     total cpu time spent up to now is        5.9 secs

     total energy              =    -501.37135212 Ry
     estimated scf accuracy    <       0.00254205 Ry

     iteration # 13     ecut=    30.00 Ry     beta= 0.50
     Davidson diagonalization with overlap
     c_bands:  1 eigenvalues not converged
     ethr =  9.93E-07,  avg # of iterations = 20.0

     total cpu time spent up to now is        6.0 secs

     total energy              =    -501.37157682 Ry
     estimated scf accuracy    <       0.00039631 Ry

     iteration # 14     ecut=    30.00 Ry     beta= 0.50
     Davidson diagonalization with overlap
     ethr =  1.55E-07,  avg # of iterations = 20.0

     total cpu time spent up to now is        6.2 secs

     total energy              =    -501.37167021 Ry
     estimated scf accuracy    <       0.00048552 Ry

     iteration # 15     ecut=    30.00 Ry     beta= 0.50
     Davidson diagonalization with overlap
     ethr =  1.55E-07,  avg # of iterations =  2.0

     total cpu time spent up to now is        6.3 secs

     total energy              =    -501.37165723 Ry
     estimated scf accuracy    <       0.00031043 Ry

     iteration # 16     ecut=    30.00 Ry     beta= 0.50
     Davidson diagonalization with overlap
     ethr =  1.21E-07,  avg # of iterations =  3.0

     total cpu time spent up to now is        6.4 secs

     total energy              =    -501.37165964 Ry
     estimated scf accuracy    <       0.00014495 Ry

     iteration # 17     ecut=    30.00 Ry     beta= 0.50
     Davidson diagonalization with overlap
     c_bands:  1 eigenvalues not converged
     ethr =  5.66E-08,  avg # of iterations = 20.0

     total cpu time spent up to now is        6.5 secs

     total energy              =    -501.37167504 Ry
     estimated scf accuracy    <       0.00010004 Ry

     iteration # 18     ecut=    30.00 Ry     beta= 0.50
     Davidson diagonalization with overlap
     ethr =  3.91E-08,  avg # of iterations = 10.0

     total cpu time spent up to now is        6.6 secs

     total energy              =    -501.37167621 Ry
     estimated scf accuracy    <       0.00007519 Ry

     iteration # 19     ecut=    30.00 Ry     beta= 0.50
     Davidson diagonalization with overlap
     ethr =  2.94E-08,  avg # of iterations =  2.0

     total cpu time spent up to now is        6.7 secs

     total energy              =    -501.37167477 Ry
     estimated scf accuracy    <       0.00005457 Ry

     iteration # 20     ecut=    30.00 Ry     beta= 0.50
     Davidson diagonalization with overlap
     c_bands:  2 eigenvalues not converged
     ethr =  2.13E-08,  avg # of iterations = 20.0

     total cpu time spent up to now is        6.9 secs

     total energy              =    -501.37167939 Ry
     estimated scf accuracy    <       0.00000907 Ry

     iteration # 21     ecut=    30.00 Ry     beta= 0.50
     Davidson diagonalization with overlap
     c_bands:  1 eigenvalues not converged
     ethr =  3.54E-09,  avg # of iterations = 20.0

     total cpu time spent up to now is        7.0 secs

     total energy              =    -501.37168037 Ry
     estimated scf accuracy    <       0.00000877 Ry

     iteration # 22     ecut=    30.00 Ry     beta= 0.50
     Davidson diagonalization with overlap
     c_bands:  1 eigenvalues not converged
     ethr =  3.42E-09,  avg # of iterations = 20.0

     total cpu time spent up to now is        7.2 secs

     total energy              =    -501.37168050 Ry
     estimated scf accuracy    <       0.00000466 Ry

     iteration # 23     ecut=    30.00 Ry     beta= 0.50
     Davidson diagonalization with overlap
     ethr =  1.82E-09,  avg # of iterations = 10.0

     total cpu time spent up to now is        7.3 secs

     total energy              =    -501.37168066 Ry
     estimated scf accuracy    <       0.00000259 Ry

     iteration # 24     ecut=    30.00 Ry     beta= 0.50
     Davidson diagonalization with overlap
     ethr =  1.01E-09,  avg # of iterations =  8.0

     total cpu time spent up to now is        7.4 secs

     total energy              =    -501.37168067 Ry
     estimated scf accuracy    <       0.00000646 Ry

     iteration # 25     ecut=    30.00 Ry     beta= 0.50
     Davidson diagonalization with overlap
     ethr =  1.01E-09,  avg # of iterations =  6.0

     total cpu time spent up to now is        7.5 secs

     total energy              =    -501.37168086 Ry
     estimated scf accuracy    <       0.00000183 Ry

     iteration # 26     ecut=    30.00 Ry     beta= 0.50
     Davidson diagonalization with overlap
     ethr =  7.16E-10,  avg # of iterations =  3.0

     total cpu time spent up to now is        7.6 secs

     total energy              =    -501.37168089 Ry
     estimated scf accuracy    <       0.00000123 Ry

     iteration # 27     ecut=    30.00 Ry     beta= 0.50
     Davidson diagonalization with overlap
     ethr =  4.81E-10,  avg # of iterations = 11.0

     total cpu time spent up to now is        7.7 secs

     End of self-consistent calculation

          k = 0.0000 0.0000 0.0000 ( 11492 PWs)   bands (ev):

    -5.4099  -4.5637  -4.3632  -4.2764  -4.2009  -4.1116  -4.0442  -3.6084
    -3.3913  -3.3478  -3.2770  -3.1712  -3.1381  -3.0864  -3.0055  -2.9129
    -2.8428  -2.7358  -2.6429  -2.4530  -2.1009  -2.0800  -2.0172  -1.8408
    -1.7261  -1.6742  -1.4382  -1.1826  -1.0932  -0.8803  -0.7347  -0.5539
    -0.4810  -0.3703  -0.2772  -0.2413  -0.1242  -0.0490   0.0173   0.1005
     0.1482   0.2455   0.3757   0.4066   0.4674   0.5302   0.6467   0.7813
     0.8192   0.8674   1.0966   1.1764   1.3008   1.3194   1.4123   1.4868
     1.6693   1.7038   1.7549   1.9143   2.0021   2.0403   2.1919   2.2970
     2.3984   2.4174   2.5151   2.6108   2.6596   2.7465   2.8530   2.8911
     2.9321   3.0152   3.0286   3.0968   3.1643   3.2290   3.3130   3.4258
     3.5600   3.9023   4.0237   4.0559   4.2673   4.2904   4.4003   4.4443
     4.5759   4.5929   4.6317   4.6802   4.8370   4.9059   4.9299   5.0804
     5.1147   5.1586   5.2111   5.2471   5.2925   5.3402   5.4061   5.4489
     5.4971   5.5971   5.6530   5.6933   5.7523   5.8473   5.8985   5.9632
     6.0184   6.0462   6.1137   6.1964   6.2292   6.2756   6.3587   6.4076
     6.4310   6.5232   6.5824   6.6246   6.7233   6.7611   6.8213   6.8918

     highest occupied level (ev):     6.8918

!    total energy              =    -501.37168024 Ry
     estimated scf accuracy    <       0.00000093 Ry

     The total energy is the sum of the following terms:
     one-electron contribution =     186.75021919 Ry
     hartree contribution      =      22.75304518 Ry
     xc contribution           =    -150.41037367 Ry
     ewald contribution        =    -560.46457093 Ry

     convergence has been achieved in  27 iterations

     Forces acting on atoms (cartesian axes, Ry/au):

     atom    1 type  1   force =     0.03208651   -0.01017014    0.00461437
     atom    2 type  1   force =     0.01990000    0.02734842    0.01490574
     atom    3 type  1   force =     0.03334751   -0.01381019   -0.01705396
     atom    4 type  1   force =     0.00996183   -0.05775883   -0.02227734
     atom    5 type  1   force =    -0.01248720    0.00434082    0.00063346
     atom    6 type  1   force =     0.01865728   -0.01164489    0.02021041
     atom    7 type  1   force =    -0.03723518   -0.04508804    0.01990208
     atom    8 type  1   force =    -0.00946973   -0.00202114    0.02614398
     atom    9 type  1   force =    -0.08140637    0.00504418    0.02038550
     atom   10 type  1   force =    -0.06214401    0.02198736    0.05605724
     atom   11 type  1   force =    -0.01195467    0.00206143   -0.00549995
     atom   12 type  1   force =     0.01920183    0.05428189   -0.02577019
     atom   13 type  1   force =     0.01582295    0.00530524   -0.00110072
     atom   14 type  1   force =    -0.04325795    0.02574872    0.01931658
     atom   15 type  1   force =     0.02038475    0.00144014   -0.00460284
     atom   16 type  1   force =    -0.00454797    0.04709997    0.06514817
     atom   17 type  1   force =    -0.01111800   -0.01597625    0.00406180
     atom   18 type  1   force =     0.01539371    0.01094107    0.01142474
     atom   19 type  1   force =    -0.00984089    0.01251540    0.00086656
     atom   20 type  1   force =    -0.00761498    0.01919043    0.00996597
     atom   21 type  1   force =     0.02741994   -0.00781899    0.05055464
     atom   22 type  1   force =     0.01393061    0.00038580   -0.00136688
     atom   23 type  1   force =     0.01691315    0.02843014    0.01101074
     atom   24 type  1   force =     0.01943233   -0.00103471   -0.01827676
     atom   25 type  1   force =    -0.05741776    0.06125077    0.01955755
     atom   26 type  1   force =     0.02391442    0.03373953    0.01592289
     atom   27 type  1   force =     0.03108430    0.06615656    0.01192787
     atom   28 type  1   force =     0.03529928   -0.07513029    0.00173254
     atom   29 type  1   force =     0.00386637   -0.01493837   -0.00927952
     atom   30 type  1   force =     0.00152808   -0.00290984   -0.00048820
     atom   31 type  1   force =     0.00296046   -0.00210266    0.01209877
     atom   32 type  1   force =    -0.01815018    0.03399064    0.03111074
     atom   33 type  1   force =     0.01617369   -0.00757260    0.00439569
     atom   34 type  1   force =     0.01472039   -0.03989118   -0.01169443
     atom   35 type  1   force =    -0.01868721    0.00600943    0.00825088
     atom   36 type  1   force =    -0.00331890   -0.01619075    0.00942201
     atom   37 type  1   force =    -0.01159443   -0.01544904   -0.01022032
     atom   38 type  1   force =    -0.02652821    0.00890261   -0.03238657
     atom   39 type  1   force =     0.07455115    0.00780643   -0.03650617
     atom   40 type  1   force =    -0.02691702    0.03193942   -0.03820791
     atom   41 type  1   force =    -0.00817969   -0.01438197   -0.00591307
     atom   42 type  1   force =     0.02736383   -0.01412331   -0.02026503
     atom   43 type  1   force =    -0.01451563    0.04562060   -0.03238173
     atom   44 type  1   force =     0.02137293   -0.03236903   -0.01369191
     atom   45 type  1   force =     0.00635101   -0.02232438   -0.00750839
     atom   46 type  1   force =    -0.01894469   -0.00072260   -0.01376191
     atom   47 type  1   force =    -0.01337044   -0.00982807    0.03000730
     atom   48 type  1   force =     0.03383633   -0.02396768   -0.04165462
     atom   49 type  1   force =     0.03496393   -0.03701118    0.03554347
     atom   50 type  1   force =    -0.03000160   -0.02643819   -0.04602778
     atom   51 type  1   force =    -0.04696596    0.01472955    0.00529481
     atom   52 type  1   force =     0.02140568   -0.02238233    0.02443762
     atom   53 type  1   force =     0.01612289   -0.00051776    0.01034159
     atom   54 type  1   force =     0.04313442   -0.01104246   -0.02254556
     atom   55 type  1   force =     0.00384964    0.03061524    0.01801229
     atom   56 type  1   force =     0.00898591    0.02686941   -0.02459108
     atom   57 type  1   force =    -0.01077914    0.00144987    0.01233291
     atom   58 type  1   force =     0.01287883   -0.02347995    0.02208950
     atom   59 type  1   force =    -0.01945449   -0.00903675    0.00510961
     atom   60 type  1   force =    -0.05384598    0.02549918    0.00791334
     atom   61 type  1   force =     0.00699189   -0.01152584   -0.01083211
     atom   62 type  1   force =     0.00596294    0.00709539    0.01308250
     atom   63 type  1   force =     0.00861717   -0.05515215   -0.08705216
     atom   64 type  1   force =    -0.04863968   -0.01398411   -0.07282874

     Total force =     0.379808     Total SCF correction =     0.001568


     Computing stress (Cartesian axis) and pressure

          total   stress  (Ry/bohr**3)                   (kbar)     P=      -38.60
  -0.00019920  -0.00001111   0.00004370          -29.30       -1.63        6.43
  -0.00001111  -0.00038044  -0.00003822           -1.63      -55.96       -5.62
   0.00004370  -0.00003822  -0.00020761            6.43       -5.62      -30.54

 
     init_run     :      1.11s CPU      4.18s WALL (       1 calls)
     electrons    :      3.18s CPU      3.45s WALL (       1 calls)
     forces       :      0.03s CPU      0.03s WALL (       1 calls)
     stress       :      0.12s CPU      0.12s WALL (       1 calls)

     Called by init_run:
     wfcinit      :      0.59s CPU      3.52s WALL (       1 calls)
                                        3.52s GPU  (       1 calls)
     potinit      :      0.04s CPU      0.13s WALL (       1 calls)
     hinit0       :      0.46s CPU      0.48s WALL (       1 calls)

     Called by electrons:
     c_bands      :      2.34s CPU      2.50s WALL (      28 calls)
     sum_band     :      0.41s CPU      0.48s WALL (      28 calls)
     v_of_rho     :      0.17s CPU      0.27s WALL (      28 calls)
     mix_rho      :      0.21s CPU      0.24s WALL (      28 calls)

     Called by c_bands:
     init_us_2    :      0.07s CPU      0.08s WALL (      57 calls)
     init_us_2:gp :      0.07s CPU      0.08s WALL (      57 calls)
     regterg      :      2.14s CPU      2.28s WALL (      28 calls)

     Called by *egterg:
     rdiaghg      :      1.13s CPU      1.79s WALL (     352 calls)
                                        1.74s GPU  (     352 calls)
     h_psi        :      1.28s CPU      3.65s WALL (     354 calls)
                                        3.65s GPU  (     354 calls)
     g_psi        :      0.00s CPU      0.01s WALL (     325 calls)
                                        0.01s GPU  (     325 calls)

     Called by h_psi:
     h_psi:calbec :      0.62s CPU      2.90s WALL (     354 calls)
                                        2.90s GPU  (     354 calls)
     vloc_psi     :      0.46s CPU      0.55s WALL (     354 calls)
                                        0.54s GPU  (     354 calls)
     add_vuspsi   :      0.15s CPU      0.19s WALL (     354 calls)
                                        0.19s GPU  (     354 calls)

     General routines
     calbec       :      0.62s CPU      2.90s WALL (     359 calls)
     fft          :      0.59s CPU      0.71s WALL (     231 calls)
                                        0.12s GPU  (     146 calls)
     ffts         :      0.05s CPU      0.05s WALL (      28 calls)
     fftw         :      0.54s CPU      0.73s WALL (    2892 calls)
                                        0.63s GPU  (    2892 calls)
 
     Parallel routines
 
     PWSCF        :      4.48s CPU      7.86s WALL

 
   This run was terminated on:  15:12:20   9May2023            

=------------------------------------------------------------------------------=
   JOB DONE.
=------------------------------------------------------------------------------=
