An instance of this daemon is already running
An instance of this daemon is already running
An instance of this daemon is already running

     Program PWSCF v.7.1 starts on  9May2023 at 15:18:42 

     This program is part of the open-source Quantum ESPRESSO suite
     for quantum simulation of materials; please cite
         "P. Giannozzi et al., J. Phys.:Condens. Matter 21 395502 (2009);
         "P. Giannozzi et al., J. Phys.:Condens. Matter 29 465901 (2017);
         "P. Giannozzi et al., J. Chem. Phys. 152 154105 (2020);
          URL http://www.quantum-espresso.org", 
     in publications or presentations arising from this work. More details at
     http://www.quantum-espresso.org/quote

     Parallel version (MPI & OpenMP), running on       4 processor cores
     Number of MPI processes:                 4
     Threads/MPI process:                     1

     MPI processes distributed on     1 nodes
     54802 MiB available memory on the printing compute node when the environment starts
 
     Reading input from pw-si-66.in
Warning: card &CELL ignored
Warning: card / ignored

     Current dimensions of program PWSCF are:
     Max number of different atomic species (ntypx) = 10
     Max number of k-points (npk) =  40000
     Max angular momentum in pseudopotentials (lmaxx) =  4

     IMPORTANT: XC functional enforced from input :
     Exchange-correlation= PBE
                           (   1   4   3   4   0   0   0)
     Any further DFT definition will be discarded
     Please, verify this is what you really want


     gamma-point specific algorithms are used
 
     K-points division:     npool     =       2
     R & G space division:  proc/nbgrp/npool/nimage =       2
     Subspace diagonalization in iterative solution of the eigenvalue problem:
     a serial algorithm will be used

     Message from routine divide_et_impera:
     suboptimal parallelization: some nodes have no k-points
 
     Parallelization info
     --------------------
     sticks:   dense  smooth     PW     G-vecs:    dense   smooth      PW
     Min        1983    1983    519                93681    93681   12703
     Max        1986    1986    522                93686    93686   12710
     Sum        3969    3969   1041               187367   187367   25413
 
     Using Slab Decomposition
 


     bravais-lattice index     =            0
     lattice parameter (alat)  =      20.3551  a.u.
     unit-cell volume          =    8433.6746 (a.u.)^3
     number of atoms/cell      =           64
     number of atomic types    =            1
     number of electrons       =       256.00
     number of Kohn-Sham states=          128
     kinetic-energy cutoff     =      30.0000  Ry
     charge density cutoff     =     120.0000  Ry
     scf convergence threshold =      1.0E-06
     mixing beta               =       0.5000
     number of iterations used =            8  plain     mixing
     Exchange-correlation= PBE
                           (   1   4   3   4   0   0   0)

     GPU acceleration is ACTIVE.
     GPU-aware MPI enabled

     Message from routine print_cuda_info:
     High GPU oversubscription detected. Are you sure this is what you want?

     celldm(1)=  20.355055  celldm(2)=   0.000000  celldm(3)=   0.000000
     celldm(4)=   0.000000  celldm(5)=   0.000000  celldm(6)=   0.000000

     crystal axes: (cart. coord. in units of alat)
               a(1) = (   1.000000   0.000000   0.000000 )  
               a(2) = (   0.000000   1.000000   0.000000 )  
               a(3) = (   0.000000   0.000000   1.000000 )  

     reciprocal axes: (cart. coord. in units 2 pi/alat)
               b(1) = (  1.000000  0.000000  0.000000 )  
               b(2) = (  0.000000  1.000000  0.000000 )  
               b(3) = (  0.000000  0.000000  1.000000 )  


     PseudoPot. # 1 for Si read from file:
     /home/ppiaggi/pseudos/Si_ONCV_PBE_sr.upf
     MD5 check sum: 8553c464762ac42b85b1eed164b4d029
     Pseudo is Norm-conserving, Zval =  4.0
     Generated using ONCVPSP code by D. R. Hamann
     Using radial grid of 1510 points,  4 beta functions with: 
                l(1) =   0
                l(2) =   0
                l(3) =   1
                l(4) =   1

     atomic species   valence    mass     pseudopotential
        Si             4.00    28.08500     Si( 1.00)

     No symmetry found



   Cartesian axes

     site n.     atom                  positions (alat units)
         1           Si  tau(   1) = (   0.5291960   0.7970430   0.6125300  )
         2           Si  tau(   2) = (   0.7826950   0.5120480   0.4256050  )
         3           Si  tau(   3) = (   0.3111360   0.4216140   0.8829000  )
         4           Si  tau(   4) = (   0.5602440   0.6165960   0.4618390  )
         5           Si  tau(   5) = (   0.7566390   0.1762670   0.0448876  )
         6           Si  tau(   6) = (   0.7660350   0.4673880   0.0642822  )
         7           Si  tau(   7) = (   0.1770330   0.7521280   0.6763340  )
         8           Si  tau(   8) = (   0.3048010   0.2112020   0.9488530  )
         9           Si  tau(   9) = (   0.9022310   0.3102200   0.9168900  )
        10           Si  tau(  10) = (   0.9784640   0.5656470   0.7753230  )
        11           Si  tau(  11) = (   0.5040920   0.5362250   0.9139310  )
        12           Si  tau(  12) = (   0.7214180   0.8698480   0.0017240  )
        13           Si  tau(  13) = (   0.9612420   0.7632920   0.0728482  )
        14           Si  tau(  14) = (   0.4876790   0.9048250   0.9840950  )
        15           Si  tau(  15) = (   0.2521070   0.5755530   0.4247590  )
        16           Si  tau(  16) = (   0.6022160   0.7097150   0.8028260  )
        17           Si  tau(  17) = (   0.3256240   0.9736350   0.7473330  )
        18           Si  tau(  18) = (   0.4901950   0.7236650   0.2678400  )
        19           Si  tau(  19) = (   0.4611720   0.1756940   0.4270920  )
        20           Si  tau(  20) = (   0.2849710   0.5569140   0.1692570  )
        21           Si  tau(  21) = (   0.6583610   0.0508039   0.2309850  )
        22           Si  tau(  22) = (   0.0654141   0.1699650   0.9788850  )
        23           Si  tau(  23) = (   0.4939110   0.0854096   0.7985770  )
        24           Si  tau(  24) = (   0.2575960   0.1334890   0.3011400  )
        25           Si  tau(  25) = (   0.4932030   0.3806230   0.2379320  )
        26           Si  tau(  26) = (   0.2348010   0.3321340   0.1673150  )
        27           Si  tau(  27) = (   0.9831930   0.4328960   0.5089020  )
        28           Si  tau(  28) = (   0.9920660   0.2259150   0.3721490  )
        29           Si  tau(  29) = (   0.5111000   0.5533110   0.1288350  )
        30           Si  tau(  30) = (   0.1033840   0.7832100   0.3505410  )
        31           Si  tau(  31) = (   0.4245950   0.4440480   0.4479110  )
        32           Si  tau(  32) = (   0.3274870   0.8037920   0.4868610  )
        33           Si  tau(  33) = (   0.9407350   0.8021950   0.6171570  )
        34           Si  tau(  34) = (   0.4741890   0.1717410   0.1494860  )
        35           Si  tau(  35) = (   0.8112990   0.6370750   0.9352120  )
        36           Si  tau(  36) = (   0.2062570   0.7308590   0.0262437  )
        37           Si  tau(  37) = (   0.8294130   0.3414440   0.6868990  )
        38           Si  tau(  38) = (   0.0074894   0.3348330   0.1740260  )
        39           Si  tau(  39) = (   0.6106290   0.9788980   0.4713390  )
        40           Si  tau(  40) = (   0.3129910   0.3645920   0.6492950  )
        41           Si  tau(  41) = (   0.1727440   0.9298640   0.1891050  )
        42           Si  tau(  42) = (   0.1116890   0.0897632   0.7577990  )
        43           Si  tau(  43) = (   0.6517300   0.4415990   0.7712420  )
        44           Si  tau(  44) = (   0.5649340   0.2884720   0.9591010  )
        45           Si  tau(  45) = (   0.9538920   0.9742810   0.0755253  )
        46           Si  tau(  46) = (   0.1530660   0.5309030   0.6405510  )
        47           Si  tau(  47) = (   0.3914620   0.9175760   0.1750780  )
        48           Si  tau(  48) = (   0.0827845   0.9583760   0.4927360  )
        49           Si  tau(  49) = (   0.7078790   0.3573400   0.2707850  )
        50           Si  tau(  50) = (   0.7732750   0.6419650   0.6575600  )
        51           Si  tau(  51) = (   0.3276620   0.7614680   0.8643750  )
        52           Si  tau(  52) = (   0.0498008   0.4987040   0.3099040  )
        53           Si  tau(  53) = (   0.1528920   0.1833910   0.5552130  )
        54           Si  tau(  54) = (   0.3420740   0.0194908   0.5344400  )
        55           Si  tau(  55) = (   0.9299770   0.9867470   0.3073440  )
        56           Si  tau(  56) = (   0.8989840   0.0153080   0.7166980  )
        57           Si  tau(  57) = (   0.7296500   0.1318240   0.6178070  )
        58           Si  tau(  58) = (   0.7242290   0.0364052   0.8753220  )
        59           Si  tau(  59) = (   0.9343040   0.6800320   0.2869700  )
        60           Si  tau(  60) = (   0.7886990   0.1828540   0.3733650  )
        61           Si  tau(  61) = (   0.5247130   0.2697130   0.6270250  )
        62           Si  tau(  62) = (   0.8032530   0.8143550   0.4144250  )
        63           Si  tau(  63) = (   0.6647820   0.8382210   0.2356620  )
        64           Si  tau(  64) = (   0.1004490   0.5335110   0.9690220  )

     number of k points=     1
                       cart. coord. in units 2pi/alat
        k(    1) = (   0.0000000   0.0000000   0.0000000), wk =   2.0000000

     Dense  grid:    93684 G-vectors     FFT dimensions: (  72,  72,  72)

     Estimated max dynamical RAM per process >     137.37 MB

     Estimated total dynamical RAM >     526.63 MB

     Initial potential from superposition of free atoms

     starting charge     255.9608, renormalised to     256.0000
     Starting wfcs are  256 randomized atomic wfcs

     total cpu time spent up to now is        4.3 secs

     Self-consistent Calculation

     iteration #  1     ecut=    30.00 Ry     beta= 0.50
     Davidson diagonalization with overlap
     ethr =  1.00E-02,  avg # of iterations =  2.0

     Threshold (ethr) on eigenvalues was too large:
     Diagonalizing with lowered threshold

     Davidson diagonalization with overlap
     ethr =  3.97E-04,  avg # of iterations =  6.0

     total cpu time spent up to now is        4.5 secs

     total energy              =    -501.23210910 Ry
     estimated scf accuracy    <       1.26921306 Ry

     iteration #  2     ecut=    30.00 Ry     beta= 0.50
     Davidson diagonalization with overlap
     ethr =  4.96E-04,  avg # of iterations = 17.0

     total cpu time spent up to now is        4.6 secs

     total energy              =    -500.85437482 Ry
     estimated scf accuracy    <       4.07580011 Ry

     iteration #  3     ecut=    30.00 Ry     beta= 0.50
     Davidson diagonalization with overlap
     ethr =  4.96E-04,  avg # of iterations = 11.0

     total cpu time spent up to now is        4.8 secs

     total energy              =    -501.31822107 Ry
     estimated scf accuracy    <       1.54528431 Ry

     iteration #  4     ecut=    30.00 Ry     beta= 0.50
     Davidson diagonalization with overlap
     ethr =  4.96E-04,  avg # of iterations =  6.0

     total cpu time spent up to now is        4.9 secs

     total energy              =    -501.43072798 Ry
     estimated scf accuracy    <       0.33737555 Ry

     iteration #  5     ecut=    30.00 Ry     beta= 0.50
     Davidson diagonalization with overlap
     ethr =  1.32E-04,  avg # of iterations =  6.0

     total cpu time spent up to now is        5.0 secs

     total energy              =    -501.46535718 Ry
     estimated scf accuracy    <       0.09461754 Ry

     iteration #  6     ecut=    30.00 Ry     beta= 0.50
     Davidson diagonalization with overlap
     ethr =  3.70E-05,  avg # of iterations = 17.0

     total cpu time spent up to now is        5.1 secs

     total energy              =    -501.47644297 Ry
     estimated scf accuracy    <       0.12705970 Ry

     iteration #  7     ecut=    30.00 Ry     beta= 0.50
     Davidson diagonalization with overlap
     ethr =  3.70E-05,  avg # of iterations = 12.0

     total cpu time spent up to now is        5.2 secs

     total energy              =    -501.48466354 Ry
     estimated scf accuracy    <       0.02071996 Ry

     iteration #  8     ecut=    30.00 Ry     beta= 0.50
     Davidson diagonalization with overlap
     c_bands:  1 eigenvalues not converged
     ethr =  8.09E-06,  avg # of iterations = 20.0

     total cpu time spent up to now is        5.4 secs

     total energy              =    -501.49060678 Ry
     estimated scf accuracy    <       0.05536913 Ry

     iteration #  9     ecut=    30.00 Ry     beta= 0.50
     Davidson diagonalization with overlap
     ethr =  8.09E-06,  avg # of iterations =  3.0

     total cpu time spent up to now is        5.5 secs

     total energy              =    -501.48892184 Ry
     estimated scf accuracy    <       0.03582029 Ry

     iteration # 10     ecut=    30.00 Ry     beta= 0.50
     Davidson diagonalization with overlap
     ethr =  8.09E-06,  avg # of iterations =  2.0

     total cpu time spent up to now is        5.5 secs

     total energy              =    -501.48548413 Ry
     estimated scf accuracy    <       0.02574321 Ry

     iteration # 11     ecut=    30.00 Ry     beta= 0.50
     Davidson diagonalization with overlap
     ethr =  8.09E-06,  avg # of iterations =  2.0

     total cpu time spent up to now is        5.6 secs

     total energy              =    -501.48425505 Ry
     estimated scf accuracy    <       0.00946395 Ry

     iteration # 12     ecut=    30.00 Ry     beta= 0.50
     Davidson diagonalization with overlap
     c_bands:  1 eigenvalues not converged
     ethr =  3.70E-06,  avg # of iterations = 20.0

     total cpu time spent up to now is        5.8 secs

     total energy              =    -501.49286342 Ry
     estimated scf accuracy    <       0.05920059 Ry

     iteration # 13     ecut=    30.00 Ry     beta= 0.50
     Davidson diagonalization with overlap
     ethr =  3.70E-06,  avg # of iterations = 18.0

     total cpu time spent up to now is        5.9 secs

     total energy              =    -501.49177113 Ry
     estimated scf accuracy    <       0.04753750 Ry

     iteration # 14     ecut=    30.00 Ry     beta= 0.50
     Davidson diagonalization with overlap
     ethr =  3.70E-06,  avg # of iterations =  2.0

     total cpu time spent up to now is        6.0 secs

     total energy              =    -501.49054294 Ry
     estimated scf accuracy    <       0.03065283 Ry

     iteration # 15     ecut=    30.00 Ry     beta= 0.50
     Davidson diagonalization with overlap
     ethr =  3.70E-06,  avg # of iterations =  2.0

     total cpu time spent up to now is        6.1 secs

     total energy              =    -501.48762914 Ry
     estimated scf accuracy    <       0.02136422 Ry

     iteration # 16     ecut=    30.00 Ry     beta= 0.50
     Davidson diagonalization with overlap
     ethr =  3.70E-06,  avg # of iterations = 10.0

     total cpu time spent up to now is        6.2 secs

     total energy              =    -501.48887348 Ry
     estimated scf accuracy    <       0.00290043 Ry

     iteration # 17     ecut=    30.00 Ry     beta= 0.50
     Davidson diagonalization with overlap
     ethr =  1.13E-06,  avg # of iterations =  2.0

     total cpu time spent up to now is        6.3 secs

     total energy              =    -501.48893054 Ry
     estimated scf accuracy    <       0.00181319 Ry

     iteration # 18     ecut=    30.00 Ry     beta= 0.50
     Davidson diagonalization with overlap
     ethr =  7.08E-07,  avg # of iterations =  2.0

     total cpu time spent up to now is        6.3 secs

     total energy              =    -501.48909166 Ry
     estimated scf accuracy    <       0.00133395 Ry

     iteration # 19     ecut=    30.00 Ry     beta= 0.50
     Davidson diagonalization with overlap
     ethr =  5.21E-07,  avg # of iterations =  8.0

     total cpu time spent up to now is        6.4 secs

     total energy              =    -501.48916071 Ry
     estimated scf accuracy    <       0.00203869 Ry

     iteration # 20     ecut=    30.00 Ry     beta= 0.50
     Davidson diagonalization with overlap
     ethr =  5.21E-07,  avg # of iterations =  2.0

     total cpu time spent up to now is        6.5 secs

     total energy              =    -501.48872422 Ry
     estimated scf accuracy    <       0.00247072 Ry

     iteration # 21     ecut=    30.00 Ry     beta= 0.50
     Davidson diagonalization with overlap
     c_bands:  1 eigenvalues not converged
     ethr =  5.21E-07,  avg # of iterations = 20.0

     total cpu time spent up to now is        6.7 secs

     total energy              =    -501.49142919 Ry
     estimated scf accuracy    <       0.04284400 Ry

     iteration # 22     ecut=    30.00 Ry     beta= 0.50
     Davidson diagonalization with overlap
     c_bands:  1 eigenvalues not converged
     ethr =  5.21E-07,  avg # of iterations = 20.0

     total cpu time spent up to now is        6.8 secs

     total energy              =    -501.49358190 Ry
     estimated scf accuracy    <       0.04245690 Ry

     iteration # 23     ecut=    30.00 Ry     beta= 0.50
     Davidson diagonalization with overlap
     ethr =  5.21E-07,  avg # of iterations = 11.0

     total cpu time spent up to now is        6.9 secs

     total energy              =    -501.49202219 Ry
     estimated scf accuracy    <       0.04318825 Ry

     iteration # 24     ecut=    30.00 Ry     beta= 0.50
     Davidson diagonalization with overlap
     ethr =  5.21E-07,  avg # of iterations =  2.0

     total cpu time spent up to now is        7.0 secs

     total energy              =    -501.49046704 Ry
     estimated scf accuracy    <       0.03709845 Ry

     iteration # 25     ecut=    30.00 Ry     beta= 0.50
     Davidson diagonalization with overlap
     c_bands:  1 eigenvalues not converged
     ethr =  5.21E-07,  avg # of iterations = 20.0

     total cpu time spent up to now is        7.2 secs

     total energy              =    -501.49097829 Ry
     estimated scf accuracy    <       0.02715444 Ry

     iteration # 26     ecut=    30.00 Ry     beta= 0.50
     Davidson diagonalization with overlap
     ethr =  5.21E-07,  avg # of iterations = 12.0

     total cpu time spent up to now is        7.3 secs

     total energy              =    -501.49097517 Ry
     estimated scf accuracy    <       0.02812080 Ry

     iteration # 27     ecut=    30.00 Ry     beta= 0.50
     Davidson diagonalization with overlap
     ethr =  5.21E-07,  avg # of iterations =  1.0

     total cpu time spent up to now is        7.3 secs

     total energy              =    -501.49081987 Ry
     estimated scf accuracy    <       0.02784272 Ry

     iteration # 28     ecut=    30.00 Ry     beta= 0.50
     Davidson diagonalization with overlap
     ethr =  5.21E-07,  avg # of iterations =  1.0

     total cpu time spent up to now is        7.4 secs

     total energy              =    -501.49020497 Ry
     estimated scf accuracy    <       0.02704408 Ry

     iteration # 29     ecut=    30.00 Ry     beta= 0.50
     Davidson diagonalization with overlap
     ethr =  5.21E-07,  avg # of iterations =  1.0

     total cpu time spent up to now is        7.5 secs

     total energy              =    -501.48370455 Ry
     estimated scf accuracy    <       0.02453569 Ry

     iteration # 30     ecut=    30.00 Ry     beta= 0.50
     Davidson diagonalization with overlap
     c_bands:  2 eigenvalues not converged
     ethr =  5.21E-07,  avg # of iterations = 20.0

     total cpu time spent up to now is        7.7 secs

     total energy              =    -501.48742817 Ry
     estimated scf accuracy    <       0.12027107 Ry

     iteration # 31     ecut=    30.00 Ry     beta= 0.50
     Davidson diagonalization with overlap
     c_bands:  1 eigenvalues not converged
     ethr =  5.21E-07,  avg # of iterations = 20.0

     total cpu time spent up to now is        7.8 secs

     total energy              =    -501.49135610 Ry
     estimated scf accuracy    <       0.06296046 Ry

     iteration # 32     ecut=    30.00 Ry     beta= 0.50
     Davidson diagonalization with overlap
     ethr =  5.21E-07,  avg # of iterations = 14.0

     total cpu time spent up to now is        8.0 secs

     total energy              =    -501.49080435 Ry
     estimated scf accuracy    <       0.02636687 Ry

     iteration # 33     ecut=    30.00 Ry     beta= 0.50
     Davidson diagonalization with overlap
     ethr =  5.21E-07,  avg # of iterations =  7.0

     total cpu time spent up to now is        8.1 secs

     total energy              =    -501.49057781 Ry
     estimated scf accuracy    <       0.01499818 Ry

     iteration # 34     ecut=    30.00 Ry     beta= 0.50
     Davidson diagonalization with overlap
     ethr =  5.21E-07,  avg # of iterations =  2.0

     total cpu time spent up to now is        8.2 secs

     total energy              =    -501.48987946 Ry
     estimated scf accuracy    <       0.01204093 Ry

     iteration # 35     ecut=    30.00 Ry     beta= 0.50
     Davidson diagonalization with overlap
     c_bands:  1 eigenvalues not converged
     ethr =  5.21E-07,  avg # of iterations = 20.0

     total cpu time spent up to now is        8.3 secs

     total energy              =    -501.48998804 Ry
     estimated scf accuracy    <       0.00733944 Ry

     iteration # 36     ecut=    30.00 Ry     beta= 0.50
     Davidson diagonalization with overlap
     ethr =  5.21E-07,  avg # of iterations = 12.0

     total cpu time spent up to now is        8.4 secs

     total energy              =    -501.49001360 Ry
     estimated scf accuracy    <       0.00692628 Ry

     iteration # 37     ecut=    30.00 Ry     beta= 0.50
     Davidson diagonalization with overlap
     ethr =  5.21E-07,  avg # of iterations =  1.0

     total cpu time spent up to now is        8.5 secs

     total energy              =    -501.48998383 Ry
     estimated scf accuracy    <       0.00671169 Ry

     iteration # 38     ecut=    30.00 Ry     beta= 0.50
     Davidson diagonalization with overlap
     ethr =  5.21E-07,  avg # of iterations =  1.0

     total cpu time spent up to now is        8.6 secs

     total energy              =    -501.48865394 Ry
     estimated scf accuracy    <       0.00651977 Ry

     iteration # 39     ecut=    30.00 Ry     beta= 0.50
     Davidson diagonalization with overlap
     c_bands:  1 eigenvalues not converged
     ethr =  5.21E-07,  avg # of iterations = 20.0

     total cpu time spent up to now is        8.7 secs

     total energy              =    -501.49121982 Ry
     estimated scf accuracy    <       0.05750448 Ry

     iteration # 40     ecut=    30.00 Ry     beta= 0.50
     Davidson diagonalization with overlap
     c_bands:  1 eigenvalues not converged
     ethr =  5.21E-07,  avg # of iterations = 20.0

     total cpu time spent up to now is        8.9 secs

     total energy              =    -501.49083585 Ry
     estimated scf accuracy    <       0.04210384 Ry

     iteration # 41     ecut=    30.00 Ry     beta= 0.50
     Davidson diagonalization with overlap
     c_bands:  1 eigenvalues not converged
     ethr =  5.21E-07,  avg # of iterations = 20.0

     total cpu time spent up to now is        9.1 secs

     total energy              =    -501.48962389 Ry
     estimated scf accuracy    <       0.03328665 Ry

     iteration # 42     ecut=    30.00 Ry     beta= 0.50
     Davidson diagonalization with overlap
     c_bands:  1 eigenvalues not converged
     ethr =  5.21E-07,  avg # of iterations = 20.0

     total cpu time spent up to now is        9.2 secs

     total energy              =    -501.48946770 Ry
     estimated scf accuracy    <       0.02593433 Ry

     iteration # 43     ecut=    30.00 Ry     beta= 0.50
     Davidson diagonalization with overlap
     c_bands:  1 eigenvalues not converged
     ethr =  5.21E-07,  avg # of iterations = 20.0

     total cpu time spent up to now is        9.4 secs

     total energy              =    -501.48967929 Ry
     estimated scf accuracy    <       0.02246688 Ry

     iteration # 44     ecut=    30.00 Ry     beta= 0.50
     Davidson diagonalization with overlap
     ethr =  5.21E-07,  avg # of iterations = 17.0

     total cpu time spent up to now is        9.5 secs

     total energy              =    -501.48974001 Ry
     estimated scf accuracy    <       0.02235707 Ry

     iteration # 45     ecut=    30.00 Ry     beta= 0.50
     Davidson diagonalization with overlap
     ethr =  5.21E-07,  avg # of iterations =  1.0

     total cpu time spent up to now is        9.6 secs

     total energy              =    -501.48973143 Ry
     estimated scf accuracy    <       0.02195442 Ry

     iteration # 46     ecut=    30.00 Ry     beta= 0.50
     Davidson diagonalization with overlap
     ethr =  5.21E-07,  avg # of iterations =  1.0

     total cpu time spent up to now is        9.7 secs

     total energy              =    -501.48970235 Ry
     estimated scf accuracy    <       0.02175468 Ry

     iteration # 47     ecut=    30.00 Ry     beta= 0.50
     Davidson diagonalization with overlap
     ethr =  5.21E-07,  avg # of iterations =  1.0

     total cpu time spent up to now is        9.7 secs

     total energy              =    -501.48523318 Ry
     estimated scf accuracy    <       0.02146868 Ry

     iteration # 48     ecut=    30.00 Ry     beta= 0.50
     Davidson diagonalization with overlap
     c_bands:  1 eigenvalues not converged
     ethr =  5.21E-07,  avg # of iterations = 20.0

     total cpu time spent up to now is        9.9 secs

     total energy              =    -501.49108334 Ry
     estimated scf accuracy    <       0.06555551 Ry

     iteration # 49     ecut=    30.00 Ry     beta= 0.50
     Davidson diagonalization with overlap
     c_bands:  1 eigenvalues not converged
     ethr =  5.21E-07,  avg # of iterations = 20.0

     total cpu time spent up to now is       10.1 secs

     total energy              =    -501.49341648 Ry
     estimated scf accuracy    <       0.03999871 Ry

     iteration # 50     ecut=    30.00 Ry     beta= 0.50
     Davidson diagonalization with overlap
     ethr =  5.21E-07,  avg # of iterations = 15.0

     total cpu time spent up to now is       10.2 secs

     total energy              =    -501.49017989 Ry
     estimated scf accuracy    <       0.03169689 Ry

     iteration # 51     ecut=    30.00 Ry     beta= 0.50
     Davidson diagonalization with overlap
     c_bands:  1 eigenvalues not converged
     ethr =  5.21E-07,  avg # of iterations = 20.0

     total cpu time spent up to now is       10.4 secs

     total energy              =    -501.49053570 Ry
     estimated scf accuracy    <       0.01515885 Ry

     iteration # 52     ecut=    30.00 Ry     beta= 0.50
     Davidson diagonalization with overlap
     c_bands:  1 eigenvalues not converged
     ethr =  5.21E-07,  avg # of iterations = 20.0

     total cpu time spent up to now is       10.6 secs

     total energy              =    -501.49062088 Ry
     estimated scf accuracy    <       0.01236248 Ry

     iteration # 53     ecut=    30.00 Ry     beta= 0.50
     Davidson diagonalization with overlap
     ethr =  5.21E-07,  avg # of iterations = 13.0

     total cpu time spent up to now is       10.7 secs

     total energy              =    -501.49039225 Ry
     estimated scf accuracy    <       0.01017290 Ry

     iteration # 54     ecut=    30.00 Ry     beta= 0.50
     Davidson diagonalization with overlap
     ethr =  5.21E-07,  avg # of iterations =  2.0

     total cpu time spent up to now is       10.8 secs

     total energy              =    -501.49030961 Ry
     estimated scf accuracy    <       0.00868420 Ry

     iteration # 55     ecut=    30.00 Ry     beta= 0.50
     Davidson diagonalization with overlap
     ethr =  5.21E-07,  avg # of iterations =  1.0

     total cpu time spent up to now is       10.9 secs

     total energy              =    -501.49023723 Ry
     estimated scf accuracy    <       0.00800241 Ry

     iteration # 56     ecut=    30.00 Ry     beta= 0.50
     Davidson diagonalization with overlap
     ethr =  5.21E-07,  avg # of iterations =  1.0

     total cpu time spent up to now is       10.9 secs

     total energy              =    -501.48817516 Ry
     estimated scf accuracy    <       0.00744478 Ry

     iteration # 57     ecut=    30.00 Ry     beta= 0.50
     Davidson diagonalization with overlap
     ethr =  5.21E-07,  avg # of iterations = 10.0

     total cpu time spent up to now is       11.1 secs

     total energy              =    -501.48900673 Ry
     estimated scf accuracy    <       0.00500570 Ry

     iteration # 58     ecut=    30.00 Ry     beta= 0.50
     Davidson diagonalization with overlap
     c_bands:  1 eigenvalues not converged
     ethr =  5.21E-07,  avg # of iterations = 20.0

     total cpu time spent up to now is       11.2 secs

     total energy              =    -501.49144117 Ry
     estimated scf accuracy    <       0.04978349 Ry

     iteration # 59     ecut=    30.00 Ry     beta= 0.50
     Davidson diagonalization with overlap
     ethr =  5.21E-07,  avg # of iterations = 16.0

     total cpu time spent up to now is       11.4 secs

     total energy              =    -501.48935321 Ry
     estimated scf accuracy    <       0.03561781 Ry

     iteration # 60     ecut=    30.00 Ry     beta= 0.50
     Davidson diagonalization with overlap
     ethr =  5.21E-07,  avg # of iterations =  8.0

     total cpu time spent up to now is       11.5 secs

     total energy              =    -501.48870518 Ry
     estimated scf accuracy    <       0.02522521 Ry

     iteration # 61     ecut=    30.00 Ry     beta= 0.50
     Davidson diagonalization with overlap
     ethr =  5.21E-07,  avg # of iterations =  8.0

     total cpu time spent up to now is       11.6 secs

     total energy              =    -501.48879610 Ry
     estimated scf accuracy    <       0.01997038 Ry

     iteration # 62     ecut=    30.00 Ry     beta= 0.50
     Davidson diagonalization with overlap
     ethr =  5.21E-07,  avg # of iterations =  2.0

     total cpu time spent up to now is       11.7 secs

     total energy              =    -501.48825790 Ry
     estimated scf accuracy    <       0.01814528 Ry

     iteration # 63     ecut=    30.00 Ry     beta= 0.50
     Davidson diagonalization with overlap
     ethr =  5.21E-07,  avg # of iterations =  6.0

     total cpu time spent up to now is       11.8 secs

     total energy              =    -501.48765627 Ry
     estimated scf accuracy    <       0.01480506 Ry

     iteration # 64     ecut=    30.00 Ry     beta= 0.50
     Davidson diagonalization with overlap
     ethr =  5.21E-07,  avg # of iterations =  2.0

     total cpu time spent up to now is       11.8 secs

     total energy              =    -501.48725098 Ry
     estimated scf accuracy    <       0.01155221 Ry

     iteration # 65     ecut=    30.00 Ry     beta= 0.50
     Davidson diagonalization with overlap
     ethr =  5.21E-07,  avg # of iterations =  2.0

     total cpu time spent up to now is       11.9 secs

     total energy              =    -501.48429418 Ry
     estimated scf accuracy    <       0.00932549 Ry

     iteration # 66     ecut=    30.00 Ry     beta= 0.50
     Davidson diagonalization with overlap
     c_bands:  1 eigenvalues not converged
     ethr =  5.21E-07,  avg # of iterations = 20.0

     total cpu time spent up to now is       12.1 secs

     total energy              =    -501.49445075 Ry
     estimated scf accuracy    <       0.05589211 Ry

     iteration # 67     ecut=    30.00 Ry     beta= 0.50
     Davidson diagonalization with overlap
     c_bands:  1 eigenvalues not converged
     ethr =  5.21E-07,  avg # of iterations = 20.0

     total cpu time spent up to now is       12.2 secs

     total energy              =    -501.49174785 Ry
     estimated scf accuracy    <       0.04028223 Ry

     iteration # 68     ecut=    30.00 Ry     beta= 0.50
     Davidson diagonalization with overlap
     ethr =  5.21E-07,  avg # of iterations = 14.0

     total cpu time spent up to now is       12.4 secs

     total energy              =    -501.49169004 Ry
     estimated scf accuracy    <       0.01969908 Ry

     iteration # 69     ecut=    30.00 Ry     beta= 0.50
     Davidson diagonalization with overlap
     ethr =  5.21E-07,  avg # of iterations =  5.0

     total cpu time spent up to now is       12.5 secs

     total energy              =    -501.49119049 Ry
     estimated scf accuracy    <       0.01632831 Ry

     iteration # 70     ecut=    30.00 Ry     beta= 0.50
     Davidson diagonalization with overlap
     ethr =  5.21E-07,  avg # of iterations =  1.0

     total cpu time spent up to now is       12.5 secs

     total energy              =    -501.49082777 Ry
     estimated scf accuracy    <       0.01396568 Ry

     iteration # 71     ecut=    30.00 Ry     beta= 0.50
     Davidson diagonalization with overlap
     ethr =  5.21E-07,  avg # of iterations =  1.0

     total cpu time spent up to now is       12.6 secs

     total energy              =    -501.49331839 Ry
     estimated scf accuracy    <       0.01224894 Ry

     iteration # 72     ecut=    30.00 Ry     beta= 0.50
     Davidson diagonalization with overlap
     ethr =  5.21E-07,  avg # of iterations =  9.0

     total cpu time spent up to now is       12.7 secs

     total energy              =    -501.49538300 Ry
     estimated scf accuracy    <       0.02249223 Ry

     iteration # 73     ecut=    30.00 Ry     beta= 0.50
     Davidson diagonalization with overlap
     ethr =  5.21E-07,  avg # of iterations =  5.0

     total cpu time spent up to now is       12.8 secs

     total energy              =    -501.49426682 Ry
     estimated scf accuracy    <       0.03268980 Ry

     iteration # 74     ecut=    30.00 Ry     beta= 0.50
     Davidson diagonalization with overlap
     ethr =  5.21E-07,  avg # of iterations =  2.0

     total cpu time spent up to now is       12.9 secs

     total energy              =    -501.48428902 Ry
     estimated scf accuracy    <       0.02929501 Ry

     iteration # 75     ecut=    30.00 Ry     beta= 0.50
     Davidson diagonalization with overlap
     c_bands:  1 eigenvalues not converged
     ethr =  5.21E-07,  avg # of iterations = 20.0

     total cpu time spent up to now is       13.1 secs

     total energy              =    -501.49159923 Ry
     estimated scf accuracy    <       0.07638900 Ry

     iteration # 76     ecut=    30.00 Ry     beta= 0.50
     Davidson diagonalization with overlap
     ethr =  5.21E-07,  avg # of iterations = 15.0

     total cpu time spent up to now is       13.2 secs

     total energy              =    -501.48976257 Ry
     estimated scf accuracy    <       0.04197823 Ry

     iteration # 77     ecut=    30.00 Ry     beta= 0.50
     Davidson diagonalization with overlap
     ethr =  5.21E-07,  avg # of iterations =  6.0

     total cpu time spent up to now is       13.3 secs

     total energy              =    -501.49011790 Ry
     estimated scf accuracy    <       0.02823437 Ry

     iteration # 78     ecut=    30.00 Ry     beta= 0.50
     Davidson diagonalization with overlap
     ethr =  5.21E-07,  avg # of iterations =  1.0

     total cpu time spent up to now is       13.4 secs

     total energy              =    -501.49021344 Ry
     estimated scf accuracy    <       0.02793407 Ry

     iteration # 79     ecut=    30.00 Ry     beta= 0.50
     Davidson diagonalization with overlap
     ethr =  5.21E-07,  avg # of iterations =  1.0

     total cpu time spent up to now is       13.5 secs

     total energy              =    -501.49007866 Ry
     estimated scf accuracy    <       0.02797575 Ry

     iteration # 80     ecut=    30.00 Ry     beta= 0.50
     Davidson diagonalization with overlap
     ethr =  5.21E-07,  avg # of iterations =  1.0

     total cpu time spent up to now is       13.5 secs

     total energy              =    -501.48803701 Ry
     estimated scf accuracy    <       0.02695467 Ry

     iteration # 81     ecut=    30.00 Ry     beta= 0.50
     Davidson diagonalization with overlap
     ethr =  5.21E-07,  avg # of iterations = 15.0

     total cpu time spent up to now is       13.7 secs

     total energy              =    -501.48758066 Ry
     estimated scf accuracy    <       0.01668901 Ry

     iteration # 82     ecut=    30.00 Ry     beta= 0.50
     Davidson diagonalization with overlap
     ethr =  5.21E-07,  avg # of iterations =  2.0

     total cpu time spent up to now is       13.8 secs

     total energy              =    -501.48659986 Ry
     estimated scf accuracy    <       0.01300903 Ry

     iteration # 83     ecut=    30.00 Ry     beta= 0.50
     Davidson diagonalization with overlap
     ethr =  5.21E-07,  avg # of iterations =  8.0

     total cpu time spent up to now is       13.9 secs

     total energy              =    -501.48494814 Ry
     estimated scf accuracy    <       0.00677779 Ry

     iteration # 84     ecut=    30.00 Ry     beta= 0.50
     Davidson diagonalization with overlap
     c_bands:  1 eigenvalues not converged
     ethr =  5.21E-07,  avg # of iterations = 20.0

     total cpu time spent up to now is       14.1 secs

     total energy              =    -501.49475987 Ry
     estimated scf accuracy    <       0.04666568 Ry

     iteration # 85     ecut=    30.00 Ry     beta= 0.50
     Davidson diagonalization with overlap
     ethr =  5.21E-07,  avg # of iterations =  6.0

     total cpu time spent up to now is       14.2 secs

     total energy              =    -501.49217193 Ry
     estimated scf accuracy    <       0.03539624 Ry

     iteration # 86     ecut=    30.00 Ry     beta= 0.50
     Davidson diagonalization with overlap
     ethr =  5.21E-07,  avg # of iterations =  8.0

     total cpu time spent up to now is       14.3 secs

     total energy              =    -501.49213580 Ry
     estimated scf accuracy    <       0.02192071 Ry

     iteration # 87     ecut=    30.00 Ry     beta= 0.50
     Davidson diagonalization with overlap
     ethr =  5.21E-07,  avg # of iterations =  1.0

     total cpu time spent up to now is       14.3 secs

     total energy              =    -501.49120476 Ry
     estimated scf accuracy    <       0.02005960 Ry

     iteration # 88     ecut=    30.00 Ry     beta= 0.50
     Davidson diagonalization with overlap
     ethr =  5.21E-07,  avg # of iterations =  2.0

     total cpu time spent up to now is       14.4 secs

     total energy              =    -501.49206553 Ry
     estimated scf accuracy    <       0.01561439 Ry

     iteration # 89     ecut=    30.00 Ry     beta= 0.50
     Davidson diagonalization with overlap
     ethr =  5.21E-07,  avg # of iterations =  1.0

     total cpu time spent up to now is       14.5 secs

     total energy              =    -501.49311674 Ry
     estimated scf accuracy    <       0.01760243 Ry

     iteration # 90     ecut=    30.00 Ry     beta= 0.50
     Davidson diagonalization with overlap
     ethr =  5.21E-07,  avg # of iterations =  2.0

     total cpu time spent up to now is       14.6 secs

     total energy              =    -501.49254082 Ry
     estimated scf accuracy    <       0.02222187 Ry

     iteration # 91     ecut=    30.00 Ry     beta= 0.50
     Davidson diagonalization with overlap
     ethr =  5.21E-07,  avg # of iterations =  1.0

     total cpu time spent up to now is       14.6 secs

     total energy              =    -501.49245717 Ry
     estimated scf accuracy    <       0.02066795 Ry

     iteration # 92     ecut=    30.00 Ry     beta= 0.50
     Davidson diagonalization with overlap
     ethr =  5.21E-07,  avg # of iterations =  1.0

     total cpu time spent up to now is       14.7 secs

     total energy              =    -501.48609943 Ry
     estimated scf accuracy    <       0.02013414 Ry

     iteration # 93     ecut=    30.00 Ry     beta= 0.50
     Davidson diagonalization with overlap
     c_bands:  1 eigenvalues not converged
     ethr =  5.21E-07,  avg # of iterations = 20.0

     total cpu time spent up to now is       14.9 secs

     total energy              =    -501.49175129 Ry
     estimated scf accuracy    <       0.06695946 Ry

     iteration # 94     ecut=    30.00 Ry     beta= 0.50
     Davidson diagonalization with overlap
     ethr =  5.21E-07,  avg # of iterations = 10.0

     total cpu time spent up to now is       15.0 secs

     total energy              =    -501.48887029 Ry
     estimated scf accuracy    <       0.04337253 Ry

     iteration # 95     ecut=    30.00 Ry     beta= 0.50
     Davidson diagonalization with overlap
     ethr =  5.21E-07,  avg # of iterations =  5.0

     total cpu time spent up to now is       15.1 secs

     total energy              =    -501.48907151 Ry
     estimated scf accuracy    <       0.02549684 Ry

     iteration # 96     ecut=    30.00 Ry     beta= 0.50
     Davidson diagonalization with overlap
     ethr =  5.21E-07,  avg # of iterations =  2.0

     total cpu time spent up to now is       15.2 secs

     total energy              =    -501.48908245 Ry
     estimated scf accuracy    <       0.02331286 Ry

     iteration # 97     ecut=    30.00 Ry     beta= 0.50
     Davidson diagonalization with overlap
     ethr =  5.21E-07,  avg # of iterations =  1.0

     total cpu time spent up to now is       15.2 secs

     total energy              =    -501.48892734 Ry
     estimated scf accuracy    <       0.02269852 Ry

     iteration # 98     ecut=    30.00 Ry     beta= 0.50
     Davidson diagonalization with overlap
     ethr =  5.21E-07,  avg # of iterations =  2.0

     total cpu time spent up to now is       15.3 secs

     total energy              =    -501.48757183 Ry
     estimated scf accuracy    <       0.02165467 Ry

     iteration # 99     ecut=    30.00 Ry     beta= 0.50
     Davidson diagonalization with overlap
     c_bands:  1 eigenvalues not converged
     ethr =  5.21E-07,  avg # of iterations = 20.0

     total cpu time spent up to now is       15.5 secs

     total energy              =    -501.48828878 Ry
     estimated scf accuracy    <       0.00672515 Ry

     iteration #100     ecut=    30.00 Ry     beta= 0.50
     Davidson diagonalization with overlap
     c_bands:  1 eigenvalues not converged
     ethr =  5.21E-07,  avg # of iterations = 20.0

     total cpu time spent up to now is       15.6 secs

     total energy              =    -501.49095520 Ry
     estimated scf accuracy    <       0.00816199 Ry

     End of self-consistent calculation

     convergence NOT achieved after 100 iterations: stopping

     Writing config to output data dir ./pwscf.save/
     Message from routine punch:
     wavefunctions written to file
 
     init_run     :      0.95s CPU      4.24s WALL (       1 calls)
     electrons    :     10.70s CPU     11.35s WALL (       1 calls)

     Called by init_run:
     wfcinit      :      0.44s CPU      3.58s WALL (       1 calls)
                                        3.58s GPU  (       1 calls)
     potinit      :      0.04s CPU      0.12s WALL (       1 calls)
     hinit0       :      0.45s CPU      0.48s WALL (       1 calls)

     Called by electrons:
     c_bands      :      7.51s CPU      7.90s WALL (     101 calls)
     sum_band     :      1.46s CPU      1.63s WALL (     101 calls)
     v_of_rho     :      0.59s CPU      0.70s WALL (     101 calls)
     mix_rho      :      0.91s CPU      0.96s WALL (     101 calls)

     Called by c_bands:
     init_us_2    :      0.25s CPU      0.27s WALL (     203 calls)
     init_us_2:gp :      0.25s CPU      0.27s WALL (     203 calls)
     regterg      :      6.80s CPU      7.14s WALL (     101 calls)

     Called by *egterg:
     rdiaghg      :      3.33s CPU      4.11s WALL (    1029 calls)
                                        3.96s GPU  (    1029 calls)
     h_psi        :      2.93s CPU      5.58s WALL (    1031 calls)
                                        5.56s GPU  (    1031 calls)
     g_psi        :      0.00s CPU      0.02s WALL (     929 calls)
                                        0.02s GPU  (     929 calls)

     Called by h_psi:
     h_psi:calbec :      0.70s CPU      3.18s WALL (    1031 calls)
                                        3.18s GPU  (    1031 calls)
     vloc_psi     :      1.71s CPU      1.85s WALL (    1031 calls)
                                        1.83s GPU  (    1031 calls)
     add_vuspsi   :      0.40s CPU      0.49s WALL (    1031 calls)
                                        0.48s GPU  (    1031 calls)

     General routines
     calbec       :      0.69s CPU      3.16s WALL (    1031 calls)
     fft          :      0.94s CPU      1.09s WALL (     809 calls)
                                        0.17s GPU  (     505 calls)
     ffts         :      0.17s CPU      0.19s WALL (     101 calls)
     fftw         :      2.03s CPU      2.52s WALL (   10020 calls)
                                        2.20s GPU  (   10020 calls)
     davcio       :      0.00s CPU      0.01s WALL (      19 calls)
 
     Parallel routines
 
     PWSCF        :     11.69s CPU     15.67s WALL

 
   This run was terminated on:  15:18:58   9May2023            

=------------------------------------------------------------------------------=
   JOB DONE.
=------------------------------------------------------------------------------=
