An instance of this daemon is already running
An instance of this daemon is already running

     Program PWSCF v.7.1 starts on  9May2023 at 15:12:50 

     This program is part of the open-source Quantum ESPRESSO suite
     for quantum simulation of materials; please cite
         "P. Giannozzi et al., J. Phys.:Condens. Matter 21 395502 (2009);
         "P. Giannozzi et al., J. Phys.:Condens. Matter 29 465901 (2017);
         "P. Giannozzi et al., J. Chem. Phys. 152 154105 (2020);
          URL http://www.quantum-espresso.org", 
     in publications or presentations arising from this work. More details at
     http://www.quantum-espresso.org/quote

     Parallel version (MPI & OpenMP), running on       4 processor cores
     Number of MPI processes:                 4
     Threads/MPI process:                     1

     MPI processes distributed on     1 nodes
     64279 MiB available memory on the printing compute node when the environment starts
 
     Reading input from pw-si-38.in
Warning: card &CELL ignored
Warning: card / ignored

     Current dimensions of program PWSCF are:
     Max number of different atomic species (ntypx) = 10
     Max number of k-points (npk) =  40000
     Max angular momentum in pseudopotentials (lmaxx) =  4

     IMPORTANT: XC functional enforced from input :
     Exchange-correlation= PBE
                           (   1   4   3   4   0   0   0)
     Any further DFT definition will be discarded
     Please, verify this is what you really want


     gamma-point specific algorithms are used
 
     K-points division:     npool     =       2
     R & G space division:  proc/nbgrp/npool/nimage =       2
     Subspace diagonalization in iterative solution of the eigenvalue problem:
     a serial algorithm will be used

     Message from routine divide_et_impera:
     suboptimal parallelization: some nodes have no k-points
 
     Parallelization info
     --------------------
     sticks:   dense  smooth     PW     G-vecs:    dense   smooth      PW
     Min        1935    1935    516                90689    90689   12416
     Max        1942    1942    517                90690    90690   12421
     Sum        3877    3877   1033               181379   181379   24837
 
     Using Slab Decomposition
 


     bravais-lattice index     =            0
     lattice parameter (alat)  =      20.1483  a.u.
     unit-cell volume          =    8179.2273 (a.u.)^3
     number of atoms/cell      =           64
     number of atomic types    =            1
     number of electrons       =       256.00
     number of Kohn-Sham states=          128
     kinetic-energy cutoff     =      30.0000  Ry
     charge density cutoff     =     120.0000  Ry
     scf convergence threshold =      1.0E-06
     mixing beta               =       0.5000
     number of iterations used =            8  plain     mixing
     Exchange-correlation= PBE
                           (   1   4   3   4   0   0   0)

     GPU acceleration is ACTIVE.
     GPU-aware MPI enabled

     Message from routine print_cuda_info:
     High GPU oversubscription detected. Are you sure this is what you want?

     celldm(1)=  20.148254  celldm(2)=   0.000000  celldm(3)=   0.000000
     celldm(4)=   0.000000  celldm(5)=   0.000000  celldm(6)=   0.000000

     crystal axes: (cart. coord. in units of alat)
               a(1) = (   1.000000   0.000000   0.000000 )  
               a(2) = (   0.000000   1.000000   0.000000 )  
               a(3) = (   0.000000   0.000000   1.000000 )  

     reciprocal axes: (cart. coord. in units 2 pi/alat)
               b(1) = (  1.000000  0.000000  0.000000 )  
               b(2) = (  0.000000  1.000000  0.000000 )  
               b(3) = (  0.000000  0.000000  1.000000 )  


     PseudoPot. # 1 for Si read from file:
     /home/ppiaggi/pseudos/Si_ONCV_PBE_sr.upf
     MD5 check sum: 8553c464762ac42b85b1eed164b4d029
     Pseudo is Norm-conserving, Zval =  4.0
     Generated using ONCVPSP code by D. R. Hamann
     Using radial grid of 1510 points,  4 beta functions with: 
                l(1) =   0
                l(2) =   0
                l(3) =   1
                l(4) =   1

     atomic species   valence    mass     pseudopotential
        Si             4.00    28.08500     Si( 1.00)

     No symmetry found



   Cartesian axes

     site n.     atom                  positions (alat units)
         1           Si  tau(   1) = (   0.4594770   0.5514990   0.6428940  )
         2           Si  tau(   2) = (   0.5368150   0.5697110   0.8944290  )
         3           Si  tau(   3) = (   0.9904680   0.8562990   0.9998260  )
         4           Si  tau(   4) = (   0.4042850   0.3237330   0.6895290  )
         5           Si  tau(   5) = (   0.5644490   0.9485290   0.5068440  )
         6           Si  tau(   6) = (   0.1811640   0.2957510   0.8524150  )
         7           Si  tau(   7) = (   0.2125970   0.5597770   0.6194370  )
         8           Si  tau(   8) = (   0.9516110   0.4335910   0.6986280  )
         9           Si  tau(   9) = (   0.8767090   0.5908750   0.9480470  )
        10           Si  tau(  10) = (   0.3404100   0.7619960   0.0021899  )
        11           Si  tau(  11) = (   0.1407190   0.8059660   0.8514060  )
        12           Si  tau(  12) = (   0.6560430   0.1982190   0.6578070  )
        13           Si  tau(  13) = (   0.9952810   0.7281140   0.4354540  )
        14           Si  tau(  14) = (   0.8249830   0.3010900   0.1905070  )
        15           Si  tau(  15) = (   0.2586700   0.1361300   0.0074345  )
        16           Si  tau(  16) = (   0.5530910   0.2605180   0.1650400  )
        17           Si  tau(  17) = (   0.8462330   0.5528470   0.5466950  )
        18           Si  tau(  18) = (   0.9452940   0.1349590   0.8853000  )
        19           Si  tau(  19) = (   0.0725582   0.8102940   0.6298930  )
        20           Si  tau(  20) = (   0.9248740   0.5454380   0.1930930  )
        21           Si  tau(  21) = (   0.6614430   0.5843280   0.1568650  )
        22           Si  tau(  22) = (   0.0332741   0.3376190   0.3883260  )
        23           Si  tau(  23) = (   0.0363072   0.0015206   0.2968020  )
        24           Si  tau(  24) = (   0.9019940   0.1679180   0.6236390  )
        25           Si  tau(  25) = (   0.7878630   0.3504210   0.8178380  )
        26           Si  tau(  26) = (   0.6988720   0.9868300   0.1786880  )
        27           Si  tau(  27) = (   0.2969370   0.8002760   0.5573920  )
        28           Si  tau(  28) = (   0.8457790   0.8117180   0.7269390  )
        29           Si  tau(  29) = (   0.1576190   0.3150650   0.5969500  )
        30           Si  tau(  30) = (   0.7765240   0.8916230   0.9311370  )
        31           Si  tau(  31) = (   0.2901220   0.5258110   0.9517440  )
        32           Si  tau(  32) = (   0.1206200   0.5319730   0.3580900  )
        33           Si  tau(  33) = (   0.6340550   0.4198760   0.5122810  )
        34           Si  tau(  34) = (   0.6458120   0.1129100   0.3785180  )
        35           Si  tau(  35) = (   0.5110860   0.4329740   0.3088660  )
        36           Si  tau(  36) = (   0.7357240   0.6216520   0.7433250  )
        37           Si  tau(  37) = (   0.7382540   0.6682360   0.3641650  )
        38           Si  tau(  38) = (   0.3649170   0.1102740   0.1980410  )
        39           Si  tau(  39) = (   0.0871481   0.5885370   0.8274390  )
        40           Si  tau(  40) = (   0.4941990   0.8943790   0.1575320  )
        41           Si  tau(  41) = (   0.0585817   0.7744770   0.2109070  )
        42           Si  tau(  42) = (   0.6405130   0.3777580   0.9862900  )
        43           Si  tau(  43) = (   0.2567220   0.9157960   0.3666200  )
        44           Si  tau(  44) = (   0.3787680   0.6202040   0.4022100  )
        45           Si  tau(  45) = (   0.5862460   0.0962344   0.8297390  )
        46           Si  tau(  46) = (   0.7927490   0.9621960   0.5775370  )
        47           Si  tau(  47) = (   0.2753460   0.7318280   0.2179430  )
        48           Si  tau(  48) = (   0.2858420   0.0451626   0.6400520  )
        49           Si  tau(  49) = (   0.4419730   0.2304530   0.9289120  )
        50           Si  tau(  50) = (   0.2741910   0.4683430   0.1821550  )
        51           Si  tau(  51) = (   0.7660240   0.1363430   0.0035479  )
        52           Si  tau(  52) = (   0.4389350   0.1616520   0.5378870  )
        53           Si  tau(  53) = (   0.5215950   0.7750220   0.6663200  )
        54           Si  tau(  54) = (   0.0829522   0.0366270   0.5241590  )
        55           Si  tau(  55) = (   0.6345510   0.7501210   0.0146254  )
        56           Si  tau(  56) = (   0.3193600   0.2971600   0.3677690  )
        57           Si  tau(  57) = (   0.2914510   0.9853380   0.8327150  )
        58           Si  tau(  58) = (   0.8231960   0.2982490   0.4291670  )
        59           Si  tau(  59) = (   0.1044990   0.2602850   0.1865760  )
        60           Si  tau(  60) = (   0.5411650   0.7957430   0.3519880  )
        61           Si  tau(  61) = (   0.9962740   0.3655010   0.9923320  )
        62           Si  tau(  62) = (   0.8268150   0.9008340   0.3751320  )
        63           Si  tau(  63) = (   0.4933630   0.8925330   0.8434600  )
        64           Si  tau(  64) = (   0.0468357   0.0617831   0.0584068  )

     number of k points=     1
                       cart. coord. in units 2pi/alat
        k(    1) = (   0.0000000   0.0000000   0.0000000), wk =   2.0000000

     Dense  grid:    90690 G-vectors     FFT dimensions: (  72,  72,  72)

     Estimated max dynamical RAM per process >     133.66 MB

     Estimated total dynamical RAM >     512.49 MB

     Initial potential from superposition of free atoms

     starting charge     255.9608, renormalised to     256.0000
     Starting wfcs are  256 randomized atomic wfcs

     total cpu time spent up to now is        4.0 secs

     Self-consistent Calculation

     iteration #  1     ecut=    30.00 Ry     beta= 0.50
     Davidson diagonalization with overlap
     ethr =  1.00E-02,  avg # of iterations =  2.0

     Threshold (ethr) on eigenvalues was too large:
     Diagonalizing with lowered threshold

     Davidson diagonalization with overlap
     ethr =  4.06E-04,  avg # of iterations =  6.0

     total cpu time spent up to now is        4.2 secs

     total energy              =    -501.05544397 Ry
     estimated scf accuracy    <       1.31509726 Ry

     iteration #  2     ecut=    30.00 Ry     beta= 0.50
     Davidson diagonalization with overlap
     ethr =  5.14E-04,  avg # of iterations = 12.0

     total cpu time spent up to now is        4.4 secs

     total energy              =    -500.37401932 Ry
     estimated scf accuracy    <       9.50401151 Ry

     iteration #  3     ecut=    30.00 Ry     beta= 0.50
     Davidson diagonalization with overlap
     ethr =  5.14E-04,  avg # of iterations = 10.0

     total cpu time spent up to now is        4.5 secs

     total energy              =    -501.23459405 Ry
     estimated scf accuracy    <       1.53499241 Ry

     iteration #  4     ecut=    30.00 Ry     beta= 0.50
     Davidson diagonalization with overlap
     ethr =  5.14E-04,  avg # of iterations =  7.0

     total cpu time spent up to now is        4.6 secs

     total energy              =    -501.34192144 Ry
     estimated scf accuracy    <       0.42940816 Ry

     iteration #  5     ecut=    30.00 Ry     beta= 0.50
     Davidson diagonalization with overlap
     ethr =  1.68E-04,  avg # of iterations = 12.0

     total cpu time spent up to now is        4.7 secs

     total energy              =    -501.37268846 Ry
     estimated scf accuracy    <       0.29509214 Ry

     iteration #  6     ecut=    30.00 Ry     beta= 0.50
     Davidson diagonalization with overlap
     ethr =  1.15E-04,  avg # of iterations =  7.0

     total cpu time spent up to now is        4.8 secs

     total energy              =    -501.40652256 Ry
     estimated scf accuracy    <       0.04448987 Ry

     iteration #  7     ecut=    30.00 Ry     beta= 0.50
     Davidson diagonalization with overlap
     c_bands:  1 eigenvalues not converged
     ethr =  1.74E-05,  avg # of iterations = 20.0

     total cpu time spent up to now is        5.0 secs

     total energy              =    -501.41204678 Ry
     estimated scf accuracy    <       0.05912760 Ry

     iteration #  8     ecut=    30.00 Ry     beta= 0.50
     Davidson diagonalization with overlap
     ethr =  1.74E-05,  avg # of iterations =  3.0

     total cpu time spent up to now is        5.1 secs

     total energy              =    -501.41190233 Ry
     estimated scf accuracy    <       0.02668041 Ry

     iteration #  9     ecut=    30.00 Ry     beta= 0.50
     Davidson diagonalization with overlap
     c_bands:  1 eigenvalues not converged
     ethr =  1.04E-05,  avg # of iterations = 20.0

     total cpu time spent up to now is        5.2 secs

     total energy              =    -501.41327175 Ry
     estimated scf accuracy    <       0.00449845 Ry

     iteration # 10     ecut=    30.00 Ry     beta= 0.50
     Davidson diagonalization with overlap
     ethr =  1.76E-06,  avg # of iterations = 17.0

     total cpu time spent up to now is        5.4 secs

     total energy              =    -501.41433576 Ry
     estimated scf accuracy    <       0.01100945 Ry

     iteration # 11     ecut=    30.00 Ry     beta= 0.50
     Davidson diagonalization with overlap
     ethr =  1.76E-06,  avg # of iterations = 16.0

     total cpu time spent up to now is        5.5 secs

     total energy              =    -501.41430987 Ry
     estimated scf accuracy    <       0.00608335 Ry

     iteration # 12     ecut=    30.00 Ry     beta= 0.50
     Davidson diagonalization with overlap
     ethr =  1.76E-06,  avg # of iterations = 11.0

     total cpu time spent up to now is        5.7 secs

     total energy              =    -501.41447239 Ry
     estimated scf accuracy    <       0.00135393 Ry

     iteration # 13     ecut=    30.00 Ry     beta= 0.50
     Davidson diagonalization with overlap
     ethr =  5.29E-07,  avg # of iterations = 20.0

     total cpu time spent up to now is        5.8 secs

     total energy              =    -501.41469113 Ry
     estimated scf accuracy    <       0.00120399 Ry

     iteration # 14     ecut=    30.00 Ry     beta= 0.50
     Davidson diagonalization with overlap
     ethr =  4.70E-07,  avg # of iterations =  8.0

     total cpu time spent up to now is        5.9 secs

     total energy              =    -501.41469560 Ry
     estimated scf accuracy    <       0.00078601 Ry

     iteration # 15     ecut=    30.00 Ry     beta= 0.50
     Davidson diagonalization with overlap
     ethr =  3.07E-07,  avg # of iterations =  3.0

     total cpu time spent up to now is        6.0 secs

     total energy              =    -501.41469803 Ry
     estimated scf accuracy    <       0.00038152 Ry

     iteration # 16     ecut=    30.00 Ry     beta= 0.50
     Davidson diagonalization with overlap
     ethr =  1.49E-07,  avg # of iterations = 20.0

     total cpu time spent up to now is        6.2 secs

     total energy              =    -501.41474898 Ry
     estimated scf accuracy    <       0.00017659 Ry

     iteration # 17     ecut=    30.00 Ry     beta= 0.50
     Davidson diagonalization with overlap
     ethr =  6.90E-08,  avg # of iterations = 14.0

     total cpu time spent up to now is        6.3 secs

     total energy              =    -501.41475135 Ry
     estimated scf accuracy    <       0.00011294 Ry

     iteration # 18     ecut=    30.00 Ry     beta= 0.50
     Davidson diagonalization with overlap
     c_bands:  1 eigenvalues not converged
     ethr =  4.41E-08,  avg # of iterations = 20.0

     total cpu time spent up to now is        6.4 secs

     total energy              =    -501.41475169 Ry
     estimated scf accuracy    <       0.00003447 Ry

     iteration # 19     ecut=    30.00 Ry     beta= 0.50
     Davidson diagonalization with overlap
     ethr =  1.35E-08,  avg # of iterations = 16.0

     total cpu time spent up to now is        6.6 secs

     total energy              =    -501.41475539 Ry
     estimated scf accuracy    <       0.00001851 Ry

     iteration # 20     ecut=    30.00 Ry     beta= 0.50
     Davidson diagonalization with overlap
     ethr =  7.23E-09,  avg # of iterations = 10.0

     total cpu time spent up to now is        6.7 secs

     total energy              =    -501.41475579 Ry
     estimated scf accuracy    <       0.00004211 Ry

     iteration # 21     ecut=    30.00 Ry     beta= 0.50
     Davidson diagonalization with overlap
     ethr =  7.23E-09,  avg # of iterations =  8.0

     total cpu time spent up to now is        6.8 secs

     total energy              =    -501.41475657 Ry
     estimated scf accuracy    <       0.00001018 Ry

     iteration # 22     ecut=    30.00 Ry     beta= 0.50
     Davidson diagonalization with overlap
     ethr =  3.98E-09,  avg # of iterations =  3.0

     total cpu time spent up to now is        6.9 secs

     total energy              =    -501.41475744 Ry
     estimated scf accuracy    <       0.00000224 Ry

     iteration # 23     ecut=    30.00 Ry     beta= 0.50
     Davidson diagonalization with overlap
     c_bands:  1 eigenvalues not converged
     ethr =  8.75E-10,  avg # of iterations = 20.0

     total cpu time spent up to now is        7.1 secs

     total energy              =    -501.41475795 Ry
     estimated scf accuracy    <       0.00000220 Ry

     iteration # 24     ecut=    30.00 Ry     beta= 0.50
     Davidson diagonalization with overlap
     ethr =  8.60E-10,  avg # of iterations = 13.0

     total cpu time spent up to now is        7.2 secs

     total energy              =    -501.41475800 Ry
     estimated scf accuracy    <       0.00000172 Ry

     iteration # 25     ecut=    30.00 Ry     beta= 0.50
     Davidson diagonalization with overlap
     ethr =  6.70E-10,  avg # of iterations =  2.0

     total cpu time spent up to now is        7.2 secs

     End of self-consistent calculation

          k = 0.0000 0.0000 0.0000 ( 11372 PWs)   bands (ev):

    -5.3357  -4.4380  -4.2819  -4.2108  -4.1601  -4.0671  -3.9727  -3.3332
    -3.2716  -3.2424  -3.0909  -3.0427  -3.0204  -2.8893  -2.8391  -2.7922
    -2.7436  -2.6090  -2.4484  -2.1836  -2.0101  -1.9217  -1.8719  -1.6920
    -1.5608  -1.4638  -1.2159  -0.9536  -0.7170  -0.6357  -0.4630  -0.4434
    -0.2947  -0.2063  -0.1223  -0.0883   0.0298   0.0689   0.1364   0.2327
     0.3079   0.3507   0.4275   0.5477   0.6654   0.8312   0.8985   1.0084
     1.0188   1.0738   1.1386   1.2541   1.3093   1.4391   1.5004   1.6106
     1.7241   1.7542   1.8265   2.0017   2.1333   2.3365   2.4022   2.4670
     2.5199   2.5990   2.6121   2.7108   2.7442   2.8616   2.9594   2.9935
     3.0709   3.1306   3.2040   3.3239   3.3941   3.4434   3.4606   3.6164
     3.7094   4.0819   4.3007   4.3263   4.3770   4.4356   4.6274   4.6699
     4.7292   4.8092   4.8941   4.9456   4.9853   5.0140   5.0829   5.1485
     5.1792   5.2712   5.3764   5.4259   5.4549   5.4949   5.5282   5.6246
     5.6509   5.6940   5.7730   5.8642   5.9091   5.9214   5.9576   5.9969
     6.1283   6.1977   6.2446   6.3518   6.4414   6.4663   6.5642   6.5853
     6.6657   6.6884   6.8093   6.8480   6.8825   7.0032   7.0294   7.0975

     highest occupied level (ev):     7.0975

!    total energy              =    -501.41475715 Ry
     estimated scf accuracy    <       0.00000096 Ry

     The total energy is the sum of the following terms:
     one-electron contribution =     191.28649179 Ry
     hartree contribution      =      22.08307725 Ry
     xc contribution           =    -150.61472056 Ry
     ewald contribution        =    -564.16960564 Ry

     convergence has been achieved in  25 iterations

     Forces acting on atoms (cartesian axes, Ry/au):

     atom    1 type  1   force =     0.00444260   -0.01259640    0.00937596
     atom    2 type  1   force =    -0.00094581    0.00670044   -0.01115104
     atom    3 type  1   force =    -0.02208348   -0.00856074    0.03160375
     atom    4 type  1   force =    -0.02300616    0.02453490    0.04421595
     atom    5 type  1   force =     0.01763609    0.01140825    0.02645551
     atom    6 type  1   force =     0.00130817    0.01840936    0.00233533
     atom    7 type  1   force =     0.00571249   -0.00660310   -0.02270540
     atom    8 type  1   force =     0.05014801    0.00214400    0.00664902
     atom    9 type  1   force =     0.01225630   -0.02233796    0.01111473
     atom   10 type  1   force =    -0.00506056   -0.00629722    0.00738014
     atom   11 type  1   force =     0.03438437    0.02389129   -0.00681868
     atom   12 type  1   force =     0.02367352    0.02821395   -0.02245823
     atom   13 type  1   force =    -0.02906785   -0.05104051   -0.01602420
     atom   14 type  1   force =     0.00571258    0.01960289   -0.02958088
     atom   15 type  1   force =    -0.03683516   -0.01984407   -0.02013748
     atom   16 type  1   force =    -0.01431725   -0.02445307    0.00231746
     atom   17 type  1   force =    -0.01622321    0.00390498   -0.03437831
     atom   18 type  1   force =    -0.00730768    0.03524478   -0.06615181
     atom   19 type  1   force =    -0.00043331    0.01935760    0.01926730
     atom   20 type  1   force =    -0.02462267   -0.00791182   -0.02350404
     atom   21 type  1   force =     0.02446966   -0.03371149    0.00364125
     atom   22 type  1   force =     0.00973863   -0.01543398    0.01093619
     atom   23 type  1   force =     0.01210498   -0.02766555    0.01671363
     atom   24 type  1   force =    -0.01146719   -0.02730027   -0.00069998
     atom   25 type  1   force =    -0.01244001   -0.02778680    0.00518884
     atom   26 type  1   force =     0.00826595    0.03406474    0.01911607
     atom   27 type  1   force =     0.01433111   -0.01030513    0.01073420
     atom   28 type  1   force =     0.00715602   -0.01112311    0.01414012
     atom   29 type  1   force =     0.01008864    0.02536891   -0.00103291
     atom   30 type  1   force =     0.03753420    0.02414726   -0.00363459
     atom   31 type  1   force =    -0.00978217    0.00431050    0.00688322
     atom   32 type  1   force =     0.00798004    0.03347671    0.00780782
     atom   33 type  1   force =     0.00718207    0.01820328    0.00292764
     atom   34 type  1   force =     0.00886245    0.02185361   -0.03877326
     atom   35 type  1   force =    -0.02299973    0.01903669    0.00425782
     atom   36 type  1   force =    -0.01925583    0.01067407    0.00837404
     atom   37 type  1   force =     0.01557806    0.00892663   -0.00409465
     atom   38 type  1   force =     0.02732117   -0.01908390    0.03935161
     atom   39 type  1   force =     0.00921104   -0.02331730   -0.00553926
     atom   40 type  1   force =    -0.00633577    0.00196863   -0.01952057
     atom   41 type  1   force =    -0.00776200    0.00014863   -0.00590606
     atom   42 type  1   force =    -0.01525118    0.02695158    0.00223151
     atom   43 type  1   force =    -0.01593924    0.02715307   -0.03955583
     atom   44 type  1   force =     0.01479691    0.03070627    0.00614401
     atom   45 type  1   force =     0.01692306   -0.02104113    0.07578968
     atom   46 type  1   force =    -0.04318455    0.04835994    0.00634466
     atom   47 type  1   force =     0.00634040   -0.00589217    0.00163174
     atom   48 type  1   force =    -0.02278949   -0.00019028   -0.08887465
     atom   49 type  1   force =     0.03693466    0.03310365   -0.01434442
     atom   50 type  1   force =    -0.01019579    0.00270208    0.00662328
     atom   51 type  1   force =    -0.05004164   -0.03497484    0.01934079
     atom   52 type  1   force =     0.03499895   -0.00533649   -0.04193886
     atom   53 type  1   force =     0.00267558   -0.03111335   -0.02967404
     atom   54 type  1   force =    -0.01160391   -0.00772618    0.01109185
     atom   55 type  1   force =    -0.04440312   -0.00642157   -0.01305008
     atom   56 type  1   force =     0.01187554   -0.01829866   -0.00513723
     atom   57 type  1   force =    -0.00883842   -0.04177199    0.08412167
     atom   58 type  1   force =    -0.03407324   -0.01386801    0.01562817
     atom   59 type  1   force =     0.00405117    0.00822477   -0.01441150
     atom   60 type  1   force =    -0.00960320   -0.04846278    0.00635701
     atom   61 type  1   force =    -0.00243637    0.01700587    0.00329686
     atom   62 type  1   force =     0.03077483   -0.02255681   -0.04137173
     atom   63 type  1   force =    -0.01008366    0.01350921    0.02829577
     atom   64 type  1   force =     0.03392038    0.00971813    0.04278509

     Total force =     0.332928     Total SCF correction =     0.001966


     Computing stress (Cartesian axis) and pressure

          total   stress  (Ry/bohr**3)                   (kbar)     P=      -37.27
  -0.00027549  -0.00003778  -0.00007002          -40.53       -5.56      -10.30
  -0.00003778  -0.00021432  -0.00003805           -5.56      -31.53       -5.60
  -0.00007002  -0.00003805  -0.00027022          -10.30       -5.60      -39.75

 
     init_run     :      0.94s CPU      3.97s WALL (       1 calls)
     electrons    :      2.97s CPU      3.22s WALL (       1 calls)
     forces       :      0.03s CPU      0.03s WALL (       1 calls)
     stress       :      0.11s CPU      0.13s WALL (       1 calls)

     Called by init_run:
     wfcinit      :      0.44s CPU      3.30s WALL (       1 calls)
                                        3.30s GPU  (       1 calls)
     potinit      :      0.04s CPU      0.13s WALL (       1 calls)
     hinit0       :      0.45s CPU      0.48s WALL (       1 calls)

     Called by electrons:
     c_bands      :      2.21s CPU      2.37s WALL (      26 calls)
     sum_band     :      0.36s CPU      0.42s WALL (      26 calls)
     v_of_rho     :      0.16s CPU      0.26s WALL (      26 calls)
     mix_rho      :      0.20s CPU      0.21s WALL (      26 calls)

     Called by c_bands:
     init_us_2    :      0.06s CPU      0.07s WALL (      53 calls)
     init_us_2:gp :      0.06s CPU      0.07s WALL (      53 calls)
     regterg      :      2.03s CPU      2.18s WALL (      26 calls)

     Called by *egterg:
     rdiaghg      :      1.10s CPU      1.76s WALL (     325 calls)
                                        1.71s GPU  (     325 calls)
     h_psi        :      1.06s CPU      3.38s WALL (     327 calls)
                                        3.38s GPU  (     327 calls)
     g_psi        :      0.00s CPU      0.01s WALL (     300 calls)
                                        0.00s GPU  (     300 calls)

     Called by h_psi:
     h_psi:calbec :      0.45s CPU      2.69s WALL (     327 calls)
                                        2.68s GPU  (     327 calls)
     vloc_psi     :      0.44s CPU      0.52s WALL (     327 calls)
                                        0.52s GPU  (     327 calls)
     add_vuspsi   :      0.12s CPU      0.16s WALL (     327 calls)
                                        0.16s GPU  (     327 calls)

     General routines
     calbec       :      0.46s CPU      2.69s WALL (     332 calls)
     fft          :      0.58s CPU      0.70s WALL (     215 calls)
                                        0.12s GPU  (     136 calls)
     ffts         :      0.04s CPU      0.05s WALL (      26 calls)
     fftw         :      0.51s CPU      0.68s WALL (    2704 calls)
                                        0.59s GPU  (    2704 calls)
 
     Parallel routines
 
     PWSCF        :      4.09s CPU      7.42s WALL

 
   This run was terminated on:  15:12:57   9May2023            

=------------------------------------------------------------------------------=
   JOB DONE.
=------------------------------------------------------------------------------=
