An instance of this daemon is already running
An instance of this daemon is already running

     Program PWSCF v.7.1 starts on  9May2023 at 15:20:55 

     This program is part of the open-source Quantum ESPRESSO suite
     for quantum simulation of materials; please cite
         "P. Giannozzi et al., J. Phys.:Condens. Matter 21 395502 (2009);
         "P. Giannozzi et al., J. Phys.:Condens. Matter 29 465901 (2017);
         "P. Giannozzi et al., J. Chem. Phys. 152 154105 (2020);
          URL http://www.quantum-espresso.org", 
     in publications or presentations arising from this work. More details at
     http://www.quantum-espresso.org/quote

     Parallel version (MPI & OpenMP), running on       4 processor cores
     Number of MPI processes:                 4
     Threads/MPI process:                     1

     MPI processes distributed on     1 nodes
     51751 MiB available memory on the printing compute node when the environment starts
 
     Reading input from pw-si-76.in
Warning: card &CELL ignored
Warning: card / ignored

     Current dimensions of program PWSCF are:
     Max number of different atomic species (ntypx) = 10
     Max number of k-points (npk) =  40000
     Max angular momentum in pseudopotentials (lmaxx) =  4

     IMPORTANT: XC functional enforced from input :
     Exchange-correlation= PBE
                           (   1   4   3   4   0   0   0)
     Any further DFT definition will be discarded
     Please, verify this is what you really want


     gamma-point specific algorithms are used
 
     K-points division:     npool     =       2
     R & G space division:  proc/nbgrp/npool/nimage =       2
     Subspace diagonalization in iterative solution of the eigenvalue problem:
     a serial algorithm will be used

     Message from routine divide_et_impera:
     suboptimal parallelization: some nodes have no k-points
 
     Parallelization info
     --------------------
     sticks:   dense  smooth     PW     G-vecs:    dense   smooth      PW
     Min        1942    1942    516                90833    90833   12416
     Max        1943    1943    517                90834    90834   12421
     Sum        3885    3885   1033               181667   181667   24837
 
     Using Slab Decomposition
 


     bravais-lattice index     =            0
     lattice parameter (alat)  =      20.1509  a.u.
     unit-cell volume          =    8182.4707 (a.u.)^3
     number of atoms/cell      =           64
     number of atomic types    =            1
     number of electrons       =       256.00
     number of Kohn-Sham states=          128
     kinetic-energy cutoff     =      30.0000  Ry
     charge density cutoff     =     120.0000  Ry
     scf convergence threshold =      1.0E-06
     mixing beta               =       0.5000
     number of iterations used =            8  plain     mixing
     Exchange-correlation= PBE
                           (   1   4   3   4   0   0   0)

     GPU acceleration is ACTIVE.
     GPU-aware MPI enabled

     Message from routine print_cuda_info:
     High GPU oversubscription detected. Are you sure this is what you want?

     celldm(1)=  20.150917  celldm(2)=   0.000000  celldm(3)=   0.000000
     celldm(4)=   0.000000  celldm(5)=   0.000000  celldm(6)=   0.000000

     crystal axes: (cart. coord. in units of alat)
               a(1) = (   1.000000   0.000000   0.000000 )  
               a(2) = (   0.000000   1.000000   0.000000 )  
               a(3) = (   0.000000   0.000000   1.000000 )  

     reciprocal axes: (cart. coord. in units 2 pi/alat)
               b(1) = (  1.000000  0.000000  0.000000 )  
               b(2) = (  0.000000  1.000000  0.000000 )  
               b(3) = (  0.000000  0.000000  1.000000 )  


     PseudoPot. # 1 for Si read from file:
     /home/ppiaggi/pseudos/Si_ONCV_PBE_sr.upf
     MD5 check sum: 8553c464762ac42b85b1eed164b4d029
     Pseudo is Norm-conserving, Zval =  4.0
     Generated using ONCVPSP code by D. R. Hamann
     Using radial grid of 1510 points,  4 beta functions with: 
                l(1) =   0
                l(2) =   0
                l(3) =   1
                l(4) =   1

     atomic species   valence    mass     pseudopotential
        Si             4.00    28.08500     Si( 1.00)

     No symmetry found



   Cartesian axes

     site n.     atom                  positions (alat units)
         1           Si  tau(   1) = (   0.8344730   0.5834200   0.8180150  )
         2           Si  tau(   2) = (   0.4604470   0.6480680   0.7927280  )
         3           Si  tau(   3) = (   0.7305130   0.3268090   0.0643265  )
         4           Si  tau(   4) = (   0.5011480   0.3347310   0.6681880  )
         5           Si  tau(   5) = (   0.6517530   0.9376700   0.8760740  )
         6           Si  tau(   6) = (   0.1254200   0.5836080   0.2509930  )
         7           Si  tau(   7) = (   0.9297880   0.4054010   0.2085160  )
         8           Si  tau(   8) = (   0.9679050   0.2665830   0.6633200  )
         9           Si  tau(   9) = (   0.2360160   0.6844670   0.5821160  )
        10           Si  tau(  10) = (   0.7884800   0.5807450   0.0524760  )
        11           Si  tau(  11) = (   0.5097930   0.2912220   0.3588250  )
        12           Si  tau(  12) = (   0.9221900   0.0194593   0.0964626  )
        13           Si  tau(  13) = (   0.7442330   0.1327360   0.2173250  )
        14           Si  tau(  14) = (   0.8745190   0.0305797   0.8749970  )
        15           Si  tau(  15) = (   0.5765050   0.6569190   0.6008700  )
        16           Si  tau(  16) = (   0.1883710   0.9358120   0.9462560  )
        17           Si  tau(  17) = (   0.4657990   0.5812420   0.1808750  )
        18           Si  tau(  18) = (   0.0717899   0.4152490   0.0213869  )
        19           Si  tau(  19) = (   0.1687200   0.7662790   0.4019180  )
        20           Si  tau(  20) = (   0.6387940   0.4485370   0.2368590  )
        21           Si  tau(  21) = (   0.4731030   0.1398440   0.1781790  )
        22           Si  tau(  22) = (   0.9862630   0.4151160   0.5059350  )
        23           Si  tau(  23) = (   0.1121200   0.0144081   0.3773870  )
        24           Si  tau(  24) = (   0.4113380   0.9070290   0.8953520  )
        25           Si  tau(  25) = (   0.6665150   0.4837450   0.5163280  )
        26           Si  tau(  26) = (   0.8092970   0.9378550   0.6133020  )
        27           Si  tau(  27) = (   0.4462790   0.6966740   0.4124820  )
        28           Si  tau(  28) = (   0.1968390   0.0798050   0.6831700  )
        29           Si  tau(  29) = (   0.0602816   0.1825200   0.1797610  )
        30           Si  tau(  30) = (   0.0670649   0.8689520   0.1619030  )
        31           Si  tau(  31) = (   0.3502570   0.9256890   0.3602450  )
        32           Si  tau(  32) = (   0.3085590   0.3891480   0.1439270  )
        33           Si  tau(  33) = (   0.2220960   0.4536560   0.5597130  )
        34           Si  tau(  34) = (   0.2005740   0.6027450   0.9348420  )
        35           Si  tau(  35) = (   0.6910850   0.1924960   0.4684030  )
        36           Si  tau(  36) = (   0.2713660   0.1768850   0.3233580  )
        37           Si  tau(  37) = (   0.4183220   0.9124710   0.1409400  )
        38           Si  tau(  38) = (   0.6351020   0.8759350   0.4820810  )
        39           Si  tau(  39) = (   0.0108272   0.0596549   0.5784950  )
        40           Si  tau(  40) = (   0.5645460   0.6832000   0.0037288  )
        41           Si  tau(  41) = (   0.4800190   0.0094063   0.5367350  )
        42           Si  tau(  42) = (   0.6320330   0.9358490   0.2519410  )
        43           Si  tau(  43) = (   0.3583690   0.4699420   0.3842840  )
        44           Si  tau(  44) = (   0.1610160   0.2914030   0.7972370  )
        45           Si  tau(  45) = (   0.0989838   0.7142250   0.7676460  )
        46           Si  tau(  46) = (   0.8966200   0.3102190   0.9101970  )
        47           Si  tau(  47) = (   0.9315080   0.6963590   0.1981170  )
        48           Si  tau(  48) = (   0.7274960   0.8503600   0.0753614  )
        49           Si  tau(  49) = (   0.3588630   0.2033730   0.5371910  )
        50           Si  tau(  50) = (   0.9024020   0.2309020   0.3863080  )
        51           Si  tau(  51) = (   0.3295480   0.8692510   0.6848080  )
        52           Si  tau(  52) = (   0.9598690   0.6165070   0.6448240  )
        53           Si  tau(  53) = (   0.7136360   0.1398630   0.6888790  )
        54           Si  tau(  54) = (   0.2510080   0.6926300   0.1271100  )
        55           Si  tau(  55) = (   0.4798430   0.1061230   0.7984040  )
        56           Si  tau(  56) = (   0.8452240   0.5687580   0.3778310  )
        57           Si  tau(  57) = (   0.0383057   0.9241090   0.7931340  )
        58           Si  tau(  58) = (   0.4434550   0.2443280   0.9780110  )
        59           Si  tau(  59) = (   0.9351370   0.7904920   0.4862480  )
        60           Si  tau(  60) = (   0.2224220   0.1719190   0.9855860  )
        61           Si  tau(  61) = (   0.7158570   0.7592570   0.7430330  )
        62           Si  tau(  62) = (   0.5728420   0.4074430   0.9069400  )
        63           Si  tau(  63) = (   0.3411270   0.4505110   0.8004010  )
        64           Si  tau(  64) = (   0.7481530   0.3783190   0.7256090  )

     number of k points=     1
                       cart. coord. in units 2pi/alat
        k(    1) = (   0.0000000   0.0000000   0.0000000), wk =   2.0000000

     Dense  grid:    90834 G-vectors     FFT dimensions: (  72,  72,  72)

     Estimated max dynamical RAM per process >     133.72 MB

     Estimated total dynamical RAM >     512.72 MB

     Initial potential from superposition of free atoms

     starting charge     255.9608, renormalised to     256.0000
     Starting wfcs are  256 randomized atomic wfcs

     total cpu time spent up to now is        4.4 secs

     Self-consistent Calculation

     iteration #  1     ecut=    30.00 Ry     beta= 0.50
     Davidson diagonalization with overlap
     ethr =  1.00E-02,  avg # of iterations =  2.0

     Threshold (ethr) on eigenvalues was too large:
     Diagonalizing with lowered threshold

     Davidson diagonalization with overlap
     ethr =  3.56E-04,  avg # of iterations =  6.0

     total cpu time spent up to now is        4.5 secs

     total energy              =    -501.37565093 Ry
     estimated scf accuracy    <       1.11368019 Ry

     iteration #  2     ecut=    30.00 Ry     beta= 0.50
     Davidson diagonalization with overlap
     ethr =  4.35E-04,  avg # of iterations =  6.0

     total cpu time spent up to now is        4.6 secs

     total energy              =    -501.25711523 Ry
     estimated scf accuracy    <       1.40436513 Ry

     iteration #  3     ecut=    30.00 Ry     beta= 0.50
     Davidson diagonalization with overlap
     ethr =  4.35E-04,  avg # of iterations =  6.0

     total cpu time spent up to now is        4.7 secs

     total energy              =    -501.38737952 Ry
     estimated scf accuracy    <       1.60413951 Ry

     iteration #  4     ecut=    30.00 Ry     beta= 0.50
     Davidson diagonalization with overlap
     ethr =  4.35E-04,  avg # of iterations =  3.0

     total cpu time spent up to now is        4.8 secs

     total energy              =    -501.52089645 Ry
     estimated scf accuracy    <       0.17702601 Ry

     iteration #  5     ecut=    30.00 Ry     beta= 0.50
     Davidson diagonalization with overlap
     ethr =  6.92E-05,  avg # of iterations =  7.0

     total cpu time spent up to now is        4.9 secs

     total energy              =    -501.54921296 Ry
     estimated scf accuracy    <       0.09665470 Ry

     iteration #  6     ecut=    30.00 Ry     beta= 0.50
     Davidson diagonalization with overlap
     ethr =  3.78E-05,  avg # of iterations =  9.0

     total cpu time spent up to now is        5.0 secs

     total energy              =    -501.55223346 Ry
     estimated scf accuracy    <       0.09930380 Ry

     iteration #  7     ecut=    30.00 Ry     beta= 0.50
     Davidson diagonalization with overlap
     ethr =  3.78E-05,  avg # of iterations =  7.0

     total cpu time spent up to now is        5.1 secs

     total energy              =    -501.55617439 Ry
     estimated scf accuracy    <       0.01476771 Ry

     iteration #  8     ecut=    30.00 Ry     beta= 0.50
     Davidson diagonalization with overlap
     ethr =  5.77E-06,  avg # of iterations = 13.0

     total cpu time spent up to now is        5.3 secs

     total energy              =    -501.56020735 Ry
     estimated scf accuracy    <       0.01663895 Ry

     iteration #  9     ecut=    30.00 Ry     beta= 0.50
     Davidson diagonalization with overlap
     ethr =  5.77E-06,  avg # of iterations =  3.0

     total cpu time spent up to now is        5.4 secs

     total energy              =    -501.55982493 Ry
     estimated scf accuracy    <       0.01099121 Ry

     iteration # 10     ecut=    30.00 Ry     beta= 0.50
     Davidson diagonalization with overlap
     ethr =  4.29E-06,  avg # of iterations =  6.0

     total cpu time spent up to now is        5.5 secs

     total energy              =    -501.55988193 Ry
     estimated scf accuracy    <       0.00309720 Ry

     iteration # 11     ecut=    30.00 Ry     beta= 0.50
     Davidson diagonalization with overlap
     ethr =  1.21E-06,  avg # of iterations =  9.0

     total cpu time spent up to now is        5.6 secs

     total energy              =    -501.56048222 Ry
     estimated scf accuracy    <       0.00131211 Ry

     iteration # 12     ecut=    30.00 Ry     beta= 0.50
     Davidson diagonalization with overlap
     ethr =  5.13E-07,  avg # of iterations =  2.0

     total cpu time spent up to now is        5.6 secs

     total energy              =    -501.56039989 Ry
     estimated scf accuracy    <       0.00092502 Ry

     iteration # 13     ecut=    30.00 Ry     beta= 0.50
     Davidson diagonalization with overlap
     ethr =  3.61E-07,  avg # of iterations =  8.0

     total cpu time spent up to now is        5.7 secs

     total energy              =    -501.56047911 Ry
     estimated scf accuracy    <       0.00006300 Ry

     iteration # 14     ecut=    30.00 Ry     beta= 0.50
     Davidson diagonalization with overlap
     ethr =  2.46E-08,  avg # of iterations = 13.0

     total cpu time spent up to now is        5.9 secs

     total energy              =    -501.56050041 Ry
     estimated scf accuracy    <       0.00007865 Ry

     iteration # 15     ecut=    30.00 Ry     beta= 0.50
     Davidson diagonalization with overlap
     ethr =  2.46E-08,  avg # of iterations =  2.0

     total cpu time spent up to now is        6.0 secs

     total energy              =    -501.56049597 Ry
     estimated scf accuracy    <       0.00003604 Ry

     iteration # 16     ecut=    30.00 Ry     beta= 0.50
     Davidson diagonalization with overlap
     ethr =  1.41E-08,  avg # of iterations = 10.0

     total cpu time spent up to now is        6.1 secs

     total energy              =    -501.56050263 Ry
     estimated scf accuracy    <       0.00000923 Ry

     iteration # 17     ecut=    30.00 Ry     beta= 0.50
     Davidson diagonalization with overlap
     ethr =  3.60E-09,  avg # of iterations =  5.0

     total cpu time spent up to now is        6.2 secs

     total energy              =    -501.56050227 Ry
     estimated scf accuracy    <       0.00000951 Ry

     iteration # 18     ecut=    30.00 Ry     beta= 0.50
     Davidson diagonalization with overlap
     ethr =  3.60E-09,  avg # of iterations =  7.0

     total cpu time spent up to now is        6.3 secs

     total energy              =    -501.56050205 Ry
     estimated scf accuracy    <       0.00000462 Ry

     iteration # 19     ecut=    30.00 Ry     beta= 0.50
     Davidson diagonalization with overlap
     ethr =  1.80E-09,  avg # of iterations =  8.0

     total cpu time spent up to now is        6.4 secs

     End of self-consistent calculation

          k = 0.0000 0.0000 0.0000 ( 11372 PWs)   bands (ev):

    -5.3855  -4.4540  -4.3286  -4.2887  -4.2043  -4.0946  -4.0308  -3.4231
    -3.3456  -3.1952  -3.1535  -3.0939  -3.0908  -3.0425  -2.9848  -2.8900
    -2.8294  -2.7520  -2.7027  -2.1472  -2.0377  -1.8778  -1.8421  -1.7244
    -1.6360  -1.5691  -1.3501  -0.9933  -0.9153  -0.8071  -0.6333  -0.5858
    -0.3920  -0.2246  -0.1584  -0.0338  -0.0067   0.1616   0.2104   0.3083
     0.3440   0.4477   0.4783   0.5563   0.6347   0.7182   0.7393   0.7728
     0.9101   0.9496   1.1204   1.1601   1.3032   1.3577   1.5043   1.5498
     1.6235   1.7786   1.8569   1.9956   2.1516   2.2442   2.3166   2.4192
     2.4621   2.6234   2.6349   2.6999   2.7385   2.8623   2.8889   2.9359
     3.0824   3.1125   3.1930   3.1984   3.3737   3.4024   3.5614   3.6788
     3.8249   4.0401   4.1784   4.2275   4.3907   4.4434   4.5491   4.6265
     4.7062   4.7698   4.8123   4.8431   4.9780   4.9835   5.0415   5.1679
     5.2046   5.2838   5.3303   5.4285   5.4391   5.5430   5.5729   5.6553
     5.6783   5.7387   5.8042   5.8433   5.8765   5.9617   5.9975   6.0621
     6.0983   6.1154   6.1462   6.2474   6.2677   6.3283   6.3729   6.5263
     6.5540   6.6300   6.7018   6.7901   6.8496   6.9032   6.9463   6.9979

     highest occupied level (ev):     6.9979

!    total energy              =    -501.56050237 Ry
     estimated scf accuracy    <       0.00000031 Ry

     The total energy is the sum of the following terms:
     one-electron contribution =     185.79105941 Ry
     hartree contribution      =      24.65392440 Ry
     xc contribution           =    -150.95928987 Ry
     ewald contribution        =    -561.04619630 Ry

     convergence has been achieved in  19 iterations

     Forces acting on atoms (cartesian axes, Ry/au):

     atom    1 type  1   force =    -0.02171841   -0.01438090    0.04202971
     atom    2 type  1   force =    -0.01218317    0.00918831    0.02097994
     atom    3 type  1   force =     0.01308867   -0.00209829    0.03283038
     atom    4 type  1   force =     0.00476409    0.00509414   -0.01344230
     atom    5 type  1   force =     0.01834397    0.00020367    0.00955016
     atom    6 type  1   force =    -0.03532060   -0.03382207    0.06451455
     atom    7 type  1   force =    -0.01416989   -0.01334673    0.00487862
     atom    8 type  1   force =    -0.00380638   -0.01822378    0.05244798
     atom    9 type  1   force =     0.02630309   -0.01368234    0.04935290
     atom   10 type  1   force =    -0.00742493   -0.00548034   -0.03095762
     atom   11 type  1   force =     0.04001491    0.01990306   -0.00119148
     atom   12 type  1   force =    -0.03807721    0.03567064   -0.01894295
     atom   13 type  1   force =     0.00560409    0.00079588    0.00019462
     atom   14 type  1   force =    -0.05744444    0.05003264    0.03027270
     atom   15 type  1   force =    -0.00935419    0.04923977   -0.01215595
     atom   16 type  1   force =     0.04259903    0.01298004    0.04265747
     atom   17 type  1   force =    -0.02330589    0.01634390    0.01698532
     atom   18 type  1   force =     0.03102042   -0.00745439   -0.01214921
     atom   19 type  1   force =    -0.03942485    0.02584238   -0.05081882
     atom   20 type  1   force =     0.00419069   -0.00586158    0.01814494
     atom   21 type  1   force =    -0.00258219   -0.01437188   -0.00588874
     atom   22 type  1   force =     0.04095919    0.06147397    0.00051957
     atom   23 type  1   force =     0.01020671   -0.03669003   -0.02773146
     atom   24 type  1   force =    -0.01019470   -0.01530198    0.01307103
     atom   25 type  1   force =     0.00890880   -0.06519905   -0.00123706
     atom   26 type  1   force =     0.00860299   -0.02260785   -0.01135569
     atom   27 type  1   force =    -0.00523168   -0.00967622   -0.02055098
     atom   28 type  1   force =     0.04777968    0.00736266    0.02081091
     atom   29 type  1   force =     0.01768674    0.03320648   -0.01019076
     atom   30 type  1   force =     0.03877612    0.01331846    0.01627889
     atom   31 type  1   force =    -0.01436051   -0.03221493    0.00611156
     atom   32 type  1   force =    -0.01601205    0.00704176    0.02437905
     atom   33 type  1   force =    -0.01545720    0.00240625    0.00777200
     atom   34 type  1   force =    -0.01404352   -0.04304958   -0.02690168
     atom   35 type  1   force =     0.00079728    0.01424766   -0.02211836
     atom   36 type  1   force =    -0.01317581    0.00001362   -0.02294098
     atom   37 type  1   force =     0.01191695    0.00449521    0.01425857
     atom   38 type  1   force =     0.02837283   -0.01622460   -0.03619933
     atom   39 type  1   force =    -0.04560888    0.00527956   -0.02215366
     atom   40 type  1   force =     0.02889060   -0.00099439   -0.00336662
     atom   41 type  1   force =    -0.05946918    0.01421782    0.02144590
     atom   42 type  1   force =    -0.03287392    0.01899272    0.02931302
     atom   43 type  1   force =     0.00107252    0.01645156   -0.02924803
     atom   44 type  1   force =    -0.01386957   -0.01352440    0.00135186
     atom   45 type  1   force =     0.02740660    0.01827360    0.03375658
     atom   46 type  1   force =    -0.00272342   -0.02000239   -0.02507380
     atom   47 type  1   force =    -0.02564256   -0.01176158    0.01482126
     atom   48 type  1   force =     0.00161762   -0.03577163   -0.01550246
     atom   49 type  1   force =     0.00499424   -0.00543011   -0.00111961
     atom   50 type  1   force =    -0.01744045    0.00227974   -0.02062639
     atom   51 type  1   force =     0.01251224    0.00431880   -0.01367776
     atom   52 type  1   force =    -0.01282634   -0.02943989   -0.05722188
     atom   53 type  1   force =    -0.02058529    0.00156859    0.01723795
     atom   54 type  1   force =     0.07554657    0.05210813   -0.03810606
     atom   55 type  1   force =     0.05377918   -0.01302756   -0.02390786
     atom   56 type  1   force =     0.00345195   -0.01961295   -0.00396274
     atom   57 type  1   force =     0.01167267   -0.01312888   -0.04883606
     atom   58 type  1   force =    -0.03567461   -0.02358390    0.03959967
     atom   59 type  1   force =     0.00903789   -0.04373603   -0.00053027
     atom   60 type  1   force =    -0.01111190    0.00387339    0.00171050
     atom   61 type  1   force =     0.00156739    0.03403915   -0.00560320
     atom   62 type  1   force =     0.00682634    0.03879825   -0.01121953
     atom   63 type  1   force =    -0.00940081    0.01694019   -0.01242638
     atom   64 type  1   force =     0.00220249    0.00369825    0.01007805

     Total force =     0.352048     Total SCF correction =     0.001022


     Computing stress (Cartesian axis) and pressure

          total   stress  (Ry/bohr**3)                   (kbar)     P=      -32.26
  -0.00022896   0.00000377  -0.00002213          -33.68        0.56       -3.26
   0.00000377  -0.00028404  -0.00000900            0.56      -41.78       -1.32
  -0.00002213  -0.00000900  -0.00014494           -3.26       -1.32      -21.32

 
     init_run     :      0.96s CPU      4.30s WALL (       1 calls)
     electrons    :      1.85s CPU      2.01s WALL (       1 calls)
     forces       :      0.03s CPU      0.03s WALL (       1 calls)
     stress       :      0.12s CPU      0.12s WALL (       1 calls)

     Called by init_run:
     wfcinit      :      0.45s CPU      3.64s WALL (       1 calls)
                                        3.64s GPU  (       1 calls)
     potinit      :      0.04s CPU      0.12s WALL (       1 calls)
     hinit0       :      0.45s CPU      0.48s WALL (       1 calls)

     Called by electrons:
     c_bands      :      1.27s CPU      1.35s WALL (      20 calls)
     sum_band     :      0.29s CPU      0.34s WALL (      20 calls)
     v_of_rho     :      0.13s CPU      0.22s WALL (      20 calls)
     mix_rho      :      0.14s CPU      0.16s WALL (      20 calls)

     Called by c_bands:
     init_us_2    :      0.05s CPU      0.05s WALL (      41 calls)
     init_us_2:gp :      0.05s CPU      0.05s WALL (      41 calls)
     regterg      :      1.12s CPU      1.19s WALL (      20 calls)

     Called by *egterg:
     rdiaghg      :      0.55s CPU      1.20s WALL (     151 calls)
                                        1.18s GPU  (     151 calls)
     h_psi        :      0.83s CPU      3.42s WALL (     153 calls)
                                        3.42s GPU  (     153 calls)
     g_psi        :      0.00s CPU      0.00s WALL (     132 calls)
                                        0.00s GPU  (     132 calls)

     Called by h_psi:
     h_psi:calbec :      0.42s CPU      2.95s WALL (     153 calls)
                                        2.95s GPU  (     153 calls)
     vloc_psi     :      0.33s CPU      0.39s WALL (     153 calls)
                                        0.39s GPU  (     153 calls)
     add_vuspsi   :      0.06s CPU      0.08s WALL (     153 calls)
                                        0.08s GPU  (     153 calls)

     General routines
     calbec       :      0.43s CPU      2.95s WALL (     158 calls)
     fft          :      0.55s CPU      0.66s WALL (     167 calls)
                                        0.11s GPU  (     106 calls)
     ffts         :      0.03s CPU      0.04s WALL (      20 calls)
     fftw         :      0.39s CPU      0.52s WALL (    1880 calls)
                                        0.46s GPU  (    1880 calls)
 
     Parallel routines
 
     PWSCF        :      3.00s CPU      6.54s WALL

 
   This run was terminated on:  15:21: 2   9May2023            

=------------------------------------------------------------------------------=
   JOB DONE.
=------------------------------------------------------------------------------=
