An instance of this daemon is already running
An instance of this daemon is already running

     Program PWSCF v.7.1 starts on  9May2023 at 15: 6:23 

     This program is part of the open-source Quantum ESPRESSO suite
     for quantum simulation of materials; please cite
         "P. Giannozzi et al., J. Phys.:Condens. Matter 21 395502 (2009);
         "P. Giannozzi et al., J. Phys.:Condens. Matter 29 465901 (2017);
         "P. Giannozzi et al., J. Chem. Phys. 152 154105 (2020);
          URL http://www.quantum-espresso.org", 
     in publications or presentations arising from this work. More details at
     http://www.quantum-espresso.org/quote

     Parallel version (MPI & OpenMP), running on       4 processor cores
     Number of MPI processes:                 4
     Threads/MPI process:                     1

     MPI processes distributed on     1 nodes
     77386 MiB available memory on the printing compute node when the environment starts
 
     Reading input from pw-si-10.in
Warning: card &CELL ignored
Warning: card / ignored

     Current dimensions of program PWSCF are:
     Max number of different atomic species (ntypx) = 10
     Max number of k-points (npk) =  40000
     Max angular momentum in pseudopotentials (lmaxx) =  4

     IMPORTANT: XC functional enforced from input :
     Exchange-correlation= PBE
                           (   1   4   3   4   0   0   0)
     Any further DFT definition will be discarded
     Please, verify this is what you really want


     gamma-point specific algorithms are used
 
     K-points division:     npool     =       2
     R & G space division:  proc/nbgrp/npool/nimage =       2
     Subspace diagonalization in iterative solution of the eigenvalue problem:
     a serial algorithm will be used

     Message from routine divide_et_impera:
     suboptimal parallelization: some nodes have no k-points
 
     Parallelization info
     --------------------
     sticks:   dense  smooth     PW     G-vecs:    dense   smooth      PW
     Min        1954    1954    520                92054    92054   12584
     Max        1955    1955    521                92061    92061   12589
     Sum        3909    3909   1041               184115   184115   25173
 
     Using Slab Decomposition
 


     bravais-lattice index     =            0
     lattice parameter (alat)  =      20.2412  a.u.
     unit-cell volume          =    8292.9104 (a.u.)^3
     number of atoms/cell      =           64
     number of atomic types    =            1
     number of electrons       =       256.00
     number of Kohn-Sham states=          128
     kinetic-energy cutoff     =      30.0000  Ry
     charge density cutoff     =     120.0000  Ry
     scf convergence threshold =      1.0E-06
     mixing beta               =       0.5000
     number of iterations used =            8  plain     mixing
     Exchange-correlation= PBE
                           (   1   4   3   4   0   0   0)

     GPU acceleration is ACTIVE.
     GPU-aware MPI enabled

     Message from routine print_cuda_info:
     High GPU oversubscription detected. Are you sure this is what you want?

     celldm(1)=  20.241172  celldm(2)=   0.000000  celldm(3)=   0.000000
     celldm(4)=   0.000000  celldm(5)=   0.000000  celldm(6)=   0.000000

     crystal axes: (cart. coord. in units of alat)
               a(1) = (   1.000000   0.000000   0.000000 )  
               a(2) = (   0.000000   1.000000   0.000000 )  
               a(3) = (   0.000000   0.000000   1.000000 )  

     reciprocal axes: (cart. coord. in units 2 pi/alat)
               b(1) = (  1.000000  0.000000  0.000000 )  
               b(2) = (  0.000000  1.000000  0.000000 )  
               b(3) = (  0.000000  0.000000  1.000000 )  


     PseudoPot. # 1 for Si read from file:
     /home/ppiaggi/pseudos/Si_ONCV_PBE_sr.upf
     MD5 check sum: 8553c464762ac42b85b1eed164b4d029
     Pseudo is Norm-conserving, Zval =  4.0
     Generated using ONCVPSP code by D. R. Hamann
     Using radial grid of 1510 points,  4 beta functions with: 
                l(1) =   0
                l(2) =   0
                l(3) =   1
                l(4) =   1

     atomic species   valence    mass     pseudopotential
        Si             4.00    28.08500     Si( 1.00)

     No symmetry found



   Cartesian axes

     site n.     atom                  positions (alat units)
         1           Si  tau(   1) = (   0.7120420   0.6842510   0.9834370  )
         2           Si  tau(   2) = (   0.3353300   0.9736140   0.2150700  )
         3           Si  tau(   3) = (   0.4782080   0.5313870   0.2946870  )
         4           Si  tau(   4) = (   0.6469130   0.2650090   0.4753860  )
         5           Si  tau(   5) = (   0.2404890   0.6309900   0.7642960  )
         6           Si  tau(   6) = (   0.1817330   0.3133060   0.7588030  )
         7           Si  tau(   7) = (   0.7803320   0.1227430   0.8196610  )
         8           Si  tau(   8) = (   0.2883130   0.4065670   0.3176620  )
         9           Si  tau(   9) = (   0.8851660   0.4630780   0.7278490  )
        10           Si  tau(  10) = (   0.4002890   0.3445930   0.0925837  )
        11           Si  tau(  11) = (   0.8840280   0.8845380   0.0060079  )
        12           Si  tau(  12) = (   0.7574050   0.6812080   0.5469960  )
        13           Si  tau(  13) = (   0.5036170   0.0881253   0.1177040  )
        14           Si  tau(  14) = (   0.0306003   0.4571480   0.5294970  )
        15           Si  tau(  15) = (   0.3884130   0.3423720   0.8454930  )
        16           Si  tau(  16) = (   0.6635630   0.9380750   0.1539150  )
        17           Si  tau(  17) = (   0.2316650   0.7642680   0.3365680  )
        18           Si  tau(  18) = (   0.1340220   0.9159550   0.8422260  )
        19           Si  tau(  19) = (   0.7939560   0.6752270   0.7742270  )
        20           Si  tau(  20) = (   0.8301020   0.9086290   0.4710280  )
        21           Si  tau(  21) = (   0.9364590   0.8507630   0.7717900  )
        22           Si  tau(  22) = (   0.9097300   0.0424047   0.6506240  )
        23           Si  tau(  23) = (   0.2496650   0.4859860   0.5656220  )
        24           Si  tau(  24) = (   0.0459005   0.4792640   0.2703800  )
        25           Si  tau(  25) = (   0.0555187   0.4145920   0.8922370  )
        26           Si  tau(  26) = (   0.4599100   0.5384880   0.7675080  )
        27           Si  tau(  27) = (   0.4794940   0.0362120   0.9269730  )
        28           Si  tau(  28) = (   0.0303952   0.9098730   0.3155680  )
        29           Si  tau(  29) = (   0.6391360   0.3835820   0.2904460  )
        30           Si  tau(  30) = (   0.5567000   0.7933440   0.4994490  )
        31           Si  tau(  31) = (   0.1610340   0.6490720   0.1293170  )
        32           Si  tau(  32) = (   0.8405030   0.1274100   0.0257841  )
        33           Si  tau(  33) = (   0.3805040   0.6550980   0.4630970  )
        34           Si  tau(  34) = (   0.7822130   0.5844170   0.3261040  )
        35           Si  tau(  35) = (   0.6073250   0.4803680   0.9670300  )
        36           Si  tau(  36) = (   0.8720580   0.4009360   0.1077260  )
        37           Si  tau(  37) = (   0.8915150   0.6180510   0.0983407  )
        38           Si  tau(  38) = (   0.6221780   0.7373020   0.2671290  )
        39           Si  tau(  39) = (   0.6612250   0.9345790   0.8824510  )
        40           Si  tau(  40) = (   0.4621920   0.1529600   0.5181680  )
        41           Si  tau(  41) = (   0.8563420   0.2502570   0.5755540  )
        42           Si  tau(  42) = (   0.0941422   0.7610420   0.6126090  )
        43           Si  tau(  43) = (   0.4367920   0.9462040   0.4238070  )
        44           Si  tau(  44) = (   0.6565800   0.3017080   0.1031610  )
        45           Si  tau(  45) = (   0.2576600   0.1210690   0.9346820  )
        46           Si  tau(  46) = (   0.6795460   0.3403300   0.7544480  )
        47           Si  tau(  47) = (   0.5305350   0.1764470   0.7481160  )
        48           Si  tau(  48) = (   0.9743670   0.2853260   0.3704670  )
        49           Si  tau(  49) = (   0.6743960   0.0316894   0.3645490  )
        50           Si  tau(  50) = (   0.1237510   0.0871868   0.6744060  )
        51           Si  tau(  51) = (   0.8513440   0.1026760   0.2671550  )
        52           Si  tau(  52) = (   0.2225250   0.9387800   0.4983700  )
        53           Si  tau(  53) = (   0.9887790   0.6743370   0.4218780  )
        54           Si  tau(  54) = (   0.0296493   0.2630430   0.0506065  )
        55           Si  tau(  55) = (   0.0839371   0.8837080   0.1037330  )
        56           Si  tau(  56) = (   0.2463220   0.5235400   0.9843050  )
        57           Si  tau(  57) = (   0.5412460   0.7989610   0.7326770  )
        58           Si  tau(  58) = (   0.3286080   0.8076570   0.0576455  )
        59           Si  tau(  59) = (   0.3365580   0.8119730   0.8332570  )
        60           Si  tau(  60) = (   0.2120020   0.1774610   0.1578260  )
        61           Si  tau(  61) = (   0.6057940   0.4953270   0.5829690  )
        62           Si  tau(  62) = (   0.2795130   0.2425270   0.5044110  )
        63           Si  tau(  63) = (   0.4678830   0.6335870   0.0786031  )
        64           Si  tau(  64) = (   0.1441160   0.1382980   0.3738180  )

     number of k points=     1
                       cart. coord. in units 2pi/alat
        k(    1) = (   0.0000000   0.0000000   0.0000000), wk =   2.0000000

     Dense  grid:    92058 G-vectors     FFT dimensions: (  72,  72,  72)

     Estimated max dynamical RAM per process >     135.33 MB

     Estimated total dynamical RAM >     518.85 MB

     Initial potential from superposition of free atoms

     starting charge     255.9608, renormalised to     256.0000
     Starting wfcs are  256 randomized atomic wfcs

     total cpu time spent up to now is        4.1 secs

     Self-consistent Calculation

     iteration #  1     ecut=    30.00 Ry     beta= 0.50
     Davidson diagonalization with overlap
     ethr =  1.00E-02,  avg # of iterations =  2.0

     Threshold (ethr) on eigenvalues was too large:
     Diagonalizing with lowered threshold

     Davidson diagonalization with overlap
     ethr =  4.24E-04,  avg # of iterations =  6.0

     total cpu time spent up to now is        4.2 secs

     total energy              =    -501.32332323 Ry
     estimated scf accuracy    <       1.29149673 Ry

     iteration #  2     ecut=    30.00 Ry     beta= 0.50
     Davidson diagonalization with overlap
     ethr =  5.04E-04,  avg # of iterations =  9.0

     total cpu time spent up to now is        4.4 secs

     total energy              =    -501.02422918 Ry
     estimated scf accuracy    <       3.11796012 Ry

     iteration #  3     ecut=    30.00 Ry     beta= 0.50
     Davidson diagonalization with overlap
     ethr =  5.04E-04,  avg # of iterations = 10.0

     total cpu time spent up to now is        4.5 secs

     total energy              =    -501.40724951 Ry
     estimated scf accuracy    <       1.59165515 Ry

     iteration #  4     ecut=    30.00 Ry     beta= 0.50
     Davidson diagonalization with overlap
     ethr =  5.04E-04,  avg # of iterations =  3.0

     total cpu time spent up to now is        4.5 secs

     total energy              =    -501.51172977 Ry
     estimated scf accuracy    <       0.28356415 Ry

     iteration #  5     ecut=    30.00 Ry     beta= 0.50
     Davidson diagonalization with overlap
     ethr =  1.11E-04,  avg # of iterations =  7.0

     total cpu time spent up to now is        4.7 secs

     total energy              =    -501.55014734 Ry
     estimated scf accuracy    <       0.10272499 Ry

     iteration #  6     ecut=    30.00 Ry     beta= 0.50
     Davidson diagonalization with overlap
     ethr =  4.01E-05,  avg # of iterations = 10.0

     total cpu time spent up to now is        4.8 secs

     total energy              =    -501.56034794 Ry
     estimated scf accuracy    <       0.10780450 Ry

     iteration #  7     ecut=    30.00 Ry     beta= 0.50
     Davidson diagonalization with overlap
     ethr =  4.01E-05,  avg # of iterations =  6.0

     total cpu time spent up to now is        4.9 secs

     total energy              =    -501.56427069 Ry
     estimated scf accuracy    <       0.02065345 Ry

     iteration #  8     ecut=    30.00 Ry     beta= 0.50
     Davidson diagonalization with overlap
     ethr =  8.07E-06,  avg # of iterations =  8.0

     total cpu time spent up to now is        5.0 secs

     total energy              =    -501.56834997 Ry
     estimated scf accuracy    <       0.01165622 Ry

     iteration #  9     ecut=    30.00 Ry     beta= 0.50
     Davidson diagonalization with overlap
     ethr =  4.55E-06,  avg # of iterations =  3.0

     total cpu time spent up to now is        5.1 secs

     total energy              =    -501.56849024 Ry
     estimated scf accuracy    <       0.00766877 Ry

     iteration # 10     ecut=    30.00 Ry     beta= 0.50
     Davidson diagonalization with overlap
     ethr =  3.00E-06,  avg # of iterations =  3.0

     total cpu time spent up to now is        5.1 secs

     total energy              =    -501.56840524 Ry
     estimated scf accuracy    <       0.00284074 Ry

     iteration # 11     ecut=    30.00 Ry     beta= 0.50
     Davidson diagonalization with overlap
     ethr =  1.11E-06,  avg # of iterations = 10.0

     total cpu time spent up to now is        5.3 secs

     total energy              =    -501.56900481 Ry
     estimated scf accuracy    <       0.00182461 Ry

     iteration # 12     ecut=    30.00 Ry     beta= 0.50
     Davidson diagonalization with overlap
     ethr =  7.13E-07,  avg # of iterations =  2.0

     total cpu time spent up to now is        5.3 secs

     total energy              =    -501.56884752 Ry
     estimated scf accuracy    <       0.00138352 Ry

     iteration # 13     ecut=    30.00 Ry     beta= 0.50
     Davidson diagonalization with overlap
     ethr =  5.40E-07,  avg # of iterations =  8.0

     total cpu time spent up to now is        5.4 secs

     total energy              =    -501.56893812 Ry
     estimated scf accuracy    <       0.00012724 Ry

     iteration # 14     ecut=    30.00 Ry     beta= 0.50
     Davidson diagonalization with overlap
     ethr =  4.97E-08,  avg # of iterations = 15.0

     total cpu time spent up to now is        5.6 secs

     total energy              =    -501.56899715 Ry
     estimated scf accuracy    <       0.00035531 Ry

     iteration # 15     ecut=    30.00 Ry     beta= 0.50
     Davidson diagonalization with overlap
     ethr =  4.97E-08,  avg # of iterations =  2.0

     total cpu time spent up to now is        5.7 secs

     total energy              =    -501.56897895 Ry
     estimated scf accuracy    <       0.00022541 Ry

     iteration # 16     ecut=    30.00 Ry     beta= 0.50
     Davidson diagonalization with overlap
     ethr =  4.97E-08,  avg # of iterations =  6.0

     total cpu time spent up to now is        5.7 secs

     total energy              =    -501.56898753 Ry
     estimated scf accuracy    <       0.00004233 Ry

     iteration # 17     ecut=    30.00 Ry     beta= 0.50
     Davidson diagonalization with overlap
     ethr =  1.65E-08,  avg # of iterations = 12.0

     total cpu time spent up to now is        5.9 secs

     total energy              =    -501.56899370 Ry
     estimated scf accuracy    <       0.00000959 Ry

     iteration # 18     ecut=    30.00 Ry     beta= 0.50
     Davidson diagonalization with overlap
     ethr =  3.74E-09,  avg # of iterations =  7.0

     total cpu time spent up to now is        6.0 secs

     total energy              =    -501.56899482 Ry
     estimated scf accuracy    <       0.00000780 Ry

     iteration # 19     ecut=    30.00 Ry     beta= 0.50
     Davidson diagonalization with overlap
     ethr =  3.05E-09,  avg # of iterations =  2.0

     total cpu time spent up to now is        6.0 secs

     total energy              =    -501.56899442 Ry
     estimated scf accuracy    <       0.00000647 Ry

     iteration # 20     ecut=    30.00 Ry     beta= 0.50
     Davidson diagonalization with overlap
     ethr =  2.53E-09,  avg # of iterations =  2.0

     total cpu time spent up to now is        6.1 secs

     total energy              =    -501.56899435 Ry
     estimated scf accuracy    <       0.00000308 Ry

     iteration # 21     ecut=    30.00 Ry     beta= 0.50
     Davidson diagonalization with overlap
     ethr =  1.20E-09,  avg # of iterations =  8.0

     total cpu time spent up to now is        6.2 secs

     End of self-consistent calculation

          k = 0.0000 0.0000 0.0000 ( 11492 PWs)   bands (ev):

    -5.4944  -4.5669  -4.4814  -4.4161  -4.3259  -4.2559  -4.2183  -3.6512
    -3.5199  -3.5072  -3.4396  -3.2725  -3.2503  -3.1360  -3.0717  -2.9468
    -2.8675  -2.7963  -2.5227  -2.4428  -2.2541  -2.1586  -2.0083  -2.0024
    -1.8431  -1.6720  -1.4439  -1.2348  -1.2073  -1.0023  -0.7236  -0.6101
    -0.5505  -0.4458  -0.3329  -0.2424  -0.1896  -0.0299   0.0300   0.1394
     0.2070   0.2155   0.2723   0.3608   0.4307   0.4873   0.6206   0.6996
     0.7349   0.9571   0.9798   1.0652   1.1871   1.2336   1.2771   1.4152
     1.5400   1.6317   1.8458   1.9159   2.0609   2.1863   2.2341   2.3297
     2.3868   2.4043   2.4959   2.5529   2.6611   2.6787   2.7269   2.8961
     2.9540   3.0455   3.1146   3.1397   3.2370   3.3410   3.4050   3.4760
     3.6245   3.8158   3.9336   3.9870   4.0687   4.2366   4.3316   4.4025
     4.5115   4.5772   4.6324   4.6824   4.7810   4.8365   4.9012   4.9191
     5.0452   5.0710   5.1049   5.1698   5.2346   5.2696   5.3942   5.4065
     5.4516   5.4785   5.5747   5.6081   5.6381   5.7047   5.7671   5.8726
     5.9735   6.0994   6.1052   6.1843   6.2277   6.2323   6.3303   6.3435
     6.4217   6.4912   6.5264   6.6665   6.6818   6.7434   6.7613   6.8821

     highest occupied level (ev):     6.8821

!    total energy              =    -501.56899429 Ry
     estimated scf accuracy    <       0.00000039 Ry

     The total energy is the sum of the following terms:
     one-electron contribution =     178.34540933 Ry
     hartree contribution      =      26.92266292 Ry
     xc contribution           =    -151.01613880 Ry
     ewald contribution        =    -555.82092775 Ry

     convergence has been achieved in  21 iterations

     Forces acting on atoms (cartesian axes, Ry/au):

     atom    1 type  1   force =    -0.01603159    0.01416290   -0.01843024
     atom    2 type  1   force =    -0.01011784   -0.01975397    0.01208047
     atom    3 type  1   force =    -0.02114200    0.03670299   -0.01880492
     atom    4 type  1   force =     0.02083247   -0.00616212    0.00529610
     atom    5 type  1   force =     0.01176573   -0.03258157   -0.01267766
     atom    6 type  1   force =     0.03926071   -0.06411853   -0.05329026
     atom    7 type  1   force =    -0.03290996   -0.00589186   -0.02541879
     atom    8 type  1   force =    -0.02643369   -0.03331863    0.00853980
     atom    9 type  1   force =    -0.00504087    0.00560310   -0.00786180
     atom   10 type  1   force =    -0.02145888   -0.00457770   -0.01956701
     atom   11 type  1   force =    -0.04346326    0.03025488   -0.02504309
     atom   12 type  1   force =    -0.02368920    0.00880292   -0.00007491
     atom   13 type  1   force =     0.02304989    0.05353733    0.08906146
     atom   14 type  1   force =    -0.01178176    0.00982492    0.00982530
     atom   15 type  1   force =     0.00815605   -0.03354081    0.02691979
     atom   16 type  1   force =     0.03020937   -0.02448626    0.01244200
     atom   17 type  1   force =    -0.02919034   -0.01145118   -0.03386783
     atom   18 type  1   force =     0.04818462    0.08064002    0.00779018
     atom   19 type  1   force =     0.02166340   -0.02350077   -0.02392505
     atom   20 type  1   force =     0.02408136    0.00190631    0.00981695
     atom   21 type  1   force =     0.00446614   -0.01777369    0.00068255
     atom   22 type  1   force =    -0.01551947   -0.01380156   -0.01513866
     atom   23 type  1   force =    -0.00407833   -0.00751345    0.01921030
     atom   24 type  1   force =     0.03208843    0.02287437    0.00613875
     atom   25 type  1   force =    -0.02944011    0.02257692    0.02324298
     atom   26 type  1   force =     0.01898288    0.02948365   -0.01988003
     atom   27 type  1   force =    -0.06682652    0.01334893   -0.10918474
     atom   28 type  1   force =    -0.01732769    0.02388293    0.03621605
     atom   29 type  1   force =     0.03117795    0.04628967    0.06262884
     atom   30 type  1   force =     0.01498029   -0.05252714    0.03405848
     atom   31 type  1   force =    -0.03485063    0.04373247    0.06972825
     atom   32 type  1   force =     0.02943188   -0.00832043    0.03806774
     atom   33 type  1   force =     0.01276567   -0.03434943   -0.00748289
     atom   34 type  1   force =     0.00841844    0.00279515   -0.02755718
     atom   35 type  1   force =    -0.00754240   -0.00031076   -0.03369553
     atom   36 type  1   force =    -0.00776061    0.00173996    0.01701918
     atom   37 type  1   force =     0.01604303    0.00205244    0.03780215
     atom   38 type  1   force =    -0.01844796    0.01400997   -0.00231174
     atom   39 type  1   force =     0.03326413   -0.03585327   -0.00260690
     atom   40 type  1   force =     0.07322210   -0.04212109    0.03450989
     atom   41 type  1   force =    -0.01768121    0.02024795   -0.03028097
     atom   42 type  1   force =     0.00849763   -0.00027292    0.00757599
     atom   43 type  1   force =    -0.01741846    0.07915689   -0.02053423
     atom   44 type  1   force =     0.02745841   -0.03226011   -0.06440170
     atom   45 type  1   force =    -0.00904010   -0.01853809   -0.01038345
     atom   46 type  1   force =     0.02799860    0.03710437    0.00155388
     atom   47 type  1   force =    -0.02829801   -0.00295769    0.01010011
     atom   48 type  1   force =    -0.01483348   -0.02775469    0.02982289
     atom   49 type  1   force =    -0.02555780    0.00864027    0.00811976
     atom   50 type  1   force =     0.03292101   -0.00894009    0.02068286
     atom   51 type  1   force =     0.04072380    0.00302639   -0.02115347
     atom   52 type  1   force =    -0.05260769    0.00873654    0.01600070
     atom   53 type  1   force =     0.01952652   -0.02082930    0.00281759
     atom   54 type  1   force =    -0.01949674   -0.02669915   -0.01071678
     atom   55 type  1   force =     0.02479004   -0.00070803   -0.02575750
     atom   56 type  1   force =     0.00194540   -0.02724870   -0.06631200
     atom   57 type  1   force =    -0.01536457   -0.01280458   -0.00676213
     atom   58 type  1   force =    -0.00361118   -0.00809141    0.00226831
     atom   59 type  1   force =    -0.00175024    0.01379722    0.00626615
     atom   60 type  1   force =     0.00929900   -0.00642338    0.00230689
     atom   61 type  1   force =    -0.00278206   -0.01198910    0.03081234
     atom   62 type  1   force =    -0.04274524    0.08595435    0.00896001
     atom   63 type  1   force =     0.01503597   -0.02514956    0.03873562
     atom   64 type  1   force =    -0.01600105   -0.01826480   -0.03397886

     Total force =     0.407947     Total SCF correction =     0.001229


     Computing stress (Cartesian axis) and pressure

          total   stress  (Ry/bohr**3)                   (kbar)     P=      -28.70
  -0.00010898  -0.00006879  -0.00000174          -16.03      -10.12       -0.26
  -0.00006879  -0.00022820   0.00004064          -10.12      -33.57        5.98
  -0.00000174   0.00004064  -0.00024813           -0.26        5.98      -36.50

 
     init_run     :      0.92s CPU      4.00s WALL (       1 calls)
     electrons    :      2.01s CPU      2.15s WALL (       1 calls)
     forces       :      0.03s CPU      0.03s WALL (       1 calls)
     stress       :      0.12s CPU      0.12s WALL (       1 calls)

     Called by init_run:
     wfcinit      :      0.42s CPU      3.36s WALL (       1 calls)
                                        3.36s GPU  (       1 calls)
     potinit      :      0.04s CPU      0.12s WALL (       1 calls)
     hinit0       :      0.45s CPU      0.47s WALL (       1 calls)

     Called by electrons:
     c_bands      :      1.38s CPU      1.45s WALL (      22 calls)
     sum_band     :      0.32s CPU      0.36s WALL (      22 calls)
     v_of_rho     :      0.14s CPU      0.22s WALL (      22 calls)
     mix_rho      :      0.15s CPU      0.17s WALL (      22 calls)

     Called by c_bands:
     init_us_2    :      0.05s CPU      0.06s WALL (      45 calls)
     init_us_2:gp :      0.05s CPU      0.06s WALL (      45 calls)
     regterg      :      1.22s CPU      1.28s WALL (      22 calls)

     Called by *egterg:
     rdiaghg      :      0.58s CPU      1.19s WALL (     162 calls)
                                        1.16s GPU  (     162 calls)
     h_psi        :      0.85s CPU      3.24s WALL (     164 calls)
                                        3.23s GPU  (     164 calls)
     g_psi        :      0.00s CPU      0.00s WALL (     141 calls)
                                        0.00s GPU  (     141 calls)

     Called by h_psi:
     h_psi:calbec :      0.41s CPU      2.72s WALL (     164 calls)
                                        2.72s GPU  (     164 calls)
     vloc_psi     :      0.36s CPU      0.42s WALL (     164 calls)
                                        0.42s GPU  (     164 calls)
     add_vuspsi   :      0.06s CPU      0.08s WALL (     164 calls)
                                        0.08s GPU  (     164 calls)

     General routines
     calbec       :      0.41s CPU      2.72s WALL (     169 calls)
     fft          :      0.55s CPU      0.66s WALL (     183 calls)
                                        0.11s GPU  (     116 calls)
     ffts         :      0.03s CPU      0.04s WALL (      22 calls)
     fftw         :      0.43s CPU      0.57s WALL (    2064 calls)
                                        0.50s GPU  (    2064 calls)
 
     Parallel routines
 
     PWSCF        :      3.12s CPU      6.38s WALL

 
   This run was terminated on:  15: 6:30   9May2023            

=------------------------------------------------------------------------------=
   JOB DONE.
=------------------------------------------------------------------------------=
