An instance of this daemon is already running

     Program PWSCF v.7.1 starts on  9May2023 at 15: 9:49 

     This program is part of the open-source Quantum ESPRESSO suite
     for quantum simulation of materials; please cite
         "P. Giannozzi et al., J. Phys.:Condens. Matter 21 395502 (2009);
         "P. Giannozzi et al., J. Phys.:Condens. Matter 29 465901 (2017);
         "P. Giannozzi et al., J. Chem. Phys. 152 154105 (2020);
          URL http://www.quantum-espresso.org", 
     in publications or presentations arising from this work. More details at
     http://www.quantum-espresso.org/quote

     Parallel version (MPI & OpenMP), running on       4 processor cores
     Number of MPI processes:                 4
     Threads/MPI process:                     1

     MPI processes distributed on     1 nodes
     73124 MiB available memory on the printing compute node when the environment starts
 
     Reading input from pw-si-25.in
Warning: card &CELL ignored
Warning: card / ignored

     Current dimensions of program PWSCF are:
     Max number of different atomic species (ntypx) = 10
     Max number of k-points (npk) =  40000
     Max angular momentum in pseudopotentials (lmaxx) =  4

     IMPORTANT: XC functional enforced from input :
     Exchange-correlation= PBE
                           (   1   4   3   4   0   0   0)
     Any further DFT definition will be discarded
     Please, verify this is what you really want


     gamma-point specific algorithms are used
 
     K-points division:     npool     =       2
     R & G space division:  proc/nbgrp/npool/nimage =       2
     Subspace diagonalization in iterative solution of the eigenvalue problem:
     a serial algorithm will be used

     Message from routine divide_et_impera:
     suboptimal parallelization: some nodes have no k-points
 
     Parallelization info
     --------------------
     sticks:   dense  smooth     PW     G-vecs:    dense   smooth      PW
     Min        1945    1945    516                91383    91383   12416
     Max        1948    1948    517                91388    91388   12421
     Sum        3893    3893   1033               182771   182771   24837
 
     Using Slab Decomposition
 


     bravais-lattice index     =            0
     lattice parameter (alat)  =      20.1917  a.u.
     unit-cell volume          =    8232.2375 (a.u.)^3
     number of atoms/cell      =           64
     number of atomic types    =            1
     number of electrons       =       256.00
     number of Kohn-Sham states=          128
     kinetic-energy cutoff     =      30.0000  Ry
     charge density cutoff     =     120.0000  Ry
     scf convergence threshold =      1.0E-06
     mixing beta               =       0.5000
     number of iterations used =            8  plain     mixing
     Exchange-correlation= PBE
                           (   1   4   3   4   0   0   0)

     GPU acceleration is ACTIVE.
     GPU-aware MPI enabled

     Message from routine print_cuda_info:
     High GPU oversubscription detected. Are you sure this is what you want?

     celldm(1)=  20.191688  celldm(2)=   0.000000  celldm(3)=   0.000000
     celldm(4)=   0.000000  celldm(5)=   0.000000  celldm(6)=   0.000000

     crystal axes: (cart. coord. in units of alat)
               a(1) = (   1.000000   0.000000   0.000000 )  
               a(2) = (   0.000000   1.000000   0.000000 )  
               a(3) = (   0.000000   0.000000   1.000000 )  

     reciprocal axes: (cart. coord. in units 2 pi/alat)
               b(1) = (  1.000000  0.000000  0.000000 )  
               b(2) = (  0.000000  1.000000  0.000000 )  
               b(3) = (  0.000000  0.000000  1.000000 )  


     PseudoPot. # 1 for Si read from file:
     /home/ppiaggi/pseudos/Si_ONCV_PBE_sr.upf
     MD5 check sum: 8553c464762ac42b85b1eed164b4d029
     Pseudo is Norm-conserving, Zval =  4.0
     Generated using ONCVPSP code by D. R. Hamann
     Using radial grid of 1510 points,  4 beta functions with: 
                l(1) =   0
                l(2) =   0
                l(3) =   1
                l(4) =   1

     atomic species   valence    mass     pseudopotential
        Si             4.00    28.08500     Si( 1.00)

     No symmetry found



   Cartesian axes

     site n.     atom                  positions (alat units)
         1           Si  tau(   1) = (   0.3385910   0.8297500   0.1730740  )
         2           Si  tau(   2) = (   0.5702490   0.2051730   0.6630840  )
         3           Si  tau(   3) = (   0.6681760   0.1462550   0.4633520  )
         4           Si  tau(   4) = (   0.0812692   0.4232600   0.4439660  )
         5           Si  tau(   5) = (   0.5807860   0.9712230   0.1471070  )
         6           Si  tau(   6) = (   0.3692030   0.4179320   0.9524490  )
         7           Si  tau(   7) = (   0.5266220   0.2213870   0.1329730  )
         8           Si  tau(   8) = (   0.1708440   0.5579040   0.6128440  )
         9           Si  tau(   9) = (   0.3448000   0.9746150   0.5122260  )
        10           Si  tau(  10) = (   0.0115347   0.5362770   0.8557300  )
        11           Si  tau(  11) = (   0.7667190   0.4854300   0.3897430  )
        12           Si  tau(  12) = (   0.3059330   0.0776656   0.1408710  )
        13           Si  tau(  13) = (   0.2916800   0.9508710   0.9431450  )
        14           Si  tau(  14) = (   0.4042100   0.6118940   0.7289390  )
        15           Si  tau(  15) = (   0.0469443   0.0167922   0.9257990  )
        16           Si  tau(  16) = (   0.4567440   0.8678810   0.6785220  )
        17           Si  tau(  17) = (   0.6306870   0.5604010   0.8178870  )
        18           Si  tau(  18) = (   0.8935340   0.4401570   0.5628440  )
        19           Si  tau(  19) = (   0.9390840   0.5394540   0.0859848  )
        20           Si  tau(  20) = (   0.2172970   0.6187780   0.9054610  )
        21           Si  tau(  21) = (   0.8813760   0.9979420   0.0902028  )
        22           Si  tau(  22) = (   0.1948700   0.5982270   0.1925390  )
        23           Si  tau(  23) = (   0.7481450   0.8129830   0.2211780  )
        24           Si  tau(  24) = (   0.0413289   0.8757930   0.2509490  )
        25           Si  tau(  25) = (   0.6495390   0.8618620   0.5167820  )
        26           Si  tau(  26) = (   0.0203964   0.7760010   0.5616380  )
        27           Si  tau(  27) = (   0.7203430   0.3545910   0.8503780  )
        28           Si  tau(  28) = (   0.4688440   0.0843242   0.3640400  )
        29           Si  tau(  29) = (   0.9216290   0.1962470   0.2169180  )
        30           Si  tau(  30) = (   0.5414950   0.8536610   0.9392890  )
        31           Si  tau(  31) = (   0.7043910   0.9686790   0.7263740  )
        32           Si  tau(  32) = (   0.4471850   0.3978380   0.6005690  )
        33           Si  tau(  33) = (   0.2241140   0.8027190   0.7272460  )
        34           Si  tau(  34) = (   0.8589000   0.2702580   0.6998590  )
        35           Si  tau(  35) = (   0.2181700   0.8300830   0.3976780  )
        36           Si  tau(  36) = (   0.3770350   0.3913780   0.2016620  )
        37           Si  tau(  37) = (   0.8951460   0.6234140   0.6970440  )
        38           Si  tau(  38) = (   0.0371784   0.9827860   0.6872890  )
        39           Si  tau(  39) = (   0.5185850   0.5422450   0.4533370  )
        40           Si  tau(  40) = (   0.0619967   0.2760620   0.8357860  )
        41           Si  tau(  41) = (   0.1717240   0.2261100   0.4621140  )
        42           Si  tau(  42) = (   0.8582980   0.8405830   0.8351440  )
        43           Si  tau(  43) = (   0.0851096   0.7943930   0.0265229  )
        44           Si  tau(  44) = (   0.7491880   0.7081000   0.9718840  )
        45           Si  tau(  45) = (   0.1683150   0.2347650   0.0521232  )
        46           Si  tau(  46) = (   0.3068450   0.5944640   0.4064420  )
        47           Si  tau(  47) = (   0.6868610   0.0586717   0.9581130  )
        48           Si  tau(  48) = (   0.7251090   0.5886970   0.1939930  )
        49           Si  tau(  49) = (   0.2143980   0.1125160   0.6536610  )
        50           Si  tau(  50) = (   0.5013470   0.5927070   0.2181010  )
        51           Si  tau(  51) = (   0.8670610   0.9012230   0.4256010  )
        52           Si  tau(  52) = (   0.3721680   0.2728340   0.4170160  )
        53           Si  tau(  53) = (   0.1044950   0.3894300   0.2104100  )
        54           Si  tau(  54) = (   0.4486440   0.6561620   0.9859710  )
        55           Si  tau(  55) = (   0.5362630   0.2517800   0.9098790  )
        56           Si  tau(  56) = (   0.4315850   0.0659770   0.7761260  )
        57           Si  tau(  57) = (   0.1113770   0.0948873   0.3116240  )
        58           Si  tau(  58) = (   0.9036170   0.3066030   0.0124230  )
        59           Si  tau(  59) = (   0.2443080   0.3804100   0.7466610  )
        60           Si  tau(  60) = (   0.9200790   0.0756357   0.5404120  )
        61           Si  tau(  61) = (   0.7080960   0.2729620   0.2771940  )
        62           Si  tau(  62) = (   0.6686000   0.6341650   0.5941880  )
        63           Si  tau(  63) = (   0.9964640   0.6484670   0.3219860  )
        64           Si  tau(  64) = (   0.5067020   0.8071790   0.3435470  )

     number of k points=     1
                       cart. coord. in units 2pi/alat
        k(    1) = (   0.0000000   0.0000000   0.0000000), wk =   2.0000000

     Dense  grid:    91386 G-vectors     FFT dimensions: (  72,  72,  72)

     Estimated max dynamical RAM per process >     134.44 MB

     Estimated total dynamical RAM >     515.43 MB

     Initial potential from superposition of free atoms

     starting charge     255.9608, renormalised to     256.0000
     Starting wfcs are  256 randomized atomic wfcs

     total cpu time spent up to now is        4.0 secs

     Self-consistent Calculation

     iteration #  1     ecut=    30.00 Ry     beta= 0.50
     Davidson diagonalization with overlap
     ethr =  1.00E-02,  avg # of iterations =  2.0

     Threshold (ethr) on eigenvalues was too large:
     Diagonalizing with lowered threshold

     Davidson diagonalization with overlap
     ethr =  3.74E-04,  avg # of iterations =  6.0

     total cpu time spent up to now is        4.2 secs

     total energy              =    -501.14779573 Ry
     estimated scf accuracy    <       1.16691643 Ry

     iteration #  2     ecut=    30.00 Ry     beta= 0.50
     Davidson diagonalization with overlap
     ethr =  4.56E-04,  avg # of iterations = 11.0

     total cpu time spent up to now is        4.3 secs

     total energy              =    -500.56608819 Ry
     estimated scf accuracy    <       7.78090026 Ry

     iteration #  3     ecut=    30.00 Ry     beta= 0.50
     Davidson diagonalization with overlap
     ethr =  4.56E-04,  avg # of iterations =  9.0

     total cpu time spent up to now is        4.5 secs

     total energy              =    -501.27619722 Ry
     estimated scf accuracy    <       1.10016951 Ry

     iteration #  4     ecut=    30.00 Ry     beta= 0.50
     Davidson diagonalization with overlap
     ethr =  4.30E-04,  avg # of iterations =  6.0

     total cpu time spent up to now is        4.6 secs

     total energy              =    -501.36597628 Ry
     estimated scf accuracy    <       0.35194630 Ry

     iteration #  5     ecut=    30.00 Ry     beta= 0.50
     Davidson diagonalization with overlap
     c_bands:  1 eigenvalues not converged
     ethr =  1.37E-04,  avg # of iterations = 20.0

     total cpu time spent up to now is        4.7 secs

     total energy              =    -501.38136701 Ry
     estimated scf accuracy    <       0.33849980 Ry

     iteration #  6     ecut=    30.00 Ry     beta= 0.50
     Davidson diagonalization with overlap
     ethr =  1.32E-04,  avg # of iterations = 17.0

     total cpu time spent up to now is        4.9 secs

     total energy              =    -501.41139246 Ry
     estimated scf accuracy    <       0.05449928 Ry

     iteration #  7     ecut=    30.00 Ry     beta= 0.50
     Davidson diagonalization with overlap
     ethr =  2.13E-05,  avg # of iterations = 10.0

     total cpu time spent up to now is        5.0 secs

     total energy              =    -501.41610330 Ry
     estimated scf accuracy    <       0.06412481 Ry

     iteration #  8     ecut=    30.00 Ry     beta= 0.50
     Davidson diagonalization with overlap
     ethr =  2.13E-05,  avg # of iterations =  3.0

     total cpu time spent up to now is        5.1 secs

     total energy              =    -501.41973938 Ry
     estimated scf accuracy    <       0.00995072 Ry

     iteration #  9     ecut=    30.00 Ry     beta= 0.50
     Davidson diagonalization with overlap
     ethr =  3.89E-06,  avg # of iterations =  8.0

     total cpu time spent up to now is        5.2 secs

     total energy              =    -501.42181563 Ry
     estimated scf accuracy    <       0.00975771 Ry

     iteration # 10     ecut=    30.00 Ry     beta= 0.50
     Davidson diagonalization with overlap
     ethr =  3.81E-06,  avg # of iterations =  3.0

     total cpu time spent up to now is        5.3 secs

     total energy              =    -501.42188750 Ry
     estimated scf accuracy    <       0.00613443 Ry

     iteration # 11     ecut=    30.00 Ry     beta= 0.50
     Davidson diagonalization with overlap
     ethr =  2.40E-06,  avg # of iterations =  2.0

     total cpu time spent up to now is        5.3 secs

     total energy              =    -501.42181179 Ry
     estimated scf accuracy    <       0.00188046 Ry

     iteration # 12     ecut=    30.00 Ry     beta= 0.50
     Davidson diagonalization with overlap
     c_bands:  1 eigenvalues not converged
     ethr =  7.35E-07,  avg # of iterations = 20.0

     total cpu time spent up to now is        5.5 secs

     total energy              =    -501.42226151 Ry
     estimated scf accuracy    <       0.00375996 Ry

     iteration # 13     ecut=    30.00 Ry     beta= 0.50
     Davidson diagonalization with overlap
     ethr =  7.35E-07,  avg # of iterations = 11.0

     total cpu time spent up to now is        5.6 secs

     total energy              =    -501.42225976 Ry
     estimated scf accuracy    <       0.00173731 Ry

     iteration # 14     ecut=    30.00 Ry     beta= 0.50
     Davidson diagonalization with overlap
     ethr =  6.79E-07,  avg # of iterations =  2.0

     total cpu time spent up to now is        5.7 secs

     total energy              =    -501.42216134 Ry
     estimated scf accuracy    <       0.00105811 Ry

     iteration # 15     ecut=    30.00 Ry     beta= 0.50
     Davidson diagonalization with overlap
     ethr =  4.13E-07,  avg # of iterations = 20.0

     total cpu time spent up to now is        5.8 secs

     total energy              =    -501.42231803 Ry
     estimated scf accuracy    <       0.00049887 Ry

     iteration # 16     ecut=    30.00 Ry     beta= 0.50
     Davidson diagonalization with overlap
     ethr =  1.95E-07,  avg # of iterations = 13.0

     total cpu time spent up to now is        6.0 secs

     total energy              =    -501.42232499 Ry
     estimated scf accuracy    <       0.00034441 Ry

     iteration # 17     ecut=    30.00 Ry     beta= 0.50
     Davidson diagonalization with overlap
     ethr =  1.35E-07,  avg # of iterations =  2.0

     total cpu time spent up to now is        6.0 secs

     total energy              =    -501.42229769 Ry
     estimated scf accuracy    <       0.00024085 Ry

     iteration # 18     ecut=    30.00 Ry     beta= 0.50
     Davidson diagonalization with overlap
     c_bands:  1 eigenvalues not converged
     ethr =  9.41E-08,  avg # of iterations = 20.0

     total cpu time spent up to now is        6.2 secs

     total energy              =    -501.42234166 Ry
     estimated scf accuracy    <       0.00014549 Ry

     iteration # 19     ecut=    30.00 Ry     beta= 0.50
     Davidson diagonalization with overlap
     ethr =  5.68E-08,  avg # of iterations = 10.0

     total cpu time spent up to now is        6.3 secs

     total energy              =    -501.42233010 Ry
     estimated scf accuracy    <       0.00017659 Ry

     iteration # 20     ecut=    30.00 Ry     beta= 0.50
     Davidson diagonalization with overlap
     ethr =  5.68E-08,  avg # of iterations =  3.0

     total cpu time spent up to now is        6.4 secs

     total energy              =    -501.42232808 Ry
     estimated scf accuracy    <       0.00009134 Ry

     iteration # 21     ecut=    30.00 Ry     beta= 0.50
     Davidson diagonalization with overlap
     c_bands:  1 eigenvalues not converged
     ethr =  3.57E-08,  avg # of iterations = 20.0

     total cpu time spent up to now is        6.5 secs

     total energy              =    -501.42233504 Ry
     estimated scf accuracy    <       0.00000630 Ry

     iteration # 22     ecut=    30.00 Ry     beta= 0.50
     Davidson diagonalization with overlap
     c_bands:  1 eigenvalues not converged
     ethr =  2.46E-09,  avg # of iterations = 20.0

     total cpu time spent up to now is        6.7 secs

     total energy              =    -501.42233838 Ry
     estimated scf accuracy    <       0.00001837 Ry

     iteration # 23     ecut=    30.00 Ry     beta= 0.50
     Davidson diagonalization with overlap
     ethr =  2.46E-09,  avg # of iterations = 20.0

     total cpu time spent up to now is        6.8 secs

     total energy              =    -501.42233836 Ry
     estimated scf accuracy    <       0.00002287 Ry

     iteration # 24     ecut=    30.00 Ry     beta= 0.50
     Davidson diagonalization with overlap
     ethr =  2.46E-09,  avg # of iterations =  3.0

     total cpu time spent up to now is        6.9 secs

     total energy              =    -501.42233736 Ry
     estimated scf accuracy    <       0.00002226 Ry

     iteration # 25     ecut=    30.00 Ry     beta= 0.50
     Davidson diagonalization with overlap
     ethr =  2.46E-09,  avg # of iterations =  3.0

     total cpu time spent up to now is        7.0 secs

     total energy              =    -501.42233636 Ry
     estimated scf accuracy    <       0.00001438 Ry

     iteration # 26     ecut=    30.00 Ry     beta= 0.50
     Davidson diagonalization with overlap
     c_bands:  1 eigenvalues not converged
     ethr =  2.46E-09,  avg # of iterations = 20.0

     total cpu time spent up to now is        7.2 secs

     total energy              =    -501.42233752 Ry
     estimated scf accuracy    <       0.00000198 Ry

     iteration # 27     ecut=    30.00 Ry     beta= 0.50
     Davidson diagonalization with overlap
     ethr =  7.75E-10,  avg # of iterations =  8.0

     total cpu time spent up to now is        7.3 secs

     total energy              =    -501.42233756 Ry
     estimated scf accuracy    <       0.00000130 Ry

     iteration # 28     ecut=    30.00 Ry     beta= 0.50
     Davidson diagonalization with overlap
     c_bands:  1 eigenvalues not converged
     ethr =  5.09E-10,  avg # of iterations = 20.0

     total cpu time spent up to now is        7.4 secs

     End of self-consistent calculation

          k = 0.0000 0.0000 0.0000 ( 11444 PWs)   bands (ev):

    -5.3369  -4.3544  -4.2896  -4.2290  -4.1342  -4.0748  -3.9037  -3.3337
    -3.2841  -3.2307  -3.1801  -3.0724  -3.0331  -2.9301  -2.8730  -2.8310
    -2.7767  -2.5556  -2.4432  -2.2102  -2.1093  -1.9937  -1.8797  -1.7662
    -1.6407  -1.4299  -1.2835  -0.9339  -0.7752  -0.7036  -0.6085  -0.3525
    -0.2964  -0.2227  -0.1083  -0.0691  -0.0156   0.0494   0.1487   0.2273
     0.2629   0.3072   0.3587   0.3855   0.6453   0.7951   0.8385   0.8748
     1.0389   1.1106   1.1706   1.2392   1.3912   1.4196   1.5150   1.5574
     1.6424   1.7192   1.8080   1.8155   1.9908   2.1497   2.2720   2.3611
     2.4797   2.4893   2.5581   2.6694   2.7739   2.8298   2.8582   2.9547
     3.0100   3.1312   3.2154   3.2617   3.2702   3.4009   3.4763   3.5905
     3.6597   4.0592   4.2676   4.3549   4.4256   4.4908   4.5600   4.6324
     4.7050   4.7577   4.7864   4.9121   4.9510   5.0577   5.0980   5.1301
     5.2116   5.2229   5.2902   5.3330   5.3811   5.4891   5.5427   5.5577
     5.6546   5.7321   5.7732   5.8046   5.8281   5.8653   5.9259   6.0166
     6.0734   6.1041   6.1487   6.2759   6.3331   6.3617   6.4523   6.5139
     6.5592   6.6127   6.6979   6.7448   6.8397   6.9028   6.9115   6.9729

     highest occupied level (ev):     6.9729

!    total energy              =    -501.42233724 Ry
     estimated scf accuracy    <       0.00000059 Ry

     The total energy is the sum of the following terms:
     one-electron contribution =     189.23282492 Ry
     hartree contribution      =      22.54630246 Ry
     xc contribution           =    -150.31462187 Ry
     ewald contribution        =    -562.88684275 Ry

     convergence has been achieved in  28 iterations

     Forces acting on atoms (cartesian axes, Ry/au):

     atom    1 type  1   force =     0.00536192   -0.00306887   -0.01046988
     atom    2 type  1   force =     0.01696465    0.03248973   -0.01529085
     atom    3 type  1   force =    -0.00344351   -0.02380983    0.00501533
     atom    4 type  1   force =    -0.00734434    0.02133929    0.00253956
     atom    5 type  1   force =    -0.01152379   -0.00396848    0.00889450
     atom    6 type  1   force =    -0.01942276    0.00380408   -0.00503980
     atom    7 type  1   force =    -0.00653905   -0.03160512    0.01282816
     atom    8 type  1   force =     0.00004489    0.00023460   -0.02243941
     atom    9 type  1   force =    -0.02885687    0.00610563    0.01440300
     atom   10 type  1   force =     0.02997121   -0.05572746    0.05608761
     atom   11 type  1   force =    -0.04936078   -0.02101903   -0.00903274
     atom   12 type  1   force =     0.00709141   -0.00071274    0.02283203
     atom   13 type  1   force =    -0.02133331   -0.01189487   -0.01040129
     atom   14 type  1   force =    -0.00927642    0.00236351    0.01674865
     atom   15 type  1   force =     0.01769381   -0.01051941   -0.01447302
     atom   16 type  1   force =     0.00546049   -0.03030139   -0.00666611
     atom   17 type  1   force =     0.01505734    0.02633777    0.00023775
     atom   18 type  1   force =    -0.00704126   -0.00607745    0.00711896
     atom   19 type  1   force =    -0.01796760   -0.01952914   -0.01027842
     atom   20 type  1   force =     0.02706917    0.02376294   -0.00385167
     atom   21 type  1   force =    -0.01853548    0.01398397    0.00738061
     atom   22 type  1   force =     0.00612039    0.00306891    0.02091474
     atom   23 type  1   force =     0.00003192    0.02196957   -0.00534050
     atom   24 type  1   force =    -0.00105449   -0.00740642   -0.00309801
     atom   25 type  1   force =     0.00802206   -0.00676220    0.03892868
     atom   26 type  1   force =     0.01112718   -0.01176396   -0.01040587
     atom   27 type  1   force =    -0.01059675   -0.00950420    0.00576188
     atom   28 type  1   force =     0.02376727   -0.03844212   -0.01509371
     atom   29 type  1   force =    -0.01495090   -0.01391899   -0.02928531
     atom   30 type  1   force =     0.02089126    0.02924290    0.00762225
     atom   31 type  1   force =    -0.00147135    0.00539056    0.01183434
     atom   32 type  1   force =    -0.01478938   -0.04497931    0.01229498
     atom   33 type  1   force =     0.01297060   -0.00076007    0.01658616
     atom   34 type  1   force =     0.03255716   -0.03144914   -0.02470184
     atom   35 type  1   force =     0.00412021   -0.04362713    0.00350826
     atom   36 type  1   force =    -0.02235796    0.01991372    0.00993986
     atom   37 type  1   force =    -0.01533064    0.03159100   -0.04826340
     atom   38 type  1   force =     0.03945204   -0.05136034    0.06428740
     atom   39 type  1   force =     0.03217998    0.02012051   -0.01185722
     atom   40 type  1   force =    -0.03981917    0.02192346    0.01046415
     atom   41 type  1   force =    -0.01137933    0.00241632    0.05998672
     atom   42 type  1   force =     0.01661419    0.01564033   -0.02025381
     atom   43 type  1   force =     0.03534511    0.00050171    0.01383672
     atom   44 type  1   force =    -0.03995574   -0.01921720    0.01218915
     atom   45 type  1   force =     0.00684546    0.01478871   -0.01876070
     atom   46 type  1   force =    -0.02658172    0.05028197   -0.00972771
     atom   47 type  1   force =     0.00469548   -0.01707680   -0.00978149
     atom   48 type  1   force =     0.03842103    0.03338844   -0.01181292
     atom   49 type  1   force =     0.03841092   -0.00745807   -0.01433155
     atom   50 type  1   force =     0.00286961    0.00641788   -0.00509866
     atom   51 type  1   force =    -0.01023642   -0.04992612   -0.02114380
     atom   52 type  1   force =     0.03174201    0.04952380   -0.02231531
     atom   53 type  1   force =     0.00049572    0.01011695   -0.01723368
     atom   54 type  1   force =    -0.01995926   -0.03546948    0.00042355
     atom   55 type  1   force =    -0.00777466   -0.02363087    0.00378866
     atom   56 type  1   force =    -0.03465247    0.02575162    0.03039172
     atom   57 type  1   force =    -0.02895201   -0.05022406   -0.06061646
     atom   58 type  1   force =     0.00326582    0.03742665   -0.00329382
     atom   59 type  1   force =     0.02408186    0.02813127   -0.00262425
     atom   60 type  1   force =    -0.05487139    0.07723016   -0.00661810
     atom   61 type  1   force =     0.03440730    0.01634824    0.03359802
     atom   62 type  1   force =     0.00120188    0.02516570    0.00342736
     atom   63 type  1   force =     0.00104474    0.02369445   -0.01223530
     atom   64 type  1   force =    -0.00001725   -0.01925609   -0.02203414

     Total force =     0.330320     Total SCF correction =     0.001447


     Computing stress (Cartesian axis) and pressure

          total   stress  (Ry/bohr**3)                   (kbar)     P=      -43.47
  -0.00027904   0.00003533   0.00003775          -41.05        5.20        5.55
   0.00003533  -0.00033227  -0.00003898            5.20      -48.88       -5.73
   0.00003775  -0.00003898  -0.00027510            5.55       -5.73      -40.47

 
     init_run     :      1.13s CPU      3.98s WALL (       1 calls)
     electrons    :      3.23s CPU      3.37s WALL (       1 calls)
     forces       :      0.03s CPU      0.03s WALL (       1 calls)
     stress       :      0.12s CPU      0.12s WALL (       1 calls)

     Called by init_run:
     wfcinit      :      0.62s CPU      3.34s WALL (       1 calls)
                                        3.34s GPU  (       1 calls)
     potinit      :      0.04s CPU      0.11s WALL (       1 calls)
     hinit0       :      0.45s CPU      0.47s WALL (       1 calls)

     Called by electrons:
     c_bands      :      2.36s CPU      2.43s WALL (      29 calls)
     sum_band     :      0.42s CPU      0.47s WALL (      29 calls)
     v_of_rho     :      0.18s CPU      0.26s WALL (      29 calls)
     mix_rho      :      0.22s CPU      0.23s WALL (      29 calls)

     Called by c_bands:
     init_us_2    :      0.07s CPU      0.08s WALL (      59 calls)
     init_us_2:gp :      0.07s CPU      0.08s WALL (      59 calls)
     regterg      :      2.15s CPU      2.21s WALL (      29 calls)

     Called by *egterg:
     rdiaghg      :      1.12s CPU      1.68s WALL (     340 calls)
                                        1.63s GPU  (     340 calls)
     h_psi        :      1.34s CPU      3.54s WALL (     342 calls)
                                        3.54s GPU  (     342 calls)
     g_psi        :      0.00s CPU      0.01s WALL (     312 calls)
                                        0.01s GPU  (     312 calls)

     Called by h_psi:
     h_psi:calbec :      0.65s CPU      2.78s WALL (     342 calls)
                                        2.78s GPU  (     342 calls)
     vloc_psi     :      0.50s CPU      0.56s WALL (     342 calls)
                                        0.56s GPU  (     342 calls)
     add_vuspsi   :      0.15s CPU      0.18s WALL (     342 calls)
                                        0.18s GPU  (     342 calls)

     General routines
     calbec       :      0.65s CPU      2.78s WALL (     347 calls)
     fft          :      0.59s CPU      0.69s WALL (     239 calls)
                                        0.11s GPU  (     151 calls)
     ffts         :      0.04s CPU      0.05s WALL (      29 calls)
     fftw         :      0.58s CPU      0.75s WALL (    2962 calls)
                                        0.65s GPU  (    2962 calls)
 
     Parallel routines
 
     PWSCF        :      4.55s CPU      7.57s WALL

 
   This run was terminated on:  15: 9:56   9May2023            

=------------------------------------------------------------------------------=
   JOB DONE.
=------------------------------------------------------------------------------=
