An instance of this daemon is already running
An instance of this daemon is already running
An instance of this daemon is already running

     Program PWSCF v.7.1 starts on  9May2023 at 15:10:56 

     This program is part of the open-source Quantum ESPRESSO suite
     for quantum simulation of materials; please cite
         "P. Giannozzi et al., J. Phys.:Condens. Matter 21 395502 (2009);
         "P. Giannozzi et al., J. Phys.:Condens. Matter 29 465901 (2017);
         "P. Giannozzi et al., J. Chem. Phys. 152 154105 (2020);
          URL http://www.quantum-espresso.org", 
     in publications or presentations arising from this work. More details at
     http://www.quantum-espresso.org/quote

     Parallel version (MPI & OpenMP), running on       4 processor cores
     Number of MPI processes:                 4
     Threads/MPI process:                     1

     MPI processes distributed on     1 nodes
     63582 MiB available memory on the printing compute node when the environment starts
 
     Reading input from pw-si-30.in
Warning: card &CELL ignored
Warning: card / ignored

     Current dimensions of program PWSCF are:
     Max number of different atomic species (ntypx) = 10
     Max number of k-points (npk) =  40000
     Max angular momentum in pseudopotentials (lmaxx) =  4

     IMPORTANT: XC functional enforced from input :
     Exchange-correlation= PBE
                           (   1   4   3   4   0   0   0)
     Any further DFT definition will be discarded
     Please, verify this is what you really want


     gamma-point specific algorithms are used
 
     K-points division:     npool     =       2
     R & G space division:  proc/nbgrp/npool/nimage =       2
     Subspace diagonalization in iterative solution of the eigenvalue problem:
     a serial algorithm will be used

     Message from routine divide_et_impera:
     suboptimal parallelization: some nodes have no k-points
 
     Parallelization info
     --------------------
     sticks:   dense  smooth     PW     G-vecs:    dense   smooth      PW
     Min        1920    1920    502                89653    89653   12150
     Max        1921    1921    503                89656    89656   12153
     Sum        3841    3841   1005               179309   179309   24303
 
     Using Slab Decomposition
 


     bravais-lattice index     =            0
     lattice parameter (alat)  =      20.0677  a.u.
     unit-cell volume          =    8081.5238 (a.u.)^3
     number of atoms/cell      =           64
     number of atomic types    =            1
     number of electrons       =       256.00
     number of Kohn-Sham states=          128
     kinetic-energy cutoff     =      30.0000  Ry
     charge density cutoff     =     120.0000  Ry
     scf convergence threshold =      1.0E-06
     mixing beta               =       0.5000
     number of iterations used =            8  plain     mixing
     Exchange-correlation= PBE
                           (   1   4   3   4   0   0   0)

     GPU acceleration is ACTIVE.
     GPU-aware MPI enabled

     Message from routine print_cuda_info:
     High GPU oversubscription detected. Are you sure this is what you want?

     celldm(1)=  20.067707  celldm(2)=   0.000000  celldm(3)=   0.000000
     celldm(4)=   0.000000  celldm(5)=   0.000000  celldm(6)=   0.000000

     crystal axes: (cart. coord. in units of alat)
               a(1) = (   1.000000   0.000000   0.000000 )  
               a(2) = (   0.000000   1.000000   0.000000 )  
               a(3) = (   0.000000   0.000000   1.000000 )  

     reciprocal axes: (cart. coord. in units 2 pi/alat)
               b(1) = (  1.000000  0.000000  0.000000 )  
               b(2) = (  0.000000  1.000000  0.000000 )  
               b(3) = (  0.000000  0.000000  1.000000 )  


     PseudoPot. # 1 for Si read from file:
     /home/ppiaggi/pseudos/Si_ONCV_PBE_sr.upf
     MD5 check sum: 8553c464762ac42b85b1eed164b4d029
     Pseudo is Norm-conserving, Zval =  4.0
     Generated using ONCVPSP code by D. R. Hamann
     Using radial grid of 1510 points,  4 beta functions with: 
                l(1) =   0
                l(2) =   0
                l(3) =   1
                l(4) =   1

     atomic species   valence    mass     pseudopotential
        Si             4.00    28.08500     Si( 1.00)

     No symmetry found



   Cartesian axes

     site n.     atom                  positions (alat units)
         1           Si  tau(   1) = (   0.8129840   0.2741410   0.3162630  )
         2           Si  tau(   2) = (   0.2528220   0.5278810   0.0105093  )
         3           Si  tau(   3) = (   0.0714928   0.7257500   0.2068010  )
         4           Si  tau(   4) = (   0.2091380   0.8415910   0.7084630  )
         5           Si  tau(   5) = (   0.5271330   0.8341680   0.4746080  )
         6           Si  tau(   6) = (   0.5178710   0.8468710   0.7818600  )
         7           Si  tau(   7) = (   0.2362790   0.0988017   0.0968802  )
         8           Si  tau(   8) = (   0.3316430   0.1556960   0.7658940  )
         9           Si  tau(   9) = (   0.3540470   0.8271700   0.9992460  )
        10           Si  tau(  10) = (   0.7401430   0.1643510   0.9885130  )
        11           Si  tau(  11) = (   0.6248800   0.1405080   0.1965600  )
        12           Si  tau(  12) = (   0.8097200   0.9557780   0.8298300  )
        13           Si  tau(  13) = (   0.9642960   0.1231200   0.9928780  )
        14           Si  tau(  14) = (   0.4527060   0.0998883   0.9540410  )
        15           Si  tau(  15) = (   0.5157280   0.5454610   0.8195710  )
        16           Si  tau(  16) = (   0.8556880   0.6595780   0.1908740  )
        17           Si  tau(  17) = (   0.9552910   0.3926640   0.5137490  )
        18           Si  tau(  18) = (   0.0404845   0.4841480   0.8656300  )
        19           Si  tau(  19) = (   0.5584760   0.9182150   0.2331380  )
        20           Si  tau(  20) = (   0.6624170   0.3553950   0.4764200  )
        21           Si  tau(  21) = (   0.3480500   0.2669870   0.3269310  )
        22           Si  tau(  22) = (   0.7037860   0.7065500   0.9958880  )
        23           Si  tau(  23) = (   0.5312380   0.5964520   0.4551750  )
        24           Si  tau(  24) = (   0.7684180   0.8813080   0.2352290  )
        25           Si  tau(  25) = (   0.4597570   0.3366300   0.7098550  )
        26           Si  tau(  26) = (   0.4645270   0.6183080   0.0592885  )
        27           Si  tau(  27) = (   0.9938300   0.7832200   0.6504240  )
        28           Si  tau(  28) = (   0.0580891   0.2405270   0.3653970  )
        29           Si  tau(  29) = (   0.3925170   0.3264830   0.9858020  )
        30           Si  tau(  30) = (   0.2956150   0.9288360   0.2106070  )
        31           Si  tau(  31) = (   0.9259290   0.7515500   0.8562800  )
        32           Si  tau(  32) = (   0.8220490   0.4204820   0.1385770  )
        33           Si  tau(  33) = (   0.1594240   0.9965030   0.9172760  )
        34           Si  tau(  34) = (   0.6339170   0.9324580   0.9753890  )
        35           Si  tau(  35) = (   0.6548190   0.3917820   0.9776030  )
        36           Si  tau(  36) = (   0.2056490   0.5473620   0.2866050  )
        37           Si  tau(  37) = (   0.9187030   0.1476840   0.7293870  )
        38           Si  tau(  38) = (   0.0933759   0.9269900   0.3677600  )
        39           Si  tau(  39) = (   0.2516890   0.7703590   0.4721670  )
        40           Si  tau(  40) = (   0.5122300   0.3223630   0.1775950  )
        41           Si  tau(  41) = (   0.7440570   0.7974890   0.5038570  )
        42           Si  tau(  42) = (   0.8010330   0.3585090   0.6892020  )
        43           Si  tau(  43) = (   0.1260570   0.7460830   0.9926100  )
        44           Si  tau(  44) = (   0.8113330   0.5872590   0.4135040  )
        45           Si  tau(  45) = (   0.9599630   0.9948730   0.5584330  )
        46           Si  tau(  46) = (   0.2160450   0.4779280   0.6638130  )
        47           Si  tau(  47) = (   0.6091370   0.5055890   0.2426600  )
        48           Si  tau(  48) = (   0.0936663   0.5713410   0.4898380  )
        49           Si  tau(  49) = (   0.3906730   0.9769210   0.6492530  )
        50           Si  tau(  50) = (   0.3491650   0.0572278   0.4117580  )
        51           Si  tau(  51) = (   0.6376690   0.2385210   0.7597850  )
        52           Si  tau(  52) = (   0.3964510   0.4154590   0.5125260  )
        53           Si  tau(  53) = (   0.6548360   0.0097197   0.6626160  )
        54           Si  tau(  54) = (   0.1783610   0.3058080   0.1740560  )
        55           Si  tau(  55) = (   0.1601280   0.1413240   0.5356920  )
        56           Si  tau(  56) = (   0.9713450   0.0433216   0.2159120  )
        57           Si  tau(  57) = (   0.0063118   0.3463440   0.0243835  )
        58           Si  tau(  58) = (   0.5875940   0.1242790   0.4503410  )
        59           Si  tau(  59) = (   0.7956850   0.0299850   0.4328250  )
        60           Si  tau(  60) = (   0.3932030   0.6878360   0.2931660  )
        61           Si  tau(  61) = (   0.3023150   0.6439300   0.7994860  )
        62           Si  tau(  62) = (   0.8039440   0.5612660   0.8148380  )
        63           Si  tau(  63) = (   0.1199850   0.2796350   0.7295250  )
        64           Si  tau(  64) = (   0.6364200   0.6942610   0.6828550  )

     number of k points=     1
                       cart. coord. in units 2pi/alat
        k(    1) = (   0.0000000   0.0000000   0.0000000), wk =   2.0000000

     Dense  grid:    89655 G-vectors     FFT dimensions: (  72,  72,  72)

     Estimated max dynamical RAM per process >     132.25 MB

     Estimated total dynamical RAM >     507.10 MB

     Initial potential from superposition of free atoms

     starting charge     255.9608, renormalised to     256.0000
     Starting wfcs are  256 randomized atomic wfcs

     total cpu time spent up to now is        4.3 secs

     Self-consistent Calculation

     iteration #  1     ecut=    30.00 Ry     beta= 0.50
     Davidson diagonalization with overlap
     ethr =  1.00E-02,  avg # of iterations =  2.0

     Threshold (ethr) on eigenvalues was too large:
     Diagonalizing with lowered threshold

     Davidson diagonalization with overlap
     ethr =  3.40E-04,  avg # of iterations =  6.0

     total cpu time spent up to now is        4.4 secs

     total energy              =    -501.36447343 Ry
     estimated scf accuracy    <       1.08748469 Ry

     iteration #  2     ecut=    30.00 Ry     beta= 0.50
     Davidson diagonalization with overlap
     ethr =  4.25E-04,  avg # of iterations =  6.0

     total cpu time spent up to now is        4.5 secs

     total energy              =    -501.26692495 Ry
     estimated scf accuracy    <       1.19255052 Ry

     iteration #  3     ecut=    30.00 Ry     beta= 0.50
     Davidson diagonalization with overlap
     ethr =  4.25E-04,  avg # of iterations =  7.0

     total cpu time spent up to now is        4.6 secs

     total energy              =    -501.40592336 Ry
     estimated scf accuracy    <       1.46153561 Ry

     iteration #  4     ecut=    30.00 Ry     beta= 0.50
     Davidson diagonalization with overlap
     ethr =  4.25E-04,  avg # of iterations =  3.0

     total cpu time spent up to now is        4.7 secs

     total energy              =    -501.50581018 Ry
     estimated scf accuracy    <       0.14258680 Ry

     iteration #  5     ecut=    30.00 Ry     beta= 0.50
     Davidson diagonalization with overlap
     ethr =  5.57E-05,  avg # of iterations = 17.0

     total cpu time spent up to now is        4.9 secs

     total energy              =    -501.54533304 Ry
     estimated scf accuracy    <       0.14547379 Ry

     iteration #  6     ecut=    30.00 Ry     beta= 0.50
     Davidson diagonalization with overlap
     ethr =  5.57E-05,  avg # of iterations =  3.0

     total cpu time spent up to now is        4.9 secs

     total energy              =    -501.54578452 Ry
     estimated scf accuracy    <       0.08043989 Ry

     iteration #  7     ecut=    30.00 Ry     beta= 0.50
     Davidson diagonalization with overlap
     ethr =  3.14E-05,  avg # of iterations =  2.0

     total cpu time spent up to now is        5.0 secs

     total energy              =    -501.54582869 Ry
     estimated scf accuracy    <       0.02273392 Ry

     iteration #  8     ecut=    30.00 Ry     beta= 0.50
     Davidson diagonalization with overlap
     ethr =  8.88E-06,  avg # of iterations =  8.0

     total cpu time spent up to now is        5.1 secs

     total energy              =    -501.55129186 Ry
     estimated scf accuracy    <       0.01950949 Ry

     iteration #  9     ecut=    30.00 Ry     beta= 0.50
     Davidson diagonalization with overlap
     ethr =  7.62E-06,  avg # of iterations =  2.0

     total cpu time spent up to now is        5.2 secs

     total energy              =    -501.55088649 Ry
     estimated scf accuracy    <       0.00801345 Ry

     iteration # 10     ecut=    30.00 Ry     beta= 0.50
     Davidson diagonalization with overlap
     ethr =  3.13E-06,  avg # of iterations =  5.0

     total cpu time spent up to now is        5.3 secs

     total energy              =    -501.55202626 Ry
     estimated scf accuracy    <       0.00059496 Ry

     iteration # 11     ecut=    30.00 Ry     beta= 0.50
     Davidson diagonalization with overlap
     c_bands:  1 eigenvalues not converged
     ethr =  2.32E-07,  avg # of iterations = 20.0

     total cpu time spent up to now is        5.5 secs

     total energy              =    -501.55220092 Ry
     estimated scf accuracy    <       0.00558540 Ry

     iteration # 12     ecut=    30.00 Ry     beta= 0.50
     Davidson diagonalization with overlap
     c_bands:  1 eigenvalues not converged
     ethr =  2.32E-07,  avg # of iterations = 20.0

     total cpu time spent up to now is        5.6 secs

     total energy              =    -501.55210120 Ry
     estimated scf accuracy    <       0.00251634 Ry

     iteration # 13     ecut=    30.00 Ry     beta= 0.50
     Davidson diagonalization with overlap
     ethr =  2.32E-07,  avg # of iterations = 13.0

     total cpu time spent up to now is        5.8 secs

     total energy              =    -501.55215783 Ry
     estimated scf accuracy    <       0.00098067 Ry

     iteration # 14     ecut=    30.00 Ry     beta= 0.50
     Davidson diagonalization with overlap
     ethr =  2.32E-07,  avg # of iterations =  2.0

     total cpu time spent up to now is        5.8 secs

     total energy              =    -501.55212111 Ry
     estimated scf accuracy    <       0.00056618 Ry

     iteration # 15     ecut=    30.00 Ry     beta= 0.50
     Davidson diagonalization with overlap
     ethr =  2.21E-07,  avg # of iterations =  2.0

     total cpu time spent up to now is        5.9 secs

     total energy              =    -501.55211952 Ry
     estimated scf accuracy    <       0.00023605 Ry

     iteration # 16     ecut=    30.00 Ry     beta= 0.50
     Davidson diagonalization with overlap
     c_bands:  1 eigenvalues not converged
     ethr =  9.22E-08,  avg # of iterations = 20.0

     total cpu time spent up to now is        6.1 secs

     total energy              =    -501.55225878 Ry
     estimated scf accuracy    <       0.00433163 Ry

     iteration # 17     ecut=    30.00 Ry     beta= 0.50
     Davidson diagonalization with overlap
     ethr =  9.22E-08,  avg # of iterations = 10.0

     total cpu time spent up to now is        6.2 secs

     total energy              =    -501.55222552 Ry
     estimated scf accuracy    <       0.00411189 Ry

     iteration # 18     ecut=    30.00 Ry     beta= 0.50
     Davidson diagonalization with overlap
     ethr =  9.22E-08,  avg # of iterations =  1.0

     total cpu time spent up to now is        6.3 secs

     total energy              =    -501.55219681 Ry
     estimated scf accuracy    <       0.00396474 Ry

     iteration # 19     ecut=    30.00 Ry     beta= 0.50
     Davidson diagonalization with overlap
     ethr =  9.22E-08,  avg # of iterations =  1.0

     total cpu time spent up to now is        6.3 secs

     total energy              =    -501.55220136 Ry
     estimated scf accuracy    <       0.00382499 Ry

     iteration # 20     ecut=    30.00 Ry     beta= 0.50
     Davidson diagonalization with overlap
     ethr =  9.22E-08,  avg # of iterations =  1.0

     total cpu time spent up to now is        6.4 secs

     total energy              =    -501.55199635 Ry
     estimated scf accuracy    <       0.00379142 Ry

     iteration # 21     ecut=    30.00 Ry     beta= 0.50
     Davidson diagonalization with overlap
     c_bands:  1 eigenvalues not converged
     ethr =  9.22E-08,  avg # of iterations = 20.0

     total cpu time spent up to now is        6.6 secs

     total energy              =    -501.55216685 Ry
     estimated scf accuracy    <       0.00021801 Ry

     iteration # 22     ecut=    30.00 Ry     beta= 0.50
     Davidson diagonalization with overlap
     ethr =  8.52E-08,  avg # of iterations = 13.0

     total cpu time spent up to now is        6.7 secs

     total energy              =    -501.55219011 Ry
     estimated scf accuracy    <       0.00012792 Ry

     iteration # 23     ecut=    30.00 Ry     beta= 0.50
     Davidson diagonalization with overlap
     ethr =  5.00E-08,  avg # of iterations =  3.0

     total cpu time spent up to now is        6.8 secs

     total energy              =    -501.55218824 Ry
     estimated scf accuracy    <       0.00005696 Ry

     iteration # 24     ecut=    30.00 Ry     beta= 0.50
     Davidson diagonalization with overlap
     ethr =  2.22E-08,  avg # of iterations =  8.0

     total cpu time spent up to now is        6.9 secs

     total energy              =    -501.55218646 Ry
     estimated scf accuracy    <       0.00002659 Ry

     iteration # 25     ecut=    30.00 Ry     beta= 0.50
     Davidson diagonalization with overlap
     c_bands:  1 eigenvalues not converged
     ethr =  1.04E-08,  avg # of iterations = 20.0

     total cpu time spent up to now is        7.0 secs

     total energy              =    -501.55221094 Ry
     estimated scf accuracy    <       0.00028462 Ry

     iteration # 26     ecut=    30.00 Ry     beta= 0.50
     Davidson diagonalization with overlap
     c_bands:  1 eigenvalues not converged
     ethr =  1.04E-08,  avg # of iterations = 20.0

     total cpu time spent up to now is        7.2 secs

     total energy              =    -501.55218210 Ry
     estimated scf accuracy    <       0.00034723 Ry

     iteration # 27     ecut=    30.00 Ry     beta= 0.50
     Davidson diagonalization with overlap
     c_bands:  1 eigenvalues not converged
     ethr =  1.04E-08,  avg # of iterations = 20.0

     total cpu time spent up to now is        7.3 secs

     total energy              =    -501.55218021 Ry
     estimated scf accuracy    <       0.00008507 Ry

     iteration # 28     ecut=    30.00 Ry     beta= 0.50
     Davidson diagonalization with overlap
     c_bands:  1 eigenvalues not converged
     ethr =  1.04E-08,  avg # of iterations = 20.0

     total cpu time spent up to now is        7.5 secs

     total energy              =    -501.55219331 Ry
     estimated scf accuracy    <       0.00004570 Ry

     iteration # 29     ecut=    30.00 Ry     beta= 0.50
     Davidson diagonalization with overlap
     c_bands:  1 eigenvalues not converged
     ethr =  1.04E-08,  avg # of iterations = 20.0

     total cpu time spent up to now is        7.7 secs

     total energy              =    -501.55219031 Ry
     estimated scf accuracy    <       0.00006625 Ry

     iteration # 30     ecut=    30.00 Ry     beta= 0.50
     Davidson diagonalization with overlap
     ethr =  1.04E-08,  avg # of iterations = 14.0

     total cpu time spent up to now is        7.8 secs

     total energy              =    -501.55218763 Ry
     estimated scf accuracy    <       0.00010660 Ry

     iteration # 31     ecut=    30.00 Ry     beta= 0.50
     Davidson diagonalization with overlap
     ethr =  1.04E-08,  avg # of iterations = 10.0

     total cpu time spent up to now is        7.9 secs

     total energy              =    -501.55219004 Ry
     estimated scf accuracy    <       0.00003564 Ry

     iteration # 32     ecut=    30.00 Ry     beta= 0.50
     Davidson diagonalization with overlap
     ethr =  1.04E-08,  avg # of iterations =  2.0

     total cpu time spent up to now is        8.0 secs

     total energy              =    -501.55218909 Ry
     estimated scf accuracy    <       0.00002205 Ry

     iteration # 33     ecut=    30.00 Ry     beta= 0.50
     Davidson diagonalization with overlap
     ethr =  8.61E-09,  avg # of iterations =  2.0

     total cpu time spent up to now is        8.1 secs

     total energy              =    -501.55218886 Ry
     estimated scf accuracy    <       0.00001506 Ry

     iteration # 34     ecut=    30.00 Ry     beta= 0.50
     Davidson diagonalization with overlap
     c_bands:  1 eigenvalues not converged
     ethr =  5.88E-09,  avg # of iterations = 20.0

     total cpu time spent up to now is        8.2 secs

     total energy              =    -501.55219153 Ry
     estimated scf accuracy    <       0.00001279 Ry

     iteration # 35     ecut=    30.00 Ry     beta= 0.50
     Davidson diagonalization with overlap
     ethr =  5.00E-09,  avg # of iterations = 18.0

     total cpu time spent up to now is        8.4 secs

     total energy              =    -501.55219157 Ry
     estimated scf accuracy    <       0.00001049 Ry

     iteration # 36     ecut=    30.00 Ry     beta= 0.50
     Davidson diagonalization with overlap
     ethr =  4.10E-09,  avg # of iterations =  2.0

     total cpu time spent up to now is        8.4 secs

     total energy              =    -501.55219206 Ry
     estimated scf accuracy    <       0.00000713 Ry

     iteration # 37     ecut=    30.00 Ry     beta= 0.50
     Davidson diagonalization with overlap
     ethr =  2.78E-09,  avg # of iterations =  2.0

     total cpu time spent up to now is        8.5 secs

     total energy              =    -501.55219220 Ry
     estimated scf accuracy    <       0.00000716 Ry

     iteration # 38     ecut=    30.00 Ry     beta= 0.50
     Davidson diagonalization with overlap
     ethr =  2.78E-09,  avg # of iterations =  1.0

     total cpu time spent up to now is        8.6 secs

     total energy              =    -501.55219208 Ry
     estimated scf accuracy    <       0.00000716 Ry

     iteration # 39     ecut=    30.00 Ry     beta= 0.50
     Davidson diagonalization with overlap
     ethr =  2.78E-09,  avg # of iterations =  1.0

     total cpu time spent up to now is        8.7 secs

     total energy              =    -501.55219187 Ry
     estimated scf accuracy    <       0.00000680 Ry

     iteration # 40     ecut=    30.00 Ry     beta= 0.50
     Davidson diagonalization with overlap
     ethr =  2.66E-09,  avg # of iterations =  1.0

     total cpu time spent up to now is        8.7 secs

     total energy              =    -501.55219179 Ry
     estimated scf accuracy    <       0.00000580 Ry

     iteration # 41     ecut=    30.00 Ry     beta= 0.50
     Davidson diagonalization with overlap
     ethr =  2.27E-09,  avg # of iterations =  1.0

     total cpu time spent up to now is        8.8 secs

     total energy              =    -501.55219175 Ry
     estimated scf accuracy    <       0.00000536 Ry

     iteration # 42     ecut=    30.00 Ry     beta= 0.50
     Davidson diagonalization with overlap
     ethr =  2.09E-09,  avg # of iterations =  1.0

     total cpu time spent up to now is        8.9 secs

     total energy              =    -501.55218997 Ry
     estimated scf accuracy    <       0.00000492 Ry

     iteration # 43     ecut=    30.00 Ry     beta= 0.50
     Davidson diagonalization with overlap
     c_bands:  1 eigenvalues not converged
     ethr =  1.92E-09,  avg # of iterations = 20.0

     total cpu time spent up to now is        9.0 secs

     total energy              =    -501.55218790 Ry
     estimated scf accuracy    <       0.00023539 Ry

     iteration # 44     ecut=    30.00 Ry     beta= 0.50
     Davidson diagonalization with overlap
     c_bands:  1 eigenvalues not converged
     ethr =  1.92E-09,  avg # of iterations = 20.0

     total cpu time spent up to now is        9.2 secs

     total energy              =    -501.55218769 Ry
     estimated scf accuracy    <       0.00012152 Ry

     iteration # 45     ecut=    30.00 Ry     beta= 0.50
     Davidson diagonalization with overlap
     c_bands:  1 eigenvalues not converged
     ethr =  1.92E-09,  avg # of iterations = 20.0

     total cpu time spent up to now is        9.4 secs

     total energy              =    -501.55218842 Ry
     estimated scf accuracy    <       0.00007304 Ry

     iteration # 46     ecut=    30.00 Ry     beta= 0.50
     Davidson diagonalization with overlap
     c_bands:  1 eigenvalues not converged
     ethr =  1.92E-09,  avg # of iterations = 20.0

     total cpu time spent up to now is        9.5 secs

     total energy              =    -501.55218928 Ry
     estimated scf accuracy    <       0.00004288 Ry

     iteration # 47     ecut=    30.00 Ry     beta= 0.50
     Davidson diagonalization with overlap
     c_bands:  1 eigenvalues not converged
     ethr =  1.92E-09,  avg # of iterations = 20.0

     total cpu time spent up to now is        9.6 secs

     total energy              =    -501.55219022 Ry
     estimated scf accuracy    <       0.00002291 Ry

     iteration # 48     ecut=    30.00 Ry     beta= 0.50
     Davidson diagonalization with overlap
     c_bands:  1 eigenvalues not converged
     ethr =  1.92E-09,  avg # of iterations = 20.0

     total cpu time spent up to now is        9.8 secs

     total energy              =    -501.55219110 Ry
     estimated scf accuracy    <       0.00001379 Ry

     iteration # 49     ecut=    30.00 Ry     beta= 0.50
     Davidson diagonalization with overlap
     c_bands:  1 eigenvalues not converged
     ethr =  1.92E-09,  avg # of iterations = 20.0

     total cpu time spent up to now is        9.9 secs

     total energy              =    -501.55219147 Ry
     estimated scf accuracy    <       0.00001012 Ry

     iteration # 50     ecut=    30.00 Ry     beta= 0.50
     Davidson diagonalization with overlap
     c_bands:  1 eigenvalues not converged
     ethr =  1.92E-09,  avg # of iterations = 20.0

     total cpu time spent up to now is       10.1 secs

     total energy              =    -501.55219163 Ry
     estimated scf accuracy    <       0.00000740 Ry

     iteration # 51     ecut=    30.00 Ry     beta= 0.50
     Davidson diagonalization with overlap
     ethr =  1.92E-09,  avg # of iterations =  2.0

     total cpu time spent up to now is       10.2 secs

     total energy              =    -501.55219170 Ry
     estimated scf accuracy    <       0.00000748 Ry

     iteration # 52     ecut=    30.00 Ry     beta= 0.50
     Davidson diagonalization with overlap
     ethr =  1.92E-09,  avg # of iterations =  1.0

     total cpu time spent up to now is       10.2 secs

     total energy              =    -501.55219162 Ry
     estimated scf accuracy    <       0.00000781 Ry

     iteration # 53     ecut=    30.00 Ry     beta= 0.50
     Davidson diagonalization with overlap
     ethr =  1.92E-09,  avg # of iterations =  1.0

     total cpu time spent up to now is       10.3 secs

     total energy              =    -501.55219168 Ry
     estimated scf accuracy    <       0.00000754 Ry

     iteration # 54     ecut=    30.00 Ry     beta= 0.50
     Davidson diagonalization with overlap
     ethr =  1.92E-09,  avg # of iterations =  1.0

     total cpu time spent up to now is       10.4 secs

     total energy              =    -501.55219201 Ry
     estimated scf accuracy    <       0.00000770 Ry

     iteration # 55     ecut=    30.00 Ry     beta= 0.50
     Davidson diagonalization with overlap
     ethr =  1.92E-09,  avg # of iterations =  1.0

     total cpu time spent up to now is       10.4 secs

     total energy              =    -501.55219220 Ry
     estimated scf accuracy    <       0.00000895 Ry

     iteration # 56     ecut=    30.00 Ry     beta= 0.50
     Davidson diagonalization with overlap
     ethr =  1.92E-09,  avg # of iterations =  3.0

     total cpu time spent up to now is       10.5 secs

     total energy              =    -501.55219230 Ry
     estimated scf accuracy    <       0.00001281 Ry

     iteration # 57     ecut=    30.00 Ry     beta= 0.50
     Davidson diagonalization with overlap
     ethr =  1.92E-09,  avg # of iterations =  2.0

     total cpu time spent up to now is       10.6 secs

     total energy              =    -501.55218899 Ry
     estimated scf accuracy    <       0.00001271 Ry

     iteration # 58     ecut=    30.00 Ry     beta= 0.50
     Davidson diagonalization with overlap
     c_bands:  1 eigenvalues not converged
     ethr =  1.92E-09,  avg # of iterations = 20.0

     total cpu time spent up to now is       10.8 secs

     total energy              =    -501.55218165 Ry
     estimated scf accuracy    <       0.00041782 Ry

     iteration # 59     ecut=    30.00 Ry     beta= 0.50
     Davidson diagonalization with overlap
     c_bands:  1 eigenvalues not converged
     ethr =  1.92E-09,  avg # of iterations = 20.0

     total cpu time spent up to now is       11.0 secs

     total energy              =    -501.55219141 Ry
     estimated scf accuracy    <       0.00001898 Ry

     iteration # 60     ecut=    30.00 Ry     beta= 0.50
     Davidson diagonalization with overlap
     ethr =  1.92E-09,  avg # of iterations = 14.0

     total cpu time spent up to now is       11.1 secs

     total energy              =    -501.55219166 Ry
     estimated scf accuracy    <       0.00001453 Ry

     iteration # 61     ecut=    30.00 Ry     beta= 0.50
     Davidson diagonalization with overlap
     ethr =  1.92E-09,  avg # of iterations =  1.0

     total cpu time spent up to now is       11.2 secs

     total energy              =    -501.55219161 Ry
     estimated scf accuracy    <       0.00001383 Ry

     iteration # 62     ecut=    30.00 Ry     beta= 0.50
     Davidson diagonalization with overlap
     ethr =  1.92E-09,  avg # of iterations =  1.0

     total cpu time spent up to now is       11.2 secs

     total energy              =    -501.55219134 Ry
     estimated scf accuracy    <       0.00001333 Ry

     iteration # 63     ecut=    30.00 Ry     beta= 0.50
     Davidson diagonalization with overlap
     ethr =  1.92E-09,  avg # of iterations =  1.0

     total cpu time spent up to now is       11.3 secs

     total energy              =    -501.55219081 Ry
     estimated scf accuracy    <       0.00001214 Ry

     iteration # 64     ecut=    30.00 Ry     beta= 0.50
     Davidson diagonalization with overlap
     ethr =  1.92E-09,  avg # of iterations =  2.0

     total cpu time spent up to now is       11.4 secs

     total energy              =    -501.55219047 Ry
     estimated scf accuracy    <       0.00000994 Ry

     iteration # 65     ecut=    30.00 Ry     beta= 0.50
     Davidson diagonalization with overlap
     c_bands:  1 eigenvalues not converged
     ethr =  1.92E-09,  avg # of iterations = 20.0

     total cpu time spent up to now is       11.5 secs

     total energy              =    -501.55219223 Ry
     estimated scf accuracy    <       0.00001670 Ry

     iteration # 66     ecut=    30.00 Ry     beta= 0.50
     Davidson diagonalization with overlap
     ethr =  1.92E-09,  avg # of iterations = 17.0

     total cpu time spent up to now is       11.7 secs

     total energy              =    -501.55219170 Ry
     estimated scf accuracy    <       0.00001646 Ry

     iteration # 67     ecut=    30.00 Ry     beta= 0.50
     Davidson diagonalization with overlap
     ethr =  1.92E-09,  avg # of iterations =  1.0

     total cpu time spent up to now is       11.7 secs

     total energy              =    -501.55219143 Ry
     estimated scf accuracy    <       0.00001365 Ry

     iteration # 68     ecut=    30.00 Ry     beta= 0.50
     Davidson diagonalization with overlap
     ethr =  1.92E-09,  avg # of iterations =  1.0

     total cpu time spent up to now is       11.8 secs

     total energy              =    -501.55219138 Ry
     estimated scf accuracy    <       0.00001234 Ry

     iteration # 69     ecut=    30.00 Ry     beta= 0.50
     Davidson diagonalization with overlap
     ethr =  1.92E-09,  avg # of iterations =  1.0

     total cpu time spent up to now is       11.9 secs

     total energy              =    -501.55219152 Ry
     estimated scf accuracy    <       0.00001189 Ry

     iteration # 70     ecut=    30.00 Ry     beta= 0.50
     Davidson diagonalization with overlap
     ethr =  1.92E-09,  avg # of iterations =  1.0

     total cpu time spent up to now is       11.9 secs

     total energy              =    -501.55219149 Ry
     estimated scf accuracy    <       0.00001237 Ry

     iteration # 71     ecut=    30.00 Ry     beta= 0.50
     Davidson diagonalization with overlap
     ethr =  1.92E-09,  avg # of iterations =  1.0

     total cpu time spent up to now is       12.0 secs

     total energy              =    -501.55219139 Ry
     estimated scf accuracy    <       0.00001216 Ry

     iteration # 72     ecut=    30.00 Ry     beta= 0.50
     Davidson diagonalization with overlap
     ethr =  1.92E-09,  avg # of iterations =  1.0

     total cpu time spent up to now is       12.1 secs

     total energy              =    -501.55219120 Ry
     estimated scf accuracy    <       0.00001167 Ry

     iteration # 73     ecut=    30.00 Ry     beta= 0.50
     Davidson diagonalization with overlap
     ethr =  1.92E-09,  avg # of iterations =  1.0

     total cpu time spent up to now is       12.1 secs

     total energy              =    -501.55218701 Ry
     estimated scf accuracy    <       0.00001070 Ry

     iteration # 74     ecut=    30.00 Ry     beta= 0.50
     Davidson diagonalization with overlap
     c_bands:  1 eigenvalues not converged
     ethr =  1.92E-09,  avg # of iterations = 20.0

     total cpu time spent up to now is       12.3 secs

     total energy              =    -501.55218643 Ry
     estimated scf accuracy    <       0.00078142 Ry

     iteration # 75     ecut=    30.00 Ry     beta= 0.50
     Davidson diagonalization with overlap
     c_bands:  1 eigenvalues not converged
     ethr =  1.92E-09,  avg # of iterations = 20.0

     total cpu time spent up to now is       12.5 secs

     total energy              =    -501.55218776 Ry
     estimated scf accuracy    <       0.00022928 Ry

     iteration # 76     ecut=    30.00 Ry     beta= 0.50
     Davidson diagonalization with overlap
     c_bands:  1 eigenvalues not converged
     ethr =  1.92E-09,  avg # of iterations = 20.0

     total cpu time spent up to now is       12.7 secs

     total energy              =    -501.55218645 Ry
     estimated scf accuracy    <       0.00016724 Ry

     iteration # 77     ecut=    30.00 Ry     beta= 0.50
     Davidson diagonalization with overlap
     c_bands:  1 eigenvalues not converged
     ethr =  1.92E-09,  avg # of iterations = 20.0

     total cpu time spent up to now is       12.8 secs

     total energy              =    -501.55218892 Ry
     estimated scf accuracy    <       0.00006477 Ry

     iteration # 78     ecut=    30.00 Ry     beta= 0.50
     Davidson diagonalization with overlap
     c_bands:  1 eigenvalues not converged
     ethr =  1.92E-09,  avg # of iterations = 20.0

     total cpu time spent up to now is       13.0 secs

     total energy              =    -501.55218992 Ry
     estimated scf accuracy    <       0.00005377 Ry

     iteration # 79     ecut=    30.00 Ry     beta= 0.50
     Davidson diagonalization with overlap
     c_bands:  1 eigenvalues not converged
     ethr =  1.92E-09,  avg # of iterations = 20.0

     total cpu time spent up to now is       13.1 secs

     total energy              =    -501.55219066 Ry
     estimated scf accuracy    <       0.00002227 Ry

     iteration # 80     ecut=    30.00 Ry     beta= 0.50
     Davidson diagonalization with overlap
     c_bands:  1 eigenvalues not converged
     ethr =  1.92E-09,  avg # of iterations = 20.0

     total cpu time spent up to now is       13.2 secs

     total energy              =    -501.55219115 Ry
     estimated scf accuracy    <       0.00001823 Ry

     iteration # 81     ecut=    30.00 Ry     beta= 0.50
     Davidson diagonalization with overlap
     ethr =  1.92E-09,  avg # of iterations =  2.0

     total cpu time spent up to now is       13.3 secs

     total energy              =    -501.55219128 Ry
     estimated scf accuracy    <       0.00001772 Ry

     iteration # 82     ecut=    30.00 Ry     beta= 0.50
     Davidson diagonalization with overlap
     ethr =  1.92E-09,  avg # of iterations =  2.0

     total cpu time spent up to now is       13.4 secs

     total energy              =    -501.55219092 Ry
     estimated scf accuracy    <       0.00001780 Ry

     iteration # 83     ecut=    30.00 Ry     beta= 0.50
     Davidson diagonalization with overlap
     ethr =  1.92E-09,  avg # of iterations =  3.0

     total cpu time spent up to now is       13.5 secs

     total energy              =    -501.55219072 Ry
     estimated scf accuracy    <       0.00001670 Ry

     iteration # 84     ecut=    30.00 Ry     beta= 0.50
     Davidson diagonalization with overlap
     ethr =  1.92E-09,  avg # of iterations =  3.0

     total cpu time spent up to now is       13.5 secs

     total energy              =    -501.55219079 Ry
     estimated scf accuracy    <       0.00001533 Ry

     iteration # 85     ecut=    30.00 Ry     beta= 0.50
     Davidson diagonalization with overlap
     ethr =  1.92E-09,  avg # of iterations =  2.0

     total cpu time spent up to now is       13.6 secs

     total energy              =    -501.55219085 Ry
     estimated scf accuracy    <       0.00001495 Ry

     iteration # 86     ecut=    30.00 Ry     beta= 0.50
     Davidson diagonalization with overlap
     ethr =  1.92E-09,  avg # of iterations =  1.0

     total cpu time spent up to now is       13.7 secs

     total energy              =    -501.55219084 Ry
     estimated scf accuracy    <       0.00001483 Ry

     iteration # 87     ecut=    30.00 Ry     beta= 0.50
     Davidson diagonalization with overlap
     ethr =  1.92E-09,  avg # of iterations =  3.0

     total cpu time spent up to now is       13.8 secs

     total energy              =    -501.55218568 Ry
     estimated scf accuracy    <       0.00001442 Ry

     iteration # 88     ecut=    30.00 Ry     beta= 0.50
     Davidson diagonalization with overlap
     c_bands:  1 eigenvalues not converged
     ethr =  1.92E-09,  avg # of iterations = 20.0

     total cpu time spent up to now is       13.9 secs

     total energy              =    -501.55217473 Ry
     estimated scf accuracy    <       0.00080216 Ry

     iteration # 89     ecut=    30.00 Ry     beta= 0.50
     Davidson diagonalization with overlap
     c_bands:  1 eigenvalues not converged
     ethr =  1.92E-09,  avg # of iterations = 20.0

     total cpu time spent up to now is       14.1 secs

     total energy              =    -501.55218808 Ry
     estimated scf accuracy    <       0.00014051 Ry

     iteration # 90     ecut=    30.00 Ry     beta= 0.50
     Davidson diagonalization with overlap
     c_bands:  1 eigenvalues not converged
     ethr =  1.92E-09,  avg # of iterations = 20.0

     total cpu time spent up to now is       14.3 secs

     total energy              =    -501.55218899 Ry
     estimated scf accuracy    <       0.00006691 Ry

     iteration # 91     ecut=    30.00 Ry     beta= 0.50
     Davidson diagonalization with overlap
     c_bands:  1 eigenvalues not converged
     ethr =  1.92E-09,  avg # of iterations = 20.0

     total cpu time spent up to now is       14.4 secs

     total energy              =    -501.55219043 Ry
     estimated scf accuracy    <       0.00004809 Ry

     iteration # 92     ecut=    30.00 Ry     beta= 0.50
     Davidson diagonalization with overlap
     c_bands:  1 eigenvalues not converged
     ethr =  1.92E-09,  avg # of iterations = 20.0

     total cpu time spent up to now is       14.6 secs

     total energy              =    -501.55219073 Ry
     estimated scf accuracy    <       0.00003228 Ry

     iteration # 93     ecut=    30.00 Ry     beta= 0.50
     Davidson diagonalization with overlap
     c_bands:  1 eigenvalues not converged
     ethr =  1.92E-09,  avg # of iterations = 20.0

     total cpu time spent up to now is       14.7 secs

     total energy              =    -501.55219109 Ry
     estimated scf accuracy    <       0.00002342 Ry

     iteration # 94     ecut=    30.00 Ry     beta= 0.50
     Davidson diagonalization with overlap
     c_bands:  1 eigenvalues not converged
     ethr =  1.92E-09,  avg # of iterations = 20.0

     total cpu time spent up to now is       14.9 secs

     total energy              =    -501.55219123 Ry
     estimated scf accuracy    <       0.00001572 Ry

     iteration # 95     ecut=    30.00 Ry     beta= 0.50
     Davidson diagonalization with overlap
     c_bands:  1 eigenvalues not converged
     ethr =  1.92E-09,  avg # of iterations = 20.0

     total cpu time spent up to now is       15.0 secs

     total energy              =    -501.55219130 Ry
     estimated scf accuracy    <       0.00001054 Ry

     iteration # 96     ecut=    30.00 Ry     beta= 0.50
     Davidson diagonalization with overlap
     c_bands:  1 eigenvalues not converged
     ethr =  1.92E-09,  avg # of iterations = 20.0

     total cpu time spent up to now is       15.2 secs

     total energy              =    -501.55219130 Ry
     estimated scf accuracy    <       0.00000543 Ry

     iteration # 97     ecut=    30.00 Ry     beta= 0.50
     Davidson diagonalization with overlap
     c_bands:  1 eigenvalues not converged
     ethr =  1.92E-09,  avg # of iterations = 20.0

     total cpu time spent up to now is       15.3 secs

     total energy              =    -501.55219148 Ry
     estimated scf accuracy    <       0.00000190 Ry

     iteration # 98     ecut=    30.00 Ry     beta= 0.50
     Davidson diagonalization with overlap
     c_bands:  1 eigenvalues not converged
     ethr =  7.42E-10,  avg # of iterations = 20.0

     total cpu time spent up to now is       15.4 secs

     End of self-consistent calculation

          k = 0.0000 0.0000 0.0000 ( 11288 PWs)   bands (ev):

    -5.2990  -4.3121  -4.1988  -4.1575  -4.0657  -3.9276  -3.8483  -3.2480
    -3.1744  -3.0746  -2.9930  -2.9403  -2.9301  -2.8377  -2.8013  -2.7259
    -2.6064  -2.5305  -2.4805  -2.0392  -1.9524  -1.8364  -1.7116  -1.6373
    -1.4866  -1.3378  -1.1244  -0.9247  -0.6383  -0.5849  -0.4574  -0.3682
    -0.2045  -0.0340  -0.0181   0.0902   0.1663   0.2883   0.3418   0.3869
     0.4611   0.5657   0.5836   0.6618   0.6938   0.8427   0.9058   1.0885
     1.1248   1.1831   1.3100   1.4133   1.4411   1.5737   1.6377   1.6664
     1.9167   2.0019   2.0664   2.1391   2.2879   2.3090   2.4331   2.5096
     2.5542   2.6314   2.7183   2.7892   2.8229   2.9485   2.9848   3.0205
     3.1366   3.2476   3.3235   3.4229   3.4927   3.5450   3.6189   3.8037
     4.0609   4.2029   4.2982   4.4034   4.4935   4.6070   4.7131   4.7710
     4.8768   4.8908   4.9694   5.0829   5.1213   5.2083   5.2631   5.3074
     5.3566   5.3801   5.4111   5.4988   5.5555   5.5767   5.6918   5.7686
     5.8455   5.8853   5.9489   5.9956   6.0572   6.0856   6.2011   6.2214
     6.2569   6.3338   6.4442   6.4778   6.5579   6.5678   6.6131   6.6498
     6.7451   6.7706   6.8329   6.8914   6.9134   7.0100   7.0623   7.1727

     highest occupied level (ev):     7.1727

!    total energy              =    -501.55219145 Ry
     estimated scf accuracy    <       0.00000035 Ry

     The total energy is the sum of the following terms:
     one-electron contribution =     192.48411683 Ry
     hartree contribution      =      22.74828086 Ry
     xc contribution           =    -150.97784607 Ry
     ewald contribution        =    -565.80674308 Ry

     convergence has been achieved in  98 iterations

     Forces acting on atoms (cartesian axes, Ry/au):

     atom    1 type  1   force =    -0.00520430   -0.00561171   -0.01670383
     atom    2 type  1   force =    -0.01138786    0.00178609   -0.01855359
     atom    3 type  1   force =     0.00114242   -0.00598583    0.01291490
     atom    4 type  1   force =     0.00576736   -0.01267202   -0.00320016
     atom    5 type  1   force =    -0.04795245    0.00435046   -0.01256337
     atom    6 type  1   force =     0.00116903    0.03018236    0.03880579
     atom    7 type  1   force =     0.02331979    0.04164376   -0.01377196
     atom    8 type  1   force =    -0.03311466    0.03232017    0.02653784
     atom    9 type  1   force =    -0.00048293   -0.00983975    0.00787205
     atom   10 type  1   force =    -0.01772137   -0.00563973    0.00063608
     atom   11 type  1   force =     0.04046927   -0.02677860   -0.00464841
     atom   12 type  1   force =     0.01632156    0.01684986    0.00099865
     atom   13 type  1   force =     0.00150652    0.00915203    0.01080742
     atom   14 type  1   force =    -0.03264654   -0.00124358    0.01556718
     atom   15 type  1   force =    -0.00985338   -0.03424711    0.00295247
     atom   16 type  1   force =    -0.01526892   -0.01140836   -0.01716066
     atom   17 type  1   force =    -0.01094441    0.00825600   -0.01413075
     atom   18 type  1   force =     0.00727609    0.02474346   -0.03517754
     atom   19 type  1   force =    -0.05775612    0.02469036   -0.00874681
     atom   20 type  1   force =     0.00830182   -0.01570493    0.00646060
     atom   21 type  1   force =     0.00979874    0.02310392    0.01015959
     atom   22 type  1   force =     0.00889585    0.00449901    0.00995102
     atom   23 type  1   force =     0.02352998   -0.01440962   -0.00208860
     atom   24 type  1   force =     0.06467160   -0.00443171    0.02353798
     atom   25 type  1   force =    -0.04057785    0.05187388    0.01296708
     atom   26 type  1   force =     0.02167145    0.01770381    0.01699352
     atom   27 type  1   force =     0.02034081    0.01237887   -0.04280503
     atom   28 type  1   force =    -0.03325260    0.01049229   -0.02768591
     atom   29 type  1   force =     0.01421078   -0.00705571   -0.00204040
     atom   30 type  1   force =     0.03559586   -0.02650151    0.03271694
     atom   31 type  1   force =     0.00584999    0.01120401    0.03030901
     atom   32 type  1   force =     0.00377566    0.01646587    0.00121756
     atom   33 type  1   force =    -0.02143924   -0.04223509   -0.02647672
     atom   34 type  1   force =    -0.01923406   -0.00897843    0.00432446
     atom   35 type  1   force =     0.00218175    0.00230819   -0.01377727
     atom   36 type  1   force =    -0.01619418    0.02592199   -0.01367140
     atom   37 type  1   force =    -0.00805161   -0.00299599   -0.00408417
     atom   38 type  1   force =     0.02462736   -0.03346072   -0.00890418
     atom   39 type  1   force =    -0.01904502    0.01642714    0.00024002
     atom   40 type  1   force =    -0.03150365    0.00212885   -0.00943826
     atom   41 type  1   force =     0.03013272   -0.00554954    0.01126620
     atom   42 type  1   force =     0.03103018    0.01888414   -0.04527550
     atom   43 type  1   force =    -0.00779892    0.02464484   -0.02967824
     atom   44 type  1   force =    -0.01271229   -0.00075425   -0.00692368
     atom   45 type  1   force =     0.06285423   -0.01691753    0.04297445
     atom   46 type  1   force =    -0.01229832    0.00152509   -0.02452568
     atom   47 type  1   force =     0.01224418    0.02274919    0.00356245
     atom   48 type  1   force =     0.00485549    0.02002424    0.02621550
     atom   49 type  1   force =     0.00828791   -0.02480484   -0.04849560
     atom   50 type  1   force =     0.00254086   -0.02598924    0.00896605
     atom   51 type  1   force =     0.04844818   -0.07001826    0.05389159
     atom   52 type  1   force =    -0.00118019    0.00373766   -0.00048189
     atom   53 type  1   force =     0.00133229    0.02451012   -0.01562449
     atom   54 type  1   force =    -0.02007516   -0.00886421    0.02283410
     atom   55 type  1   force =    -0.01431671   -0.00951492   -0.00876883
     atom   56 type  1   force =    -0.02340068    0.02292733    0.00214743
     atom   57 type  1   force =    -0.00765834   -0.03513086    0.04312424
     atom   58 type  1   force =    -0.00243318    0.01197842    0.00555457
     atom   59 type  1   force =    -0.04172473   -0.03173488   -0.03416038
     atom   60 type  1   force =     0.00010388    0.02592962    0.00298558
     atom   61 type  1   force =    -0.00915507    0.00206374    0.03820897
     atom   62 type  1   force =    -0.00557052   -0.01789952   -0.00238488
     atom   63 type  1   force =     0.02642454   -0.01994638   -0.00479993
     atom   64 type  1   force =     0.02127713   -0.03113194   -0.01095317

     Total force =     0.314630     Total SCF correction =     0.000851


     Computing stress (Cartesian axis) and pressure

          total   stress  (Ry/bohr**3)                   (kbar)     P=      -34.77
  -0.00014829   0.00001798  -0.00002959          -21.81        2.64       -4.35
   0.00001798  -0.00034109  -0.00010091            2.64      -50.18      -14.85
  -0.00002959  -0.00010091  -0.00021971           -4.35      -14.85      -32.32

 
     init_run     :      0.91s CPU      4.20s WALL (       1 calls)
     electrons    :     10.57s CPU     11.19s WALL (       1 calls)
     forces       :      0.03s CPU      0.03s WALL (       1 calls)
     stress       :      0.12s CPU      0.12s WALL (       1 calls)

     Called by init_run:
     wfcinit      :      0.42s CPU      3.54s WALL (       1 calls)
                                        3.54s GPU  (       1 calls)
     potinit      :      0.03s CPU      0.12s WALL (       1 calls)
     hinit0       :      0.45s CPU      0.47s WALL (       1 calls)

     Called by electrons:
     c_bands      :      7.53s CPU      7.86s WALL (      99 calls)
     sum_band     :      1.40s CPU      1.61s WALL (      99 calls)
     v_of_rho     :      0.58s CPU      0.70s WALL (      99 calls)
     mix_rho      :      0.86s CPU      0.90s WALL (      99 calls)

     Called by c_bands:
     init_us_2    :      0.24s CPU      0.27s WALL (     199 calls)
     init_us_2:gp :      0.24s CPU      0.26s WALL (     199 calls)
     regterg      :      6.85s CPU      7.14s WALL (      99 calls)

     Called by *egterg:
     rdiaghg      :      3.50s CPU      4.26s WALL (    1118 calls)
                                        4.11s GPU  (    1118 calls)
     h_psi        :      2.82s CPU      5.43s WALL (    1120 calls)
                                        5.41s GPU  (    1120 calls)
     g_psi        :      0.00s CPU      0.02s WALL (    1020 calls)
                                        0.02s GPU  (    1020 calls)

     Called by h_psi:
     h_psi:calbec :      0.66s CPU      3.12s WALL (    1120 calls)
                                        3.12s GPU  (    1120 calls)
     vloc_psi     :      1.53s CPU      1.68s WALL (    1120 calls)
                                        1.66s GPU  (    1120 calls)
     add_vuspsi   :      0.49s CPU      0.58s WALL (    1120 calls)
                                        0.57s GPU  (    1120 calls)

     General routines
     calbec       :      0.66s CPU      3.11s WALL (    1125 calls)
     fft          :      0.93s CPU      1.10s WALL (     799 calls)
                                        0.18s GPU  (     501 calls)
     ffts         :      0.15s CPU      0.18s WALL (      99 calls)
     fftw         :      1.83s CPU      2.29s WALL (    9910 calls)
                                        1.99s GPU  (    9910 calls)
 
     Parallel routines
 
     PWSCF        :     11.67s CPU     15.61s WALL

 
   This run was terminated on:  15:11:12   9May2023            

=------------------------------------------------------------------------------=
   JOB DONE.
=------------------------------------------------------------------------------=
