An instance of this daemon is already running
An instance of this daemon is already running

     Program PWSCF v.7.1 starts on  9May2023 at 15:22:20 

     This program is part of the open-source Quantum ESPRESSO suite
     for quantum simulation of materials; please cite
         "P. Giannozzi et al., J. Phys.:Condens. Matter 21 395502 (2009);
         "P. Giannozzi et al., J. Phys.:Condens. Matter 29 465901 (2017);
         "P. Giannozzi et al., J. Chem. Phys. 152 154105 (2020);
          URL http://www.quantum-espresso.org", 
     in publications or presentations arising from this work. More details at
     http://www.quantum-espresso.org/quote

     Parallel version (MPI & OpenMP), running on       4 processor cores
     Number of MPI processes:                 4
     Threads/MPI process:                     1

     MPI processes distributed on     1 nodes
     48426 MiB available memory on the printing compute node when the environment starts
 
     Reading input from pw-si-84.in
Warning: card &CELL ignored
Warning: card / ignored

     Current dimensions of program PWSCF are:
     Max number of different atomic species (ntypx) = 10
     Max number of k-points (npk) =  40000
     Max angular momentum in pseudopotentials (lmaxx) =  4

     IMPORTANT: XC functional enforced from input :
     Exchange-correlation= PBE
                           (   1   4   3   4   0   0   0)
     Any further DFT definition will be discarded
     Please, verify this is what you really want


     gamma-point specific algorithms are used
 
     K-points division:     npool     =       2
     R & G space division:  proc/nbgrp/npool/nimage =       2
     Subspace diagonalization in iterative solution of the eigenvalue problem:
     a serial algorithm will be used

     Message from routine divide_et_impera:
     suboptimal parallelization: some nodes have no k-points
 
     Parallelization info
     --------------------
     sticks:   dense  smooth     PW     G-vecs:    dense   smooth      PW
     Min        1953    1953    519                91815    91815   12442
     Max        1956    1956    522                91820    91820   12443
     Sum        3909    3909   1041               183635   183635   24885
 
     Using Slab Decomposition
 


     bravais-lattice index     =            0
     lattice parameter (alat)  =      20.2189  a.u.
     unit-cell volume          =    8265.5590 (a.u.)^3
     number of atoms/cell      =           64
     number of atomic types    =            1
     number of electrons       =       256.00
     number of Kohn-Sham states=          128
     kinetic-energy cutoff     =      30.0000  Ry
     charge density cutoff     =     120.0000  Ry
     scf convergence threshold =      1.0E-06
     mixing beta               =       0.5000
     number of iterations used =            8  plain     mixing
     Exchange-correlation= PBE
                           (   1   4   3   4   0   0   0)

     GPU acceleration is ACTIVE.
     GPU-aware MPI enabled

     Message from routine print_cuda_info:
     High GPU oversubscription detected. Are you sure this is what you want?

     celldm(1)=  20.218895  celldm(2)=   0.000000  celldm(3)=   0.000000
     celldm(4)=   0.000000  celldm(5)=   0.000000  celldm(6)=   0.000000

     crystal axes: (cart. coord. in units of alat)
               a(1) = (   1.000000   0.000000   0.000000 )  
               a(2) = (   0.000000   1.000000   0.000000 )  
               a(3) = (   0.000000   0.000000   1.000000 )  

     reciprocal axes: (cart. coord. in units 2 pi/alat)
               b(1) = (  1.000000  0.000000  0.000000 )  
               b(2) = (  0.000000  1.000000  0.000000 )  
               b(3) = (  0.000000  0.000000  1.000000 )  


     PseudoPot. # 1 for Si read from file:
     /home/ppiaggi/pseudos/Si_ONCV_PBE_sr.upf
     MD5 check sum: 8553c464762ac42b85b1eed164b4d029
     Pseudo is Norm-conserving, Zval =  4.0
     Generated using ONCVPSP code by D. R. Hamann
     Using radial grid of 1510 points,  4 beta functions with: 
                l(1) =   0
                l(2) =   0
                l(3) =   1
                l(4) =   1

     atomic species   valence    mass     pseudopotential
        Si             4.00    28.08500     Si( 1.00)

     No symmetry found



   Cartesian axes

     site n.     atom                  positions (alat units)
         1           Si  tau(   1) = (   0.9767730   0.0793665   0.8807830  )
         2           Si  tau(   2) = (   0.4915020   0.1999310   0.7613090  )
         3           Si  tau(   3) = (   0.6647580   0.4818350   0.2697240  )
         4           Si  tau(   4) = (   0.4778910   0.9519030   0.8816820  )
         5           Si  tau(   5) = (   0.0033554   0.7007060   0.5238750  )
         6           Si  tau(   6) = (   0.6459000   0.8484740   0.6746470  )
         7           Si  tau(   7) = (   0.7979990   0.3400010   0.4338710  )
         8           Si  tau(   8) = (   0.1261150   0.7475630   0.2805460  )
         9           Si  tau(   9) = (   0.7652150   0.5941130   0.7947180  )
        10           Si  tau(  10) = (   0.1948680   0.6338680   0.0651892  )
        11           Si  tau(  11) = (   0.5067980   0.6209610   0.0683719  )
        12           Si  tau(  12) = (   0.5012580   0.3593090   0.4118630  )
        13           Si  tau(  13) = (   0.6357800   0.4760980   0.6010620  )
        14           Si  tau(  14) = (   0.1951060   0.0071465   0.5669260  )
        15           Si  tau(  15) = (   0.7398500   0.2411500   0.7114360  )
        16           Si  tau(  16) = (   0.2717620   0.0462748   0.7732750  )
        17           Si  tau(  17) = (   0.0265655   0.5293020   0.9644570  )
        18           Si  tau(  18) = (   0.7126120   0.6790230   0.1229420  )
        19           Si  tau(  19) = (   0.7531730   0.0351412   0.7875930  )
        20           Si  tau(  20) = (   0.9327100   0.6089610   0.2517730  )
        21           Si  tau(  21) = (   0.7626550   0.6276230   0.4407700  )
        22           Si  tau(  22) = (   0.9352480   0.4108150   0.1154180  )
        23           Si  tau(  23) = (   0.8134410   0.1462780   0.3002020  )
        24           Si  tau(  24) = (   0.9575540   0.2361670   0.6453880  )
        25           Si  tau(  25) = (   0.6075000   0.1833120   0.4919990  )
        26           Si  tau(  26) = (   0.8585050   0.2011430   0.0905116  )
        27           Si  tau(  27) = (   0.2657230   0.9379510   0.1873650  )
        28           Si  tau(  28) = (   0.8773440   0.7998820   0.7021440  )
        29           Si  tau(  29) = (   0.2456290   0.7798600   0.8847550  )
        30           Si  tau(  30) = (   0.5452000   0.4045730   0.9265880  )
        31           Si  tau(  31) = (   0.9837570   0.9196330   0.1423230  )
        32           Si  tau(  32) = (   0.7227600   0.9092730   0.1739600  )
        33           Si  tau(  33) = (   0.5543740   0.6971990   0.8346820  )
        34           Si  tau(  34) = (   0.3888700   0.9156350   0.3865140  )
        35           Si  tau(  35) = (   0.3190780   0.6288460   0.7228580  )
        36           Si  tau(  36) = (   0.1518620   0.4666330   0.7969520  )
        37           Si  tau(  37) = (   0.3134400   0.3595590   0.9694350  )
        38           Si  tau(  38) = (   0.0129878   0.4615490   0.4160320  )
        39           Si  tau(  39) = (   0.0427623   0.8692890   0.8881060  )
        40           Si  tau(  40) = (   0.3384230   0.2760640   0.5760750  )
        41           Si  tau(  41) = (   0.3512680   0.5268500   0.1860090  )
        42           Si  tau(  42) = (   0.0924573   0.1083970   0.0736576  )
        43           Si  tau(  43) = (   0.9489250   0.5010100   0.6479950  )
        44           Si  tau(  44) = (   0.3529610   0.3164460   0.2387300  )
        45           Si  tau(  45) = (   0.8176430   0.3919700   0.8672860  )
        46           Si  tau(  46) = (   0.4802440   0.1514780   0.1345300  )
        47           Si  tau(  47) = (   0.6497390   0.3214430   0.1143550  )
        48           Si  tau(  48) = (   0.4596530   0.4696140   0.7182150  )
        49           Si  tau(  49) = (   0.5077720   0.0231078   0.6095260  )
        50           Si  tau(  50) = (   0.2089800   0.4865040   0.5096950  )
        51           Si  tau(  51) = (   0.8795540   0.6895250   0.9637170  )
        52           Si  tau(  52) = (   0.6783370   0.0427909   0.0086482  )
        53           Si  tau(  53) = (   0.9878170   0.0113216   0.5584890  )
        54           Si  tau(  54) = (   0.5752400   0.0361033   0.3183310  )
        55           Si  tau(  55) = (   0.2977080   0.1254250   0.9824760  )
        56           Si  tau(  56) = (   0.3060700   0.6893610   0.3931470  )
        57           Si  tau(  57) = (   0.8993900   0.8961750   0.3717470  )
        58           Si  tau(  58) = (   0.1336460   0.2417660   0.7537860  )
        59           Si  tau(  59) = (   0.0311297   0.1860040   0.4084090  )
        60           Si  tau(  60) = (   0.6719370   0.8099980   0.4014370  )
        61           Si  tau(  61) = (   0.2159670   0.7544970   0.5799980  )
        62           Si  tau(  62) = (   0.1168900   0.3075720   0.2124240  )
        63           Si  tau(  63) = (   0.3879870   0.8352610   0.0450048  )
        64           Si  tau(  64) = (   0.2638060   0.1238850   0.4021670  )

     number of k points=     1
                       cart. coord. in units 2pi/alat
        k(    1) = (   0.0000000   0.0000000   0.0000000), wk =   2.0000000

     Dense  grid:    91818 G-vectors     FFT dimensions: (  72,  72,  72)

     Estimated max dynamical RAM per process >     134.95 MB

     Estimated total dynamical RAM >     517.37 MB

     Initial potential from superposition of free atoms

     starting charge     255.9608, renormalised to     256.0000
     Starting wfcs are  256 randomized atomic wfcs

     total cpu time spent up to now is        4.1 secs

     Self-consistent Calculation

     iteration #  1     ecut=    30.00 Ry     beta= 0.50
     Davidson diagonalization with overlap
     ethr =  1.00E-02,  avg # of iterations =  2.0

     Threshold (ethr) on eigenvalues was too large:
     Diagonalizing with lowered threshold

     Davidson diagonalization with overlap
     ethr =  3.76E-04,  avg # of iterations =  4.0

     total cpu time spent up to now is        4.2 secs

     total energy              =    -501.20089954 Ry
     estimated scf accuracy    <       1.19923970 Ry

     iteration #  2     ecut=    30.00 Ry     beta= 0.50
     Davidson diagonalization with overlap
     ethr =  4.68E-04,  avg # of iterations =  6.0

     total cpu time spent up to now is        4.3 secs

     total energy              =    -501.09446883 Ry
     estimated scf accuracy    <       1.41501429 Ry

     iteration #  3     ecut=    30.00 Ry     beta= 0.50
     Davidson diagonalization with overlap
     ethr =  4.68E-04,  avg # of iterations =  6.0

     total cpu time spent up to now is        4.4 secs

     total energy              =    -501.24250194 Ry
     estimated scf accuracy    <       1.68968515 Ry

     iteration #  4     ecut=    30.00 Ry     beta= 0.50
     Davidson diagonalization with overlap
     ethr =  4.68E-04,  avg # of iterations =  3.0

     total cpu time spent up to now is        4.5 secs

     total energy              =    -501.37719174 Ry
     estimated scf accuracy    <       0.17210786 Ry

     iteration #  5     ecut=    30.00 Ry     beta= 0.50
     Davidson diagonalization with overlap
     ethr =  6.72E-05,  avg # of iterations =  5.0

     total cpu time spent up to now is        4.6 secs

     total energy              =    -501.41074354 Ry
     estimated scf accuracy    <       0.06967518 Ry

     iteration #  6     ecut=    30.00 Ry     beta= 0.50
     Davidson diagonalization with overlap
     c_bands:  2 eigenvalues not converged
     ethr =  2.72E-05,  avg # of iterations = 20.0

     total cpu time spent up to now is        4.8 secs

     total energy              =    -501.41712443 Ry
     estimated scf accuracy    <       0.28078019 Ry

     iteration #  7     ecut=    30.00 Ry     beta= 0.50
     Davidson diagonalization with overlap
     ethr =  2.72E-05,  avg # of iterations =  8.0

     total cpu time spent up to now is        4.9 secs

     total energy              =    -501.42145018 Ry
     estimated scf accuracy    <       0.07050323 Ry

     iteration #  8     ecut=    30.00 Ry     beta= 0.50
     Davidson diagonalization with overlap
     ethr =  2.72E-05,  avg # of iterations =  2.0

     total cpu time spent up to now is        4.9 secs

     total energy              =    -501.41970144 Ry
     estimated scf accuracy    <       0.03043529 Ry

     iteration #  9     ecut=    30.00 Ry     beta= 0.50
     Davidson diagonalization with overlap
     ethr =  1.19E-05,  avg # of iterations = 17.0

     total cpu time spent up to now is        5.1 secs

     total energy              =    -501.42545867 Ry
     estimated scf accuracy    <       0.02913243 Ry

     iteration # 10     ecut=    30.00 Ry     beta= 0.50
     Davidson diagonalization with overlap
     ethr =  1.14E-05,  avg # of iterations =  2.0

     total cpu time spent up to now is        5.1 secs

     total energy              =    -501.42488929 Ry
     estimated scf accuracy    <       0.02129750 Ry

     iteration # 11     ecut=    30.00 Ry     beta= 0.50
     Davidson diagonalization with overlap
     ethr =  8.32E-06,  avg # of iterations =  2.0

     total cpu time spent up to now is        5.2 secs

     total energy              =    -501.42314039 Ry
     estimated scf accuracy    <       0.01386357 Ry

     iteration # 12     ecut=    30.00 Ry     beta= 0.50
     Davidson diagonalization with overlap
     c_bands:  1 eigenvalues not converged
     ethr =  5.42E-06,  avg # of iterations = 20.0

     total cpu time spent up to now is        5.4 secs

     total energy              =    -501.42628687 Ry
     estimated scf accuracy    <       0.01444858 Ry

     iteration # 13     ecut=    30.00 Ry     beta= 0.50
     Davidson diagonalization with overlap
     ethr =  5.42E-06,  avg # of iterations = 12.0

     total cpu time spent up to now is        5.5 secs

     total energy              =    -501.42626913 Ry
     estimated scf accuracy    <       0.01081133 Ry

     iteration # 14     ecut=    30.00 Ry     beta= 0.50
     Davidson diagonalization with overlap
     ethr =  4.22E-06,  avg # of iterations =  1.0

     total cpu time spent up to now is        5.6 secs

     total energy              =    -501.42535292 Ry
     estimated scf accuracy    <       0.00945619 Ry

     iteration # 15     ecut=    30.00 Ry     beta= 0.50
     Davidson diagonalization with overlap
     ethr =  3.69E-06,  avg # of iterations = 18.0

     total cpu time spent up to now is        5.7 secs

     total energy              =    -501.42599717 Ry
     estimated scf accuracy    <       0.00081960 Ry

     iteration # 16     ecut=    30.00 Ry     beta= 0.50
     Davidson diagonalization with overlap
     c_bands:  1 eigenvalues not converged
     ethr =  3.20E-07,  avg # of iterations = 20.0

     total cpu time spent up to now is        5.9 secs

     total energy              =    -501.42606352 Ry
     estimated scf accuracy    <       0.00208250 Ry

     iteration # 17     ecut=    30.00 Ry     beta= 0.50
     Davidson diagonalization with overlap
     ethr =  3.20E-07,  avg # of iterations =  3.0

     total cpu time spent up to now is        5.9 secs

     total energy              =    -501.42575479 Ry
     estimated scf accuracy    <       0.00150432 Ry

     iteration # 18     ecut=    30.00 Ry     beta= 0.50
     Davidson diagonalization with overlap
     c_bands:  1 eigenvalues not converged
     ethr =  3.20E-07,  avg # of iterations = 20.0

     total cpu time spent up to now is        6.1 secs

     total energy              =    -501.42609436 Ry
     estimated scf accuracy    <       0.00386524 Ry

     iteration # 19     ecut=    30.00 Ry     beta= 0.50
     Davidson diagonalization with overlap
     ethr =  3.20E-07,  avg # of iterations = 11.0

     total cpu time spent up to now is        6.2 secs

     total energy              =    -501.42610129 Ry
     estimated scf accuracy    <       0.00263566 Ry

     iteration # 20     ecut=    30.00 Ry     beta= 0.50
     Davidson diagonalization with overlap
     ethr =  3.20E-07,  avg # of iterations =  2.0

     total cpu time spent up to now is        6.3 secs

     total energy              =    -501.42601127 Ry
     estimated scf accuracy    <       0.00224474 Ry

     iteration # 21     ecut=    30.00 Ry     beta= 0.50
     Davidson diagonalization with overlap
     ethr =  3.20E-07,  avg # of iterations =  6.0

     total cpu time spent up to now is        6.4 secs

     total energy              =    -501.42596005 Ry
     estimated scf accuracy    <       0.00130346 Ry

     iteration # 22     ecut=    30.00 Ry     beta= 0.50
     Davidson diagonalization with overlap
     c_bands:  1 eigenvalues not converged
     ethr =  3.20E-07,  avg # of iterations = 20.0

     total cpu time spent up to now is        6.5 secs

     total energy              =    -501.42604660 Ry
     estimated scf accuracy    <       0.00008299 Ry

     iteration # 23     ecut=    30.00 Ry     beta= 0.50
     Davidson diagonalization with overlap
     ethr =  3.24E-08,  avg # of iterations = 14.0

     total cpu time spent up to now is        6.7 secs

     total energy              =    -501.42606365 Ry
     estimated scf accuracy    <       0.00006180 Ry

     iteration # 24     ecut=    30.00 Ry     beta= 0.50
     Davidson diagonalization with overlap
     ethr =  2.41E-08,  avg # of iterations =  2.0

     total cpu time spent up to now is        6.7 secs

     total energy              =    -501.42606430 Ry
     estimated scf accuracy    <       0.00003449 Ry

     iteration # 25     ecut=    30.00 Ry     beta= 0.50
     Davidson diagonalization with overlap
     ethr =  1.35E-08,  avg # of iterations = 10.0

     total cpu time spent up to now is        6.8 secs

     total energy              =    -501.42606332 Ry
     estimated scf accuracy    <       0.00002278 Ry

     iteration # 26     ecut=    30.00 Ry     beta= 0.50
     Davidson diagonalization with overlap
     ethr =  8.90E-09,  avg # of iterations = 13.0

     total cpu time spent up to now is        7.0 secs

     total energy              =    -501.42606416 Ry
     estimated scf accuracy    <       0.00001872 Ry

     iteration # 27     ecut=    30.00 Ry     beta= 0.50
     Davidson diagonalization with overlap
     ethr =  7.31E-09,  avg # of iterations =  3.0

     total cpu time spent up to now is        7.1 secs

     total energy              =    -501.42606487 Ry
     estimated scf accuracy    <       0.00000952 Ry

     iteration # 28     ecut=    30.00 Ry     beta= 0.50
     Davidson diagonalization with overlap
     ethr =  3.72E-09,  avg # of iterations =  8.0

     total cpu time spent up to now is        7.2 secs

     total energy              =    -501.42606510 Ry
     estimated scf accuracy    <       0.00000662 Ry

     iteration # 29     ecut=    30.00 Ry     beta= 0.50
     Davidson diagonalization with overlap
     ethr =  2.59E-09,  avg # of iterations =  3.0

     total cpu time spent up to now is        7.2 secs

     total energy              =    -501.42606480 Ry
     estimated scf accuracy    <       0.00000525 Ry

     iteration # 30     ecut=    30.00 Ry     beta= 0.50
     Davidson diagonalization with overlap
     c_bands:  1 eigenvalues not converged
     ethr =  2.05E-09,  avg # of iterations = 20.0

     total cpu time spent up to now is        7.4 secs

     total energy              =    -501.42606545 Ry
     estimated scf accuracy    <       0.00000532 Ry

     iteration # 31     ecut=    30.00 Ry     beta= 0.50
     Davidson diagonalization with overlap
     c_bands:  1 eigenvalues not converged
     ethr =  2.05E-09,  avg # of iterations = 20.0

     total cpu time spent up to now is        7.6 secs

     total energy              =    -501.42606535 Ry
     estimated scf accuracy    <       0.00000776 Ry

     iteration # 32     ecut=    30.00 Ry     beta= 0.50
     Davidson diagonalization with overlap
     ethr =  2.05E-09,  avg # of iterations =  2.0

     total cpu time spent up to now is        7.6 secs

     total energy              =    -501.42606528 Ry
     estimated scf accuracy    <       0.00000491 Ry

     iteration # 33     ecut=    30.00 Ry     beta= 0.50
     Davidson diagonalization with overlap
     ethr =  1.92E-09,  avg # of iterations =  2.0

     total cpu time spent up to now is        7.7 secs

     total energy              =    -501.42606504 Ry
     estimated scf accuracy    <       0.00000352 Ry

     iteration # 34     ecut=    30.00 Ry     beta= 0.50
     Davidson diagonalization with overlap
     c_bands:  1 eigenvalues not converged
     ethr =  1.38E-09,  avg # of iterations = 20.0

     total cpu time spent up to now is        7.8 secs

     End of self-consistent calculation

          k = 0.0000 0.0000 0.0000 ( 11492 PWs)   bands (ev):

    -5.4282  -4.4862  -4.4109  -4.3190  -4.2925  -4.2048  -3.9873  -3.5786
    -3.4560  -3.3949  -3.2896  -3.2160  -3.1750  -3.0812  -3.0469  -2.9370
    -2.8267  -2.5746  -2.4634  -2.2851  -2.1204  -2.0752  -1.9845  -1.8357
    -1.6653  -1.5390  -1.4280  -1.0854  -0.8821  -0.8712  -0.8047  -0.7026
    -0.4928  -0.3838  -0.2216  -0.1467  -0.0803   0.0415   0.0717   0.1057
     0.1703   0.3364   0.4118   0.4948   0.5777   0.6162   0.7355   0.7631
     0.8305   0.9269   1.0341   1.1781   1.2861   1.3445   1.3908   1.4931
     1.6952   1.7792   1.8459   1.8721   1.9948   2.0746   2.1667   2.2795
     2.4033   2.4704   2.5354   2.6072   2.7465   2.8327   2.8512   2.9461
     2.9631   3.0103   3.0870   3.1563   3.2142   3.3897   3.4533   3.5766
     3.6698   3.9848   4.1094   4.1978   4.2847   4.3967   4.5083   4.5289
     4.6394   4.6873   4.7352   4.8165   4.8389   4.9393   5.0131   5.0410
     5.0857   5.2482   5.2850   5.3198   5.3801   5.4036   5.4456   5.5089
     5.5977   5.6145   5.6687   5.6883   5.7576   5.7816   5.8821   5.8957
     5.9680   6.0128   6.1015   6.1072   6.1757   6.2881   6.3916   6.4161
     6.4830   6.5215   6.5566   6.6423   6.7257   6.7514   6.8316   6.9077

     highest occupied level (ev):     6.9077

!    total energy              =    -501.42606499 Ry
     estimated scf accuracy    <       0.00000051 Ry

     The total energy is the sum of the following terms:
     one-electron contribution =     180.23595077 Ry
     hartree contribution      =      26.45169221 Ry
     xc contribution           =    -150.64357123 Ry
     ewald contribution        =    -557.47013674 Ry

     convergence has been achieved in  34 iterations

     Forces acting on atoms (cartesian axes, Ry/au):

     atom    1 type  1   force =    -0.01374364    0.02761924   -0.00899310
     atom    2 type  1   force =    -0.03055365   -0.00221904   -0.00881803
     atom    3 type  1   force =     0.00180720    0.00296739    0.04124175
     atom    4 type  1   force =     0.00586093    0.00295279   -0.03264385
     atom    5 type  1   force =    -0.02390963   -0.02107477    0.01494897
     atom    6 type  1   force =     0.00656174    0.02157618   -0.00103727
     atom    7 type  1   force =    -0.00580666    0.00636470   -0.00808145
     atom    8 type  1   force =    -0.03308968    0.01332035   -0.06918911
     atom    9 type  1   force =    -0.00903832    0.01971354   -0.00899745
     atom   10 type  1   force =    -0.02474216    0.01230846    0.02694014
     atom   11 type  1   force =     0.01924397    0.02511616   -0.04179108
     atom   12 type  1   force =     0.00983541    0.01276626    0.00357990
     atom   13 type  1   force =     0.08302111    0.00620055   -0.06923447
     atom   14 type  1   force =     0.04184485   -0.06061007    0.03948540
     atom   15 type  1   force =    -0.00719028    0.02571107   -0.02597517
     atom   16 type  1   force =     0.03297379    0.00752749    0.00004166
     atom   17 type  1   force =     0.03364138    0.01774812   -0.00946690
     atom   18 type  1   force =     0.01770219    0.03621522    0.01371200
     atom   19 type  1   force =     0.00630089   -0.02818943    0.04492051
     atom   20 type  1   force =     0.00290102   -0.02478694    0.02483659
     atom   21 type  1   force =     0.01732802   -0.07900285    0.01186038
     atom   22 type  1   force =    -0.00849784   -0.00950996    0.02878115
     atom   23 type  1   force =     0.00787091   -0.00490581    0.01709249
     atom   24 type  1   force =    -0.05012184   -0.00200225   -0.06097290
     atom   25 type  1   force =     0.02590880   -0.00499688   -0.00626557
     atom   26 type  1   force =    -0.03958640   -0.00253542   -0.02016238
     atom   27 type  1   force =    -0.02702314    0.00238147    0.04326933
     atom   28 type  1   force =     0.01177254   -0.00498226   -0.00275713
     atom   29 type  1   force =     0.00381953   -0.01041908    0.01035333
     atom   30 type  1   force =    -0.03673340    0.00051248    0.00192071
     atom   31 type  1   force =     0.00118376   -0.01551388    0.01505176
     atom   32 type  1   force =     0.02610334   -0.02286500    0.01920292
     atom   33 type  1   force =    -0.00405076   -0.00591694   -0.01194544
     atom   34 type  1   force =    -0.01191913    0.00793094   -0.01383366
     atom   35 type  1   force =    -0.02878937    0.01322755    0.03439560
     atom   36 type  1   force =     0.00137840   -0.02055581   -0.01291127
     atom   37 type  1   force =     0.01557587    0.00339703    0.00653628
     atom   38 type  1   force =    -0.01086964   -0.01324925   -0.01557086
     atom   39 type  1   force =    -0.02438946   -0.03356216    0.00874774
     atom   40 type  1   force =     0.00299146    0.01760413    0.01949554
     atom   41 type  1   force =    -0.01338913    0.00949269    0.00158709
     atom   42 type  1   force =     0.00146658    0.00813139    0.03681942
     atom   43 type  1   force =     0.01795702   -0.00092162    0.00098257
     atom   44 type  1   force =    -0.02852987   -0.02670972    0.01606535
     atom   45 type  1   force =    -0.01046044   -0.01785817    0.02231661
     atom   46 type  1   force =     0.01381701    0.01596369   -0.00628858
     atom   47 type  1   force =    -0.00308245   -0.02939633   -0.02070319
     atom   48 type  1   force =    -0.00535515   -0.03104982    0.03199761
     atom   49 type  1   force =    -0.01420671   -0.00800149    0.02178471
     atom   50 type  1   force =     0.02162847   -0.00182931    0.00633524
     atom   51 type  1   force =    -0.00196123    0.02493515   -0.01906507
     atom   52 type  1   force =    -0.00647384    0.02575456   -0.03741047
     atom   53 type  1   force =    -0.05515090    0.00330358   -0.00031763
     atom   54 type  1   force =     0.01420695   -0.02079098   -0.01095202
     atom   55 type  1   force =     0.02352610    0.02021670   -0.00384332
     atom   56 type  1   force =     0.01175887   -0.01152822   -0.01494888
     atom   57 type  1   force =    -0.02077459    0.01305843   -0.00589798
     atom   58 type  1   force =     0.03497696    0.00630213    0.02942886
     atom   59 type  1   force =    -0.00339303    0.02987682   -0.01886637
     atom   60 type  1   force =     0.01203485    0.09840081    0.00179401
     atom   61 type  1   force =    -0.01829053    0.02639481   -0.01293457
     atom   62 type  1   force =     0.01076224   -0.04159291    0.02694497
     atom   63 type  1   force =     0.02416472   -0.04127143   -0.02112358
     atom   64 type  1   force =     0.00919601    0.03285592   -0.02147181

     Total force =     0.341774     Total SCF correction =     0.001357


     Computing stress (Cartesian axis) and pressure

          total   stress  (Ry/bohr**3)                   (kbar)     P=      -32.30
  -0.00019513  -0.00005649  -0.00003071          -28.70       -8.31       -4.52
  -0.00005649  -0.00030229  -0.00003898           -8.31      -44.47       -5.73
  -0.00003071  -0.00003898  -0.00016124           -4.52       -5.73      -23.72

 
     init_run     :      0.95s CPU      4.00s WALL (       1 calls)
     electrons    :      3.50s CPU      3.78s WALL (       1 calls)
     forces       :      0.03s CPU      0.03s WALL (       1 calls)
     stress       :      0.12s CPU      0.13s WALL (       1 calls)

     Called by init_run:
     wfcinit      :      0.43s CPU      3.34s WALL (       1 calls)
                                        3.34s GPU  (       1 calls)
     potinit      :      0.05s CPU      0.12s WALL (       1 calls)
     hinit0       :      0.45s CPU      0.48s WALL (       1 calls)

     Called by electrons:
     c_bands      :      2.48s CPU      2.63s WALL (      35 calls)
     sum_band     :      0.48s CPU      0.56s WALL (      35 calls)
     v_of_rho     :      0.21s CPU      0.30s WALL (      35 calls)
     mix_rho      :      0.28s CPU      0.30s WALL (      35 calls)

     Called by c_bands:
     init_us_2    :      0.08s CPU      0.09s WALL (      71 calls)
     init_us_2:gp :      0.08s CPU      0.09s WALL (      71 calls)
     regterg      :      2.24s CPU      2.37s WALL (      35 calls)

     Called by *egterg:
     rdiaghg      :      1.14s CPU      1.78s WALL (     361 calls)
                                        1.73s GPU  (     361 calls)
     h_psi        :      1.19s CPU      3.57s WALL (     363 calls)
                                        3.56s GPU  (     363 calls)
     g_psi        :      0.00s CPU      0.01s WALL (     327 calls)
                                        0.01s GPU  (     327 calls)

     Called by h_psi:
     h_psi:calbec :      0.46s CPU      2.73s WALL (     363 calls)
                                        2.73s GPU  (     363 calls)
     vloc_psi     :      0.54s CPU      0.64s WALL (     363 calls)
                                        0.63s GPU  (     363 calls)
     add_vuspsi   :      0.14s CPU      0.18s WALL (     363 calls)
                                        0.18s GPU  (     363 calls)

     General routines
     calbec       :      0.46s CPU      2.73s WALL (     368 calls)
     fft          :      0.63s CPU      0.74s WALL (     287 calls)
                                        0.12s GPU  (     181 calls)
     ffts         :      0.05s CPU      0.06s WALL (      35 calls)
     fftw         :      0.65s CPU      0.85s WALL (    3446 calls)
                                        0.75s GPU  (    3446 calls)
 
     Parallel routines
 
     PWSCF        :      4.63s CPU      8.01s WALL

 
   This run was terminated on:  15:22:28   9May2023            

=------------------------------------------------------------------------------=
   JOB DONE.
=------------------------------------------------------------------------------=
