An instance of this daemon is already running
An instance of this daemon is already running
An instance of this daemon is already running

     Program PWSCF v.7.1 starts on  9May2023 at 15:19: 9 

     This program is part of the open-source Quantum ESPRESSO suite
     for quantum simulation of materials; please cite
         "P. Giannozzi et al., J. Phys.:Condens. Matter 21 395502 (2009);
         "P. Giannozzi et al., J. Phys.:Condens. Matter 29 465901 (2017);
         "P. Giannozzi et al., J. Chem. Phys. 152 154105 (2020);
          URL http://www.quantum-espresso.org", 
     in publications or presentations arising from this work. More details at
     http://www.quantum-espresso.org/quote

     Parallel version (MPI & OpenMP), running on       4 processor cores
     Number of MPI processes:                 4
     Threads/MPI process:                     1

     MPI processes distributed on     1 nodes
     54252 MiB available memory on the printing compute node when the environment starts
 
     Reading input from pw-si-68.in
Warning: card &CELL ignored
Warning: card / ignored

     Current dimensions of program PWSCF are:
     Max number of different atomic species (ntypx) = 10
     Max number of k-points (npk) =  40000
     Max angular momentum in pseudopotentials (lmaxx) =  4

     IMPORTANT: XC functional enforced from input :
     Exchange-correlation= PBE
                           (   1   4   3   4   0   0   0)
     Any further DFT definition will be discarded
     Please, verify this is what you really want


     gamma-point specific algorithms are used
 
     K-points division:     npool     =       2
     R & G space division:  proc/nbgrp/npool/nimage =       2
     Subspace diagonalization in iterative solution of the eigenvalue problem:
     a serial algorithm will be used

     Message from routine divide_et_impera:
     suboptimal parallelization: some nodes have no k-points
 
     Parallelization info
     --------------------
     sticks:   dense  smooth     PW     G-vecs:    dense   smooth      PW
     Min        1992    1992    524                94328    94328   12836
     Max        1993    1993    525                94335    94335   12841
     Sum        3985    3985   1049               188663   188663   25677
 
     Using Slab Decomposition
 


     bravais-lattice index     =            0
     lattice parameter (alat)  =      20.4081  a.u.
     unit-cell volume          =    8499.7256 (a.u.)^3
     number of atoms/cell      =           64
     number of atomic types    =            1
     number of electrons       =       256.00
     number of Kohn-Sham states=          128
     kinetic-energy cutoff     =      30.0000  Ry
     charge density cutoff     =     120.0000  Ry
     scf convergence threshold =      1.0E-06
     mixing beta               =       0.5000
     number of iterations used =            8  plain     mixing
     Exchange-correlation= PBE
                           (   1   4   3   4   0   0   0)

     GPU acceleration is ACTIVE.
     GPU-aware MPI enabled

     Message from routine print_cuda_info:
     High GPU oversubscription detected. Are you sure this is what you want?

     celldm(1)=  20.408056  celldm(2)=   0.000000  celldm(3)=   0.000000
     celldm(4)=   0.000000  celldm(5)=   0.000000  celldm(6)=   0.000000

     crystal axes: (cart. coord. in units of alat)
               a(1) = (   1.000000   0.000000   0.000000 )  
               a(2) = (   0.000000   1.000000   0.000000 )  
               a(3) = (   0.000000   0.000000   1.000000 )  

     reciprocal axes: (cart. coord. in units 2 pi/alat)
               b(1) = (  1.000000  0.000000  0.000000 )  
               b(2) = (  0.000000  1.000000  0.000000 )  
               b(3) = (  0.000000  0.000000  1.000000 )  


     PseudoPot. # 1 for Si read from file:
     /home/ppiaggi/pseudos/Si_ONCV_PBE_sr.upf
     MD5 check sum: 8553c464762ac42b85b1eed164b4d029
     Pseudo is Norm-conserving, Zval =  4.0
     Generated using ONCVPSP code by D. R. Hamann
     Using radial grid of 1510 points,  4 beta functions with: 
                l(1) =   0
                l(2) =   0
                l(3) =   1
                l(4) =   1

     atomic species   valence    mass     pseudopotential
        Si             4.00    28.08500     Si( 1.00)

     No symmetry found



   Cartesian axes

     site n.     atom                  positions (alat units)
         1           Si  tau(   1) = (   0.5767630   0.5268100   0.7711520  )
         2           Si  tau(   2) = (   0.4820840   0.5689360   0.4952000  )
         3           Si  tau(   3) = (   0.9739160   0.5320150   0.3302850  )
         4           Si  tau(   4) = (   0.3311200   0.3255720   0.3553720  )
         5           Si  tau(   5) = (   0.8810390   0.7345530   0.2709060  )
         6           Si  tau(   6) = (   0.7928970   0.1460500   0.3944860  )
         7           Si  tau(   7) = (   0.1515560   0.6624820   0.4706480  )
         8           Si  tau(   8) = (   0.3451880   0.8059090   0.3979430  )
         9           Si  tau(   9) = (   0.9894100   0.2348220   0.8912810  )
        10           Si  tau(  10) = (   0.5903260   0.2040320   0.3061800  )
        11           Si  tau(  11) = (   0.1907500   0.1463900   0.6817540  )
        12           Si  tau(  12) = (   0.3408930   0.4805490   0.1729480  )
        13           Si  tau(  13) = (   0.8173910   0.5663560   0.6999980  )
        14           Si  tau(  14) = (   0.8636370   0.9374370   0.6926920  )
        15           Si  tau(  15) = (   0.5963760   0.2760120   0.9553850  )
        16           Si  tau(  16) = (   0.7334260   0.0956366   0.6188680  )
        17           Si  tau(  17) = (   0.5209350   0.9234620   0.4109830  )
        18           Si  tau(  18) = (   0.2827970   0.4533190   0.5302400  )
        19           Si  tau(  19) = (   0.7171020   0.1014500   0.1072400  )
        20           Si  tau(  20) = (   0.6782350   0.6320790   0.2050110  )
        21           Si  tau(  21) = (   0.4166370   0.0952001   0.2646950  )
        22           Si  tau(  22) = (   0.9725630   0.7236840   0.6029260  )
        23           Si  tau(  23) = (   0.4617870   0.6487570   0.2634520  )
        24           Si  tau(  24) = (   0.4912930   0.0540450   0.9209420  )
        25           Si  tau(  25) = (   0.8988440   0.9947930   0.0487798  )
        26           Si  tau(  26) = (   0.7234530   0.7670740   0.7442470  )
        27           Si  tau(  27) = (   0.3263680   0.1446110   0.0701571  )
        28           Si  tau(  28) = (   0.5221000   0.8529630   0.7960790  )
        29           Si  tau(  29) = (   0.5673300   0.3525450   0.4874490  )
        30           Si  tau(  30) = (   0.4341060   0.1477260   0.7174080  )
        31           Si  tau(  31) = (   0.1173660   0.8416220   0.2928160  )
        32           Si  tau(  32) = (   0.0940432   0.4835610   0.1774270  )
        33           Si  tau(  33) = (   0.4774260   0.8693500   0.1468360  )
        34           Si  tau(  34) = (   0.6684400   0.6336950   0.9820080  )
        35           Si  tau(  35) = (   0.9242210   0.9231880   0.4681810  )
        36           Si  tau(  36) = (   0.3793560   0.3794980   0.9715970  )
        37           Si  tau(  37) = (   0.2888990   0.3541060   0.7449840  )
        38           Si  tau(  38) = (   0.2084040   0.8371790   0.6402150  )
        39           Si  tau(  39) = (   0.2650090   0.9590170   0.8292110  )
        40           Si  tau(  40) = (   0.4306800   0.6319680   0.0048887  )
        41           Si  tau(  41) = (   0.8854050   0.7722870   0.0377171  )
        42           Si  tau(  42) = (   0.2971450   0.8229360   0.9973300  )
        43           Si  tau(  43) = (   0.6545800   0.8862270   0.0065480  )
        44           Si  tau(  44) = (   0.8220440   0.3547850   0.0132280  )
        45           Si  tau(  45) = (   0.5481210   0.9922700   0.6248330  )
        46           Si  tau(  46) = (   0.7355270   0.9221050   0.3376110  )
        47           Si  tau(  47) = (   0.4070380   0.7153430   0.6414620  )
        48           Si  tau(  48) = (   0.5735040   0.3179370   0.7217580  )
        49           Si  tau(  49) = (   0.7750660   0.4195830   0.2777800  )
        50           Si  tau(  50) = (   0.7891490   0.2721300   0.7403320  )
        51           Si  tau(  51) = (   0.1274430   0.0353381   0.1951310  )
        52           Si  tau(  52) = (   0.9357990   0.2342950   0.1982330  )
        53           Si  tau(  53) = (   0.0095907   0.0277766   0.8228820  )
        54           Si  tau(  54) = (   0.8851950   0.5638710   0.9096990  )
        55           Si  tau(  55) = (   0.0998083   0.7034440   0.0741425  )
        56           Si  tau(  56) = (   0.5910400   0.3698910   0.1639300  )
        57           Si  tau(  57) = (   0.1469010   0.3122610   0.0314688  )
        58           Si  tau(  58) = (   0.0523958   0.3891850   0.5243120  )
        59           Si  tau(  59) = (   0.1203120   0.2158350   0.3486430  )
        60           Si  tau(  60) = (   0.1004350   0.6653010   0.8372720  )
        61           Si  tau(  61) = (   0.3072420   0.5918710   0.7990560  )
        62           Si  tau(  62) = (   0.1725300   0.0258145   0.5072840  )
        63           Si  tau(  63) = (   0.8197150   0.3945540   0.5170540  )
        64           Si  tau(  64) = (   0.0520765   0.4054250   0.7573160  )

     number of k points=     1
                       cart. coord. in units 2pi/alat
        k(    1) = (   0.0000000   0.0000000   0.0000000), wk =   2.0000000

     Dense  grid:    94332 G-vectors     FFT dimensions: (  72,  72,  72)

     Estimated max dynamical RAM per process >     138.32 MB

     Estimated total dynamical RAM >     530.25 MB

     Initial potential from superposition of free atoms

     starting charge     255.9608, renormalised to     256.0000
     Starting wfcs are  256 randomized atomic wfcs

     total cpu time spent up to now is        4.1 secs

     Self-consistent Calculation

     iteration #  1     ecut=    30.00 Ry     beta= 0.50
     Davidson diagonalization with overlap
     ethr =  1.00E-02,  avg # of iterations =  2.0

     Threshold (ethr) on eigenvalues was too large:
     Diagonalizing with lowered threshold

     Davidson diagonalization with overlap
     ethr =  3.70E-04,  avg # of iterations =  6.0

     total cpu time spent up to now is        4.3 secs

     total energy              =    -501.04403752 Ry
     estimated scf accuracy    <       1.20719665 Ry

     iteration #  2     ecut=    30.00 Ry     beta= 0.50
     Davidson diagonalization with overlap
     ethr =  4.72E-04,  avg # of iterations = 11.0

     total cpu time spent up to now is        4.4 secs

     total energy              =    -500.63242359 Ry
     estimated scf accuracy    <       4.51872662 Ry

     iteration #  3     ecut=    30.00 Ry     beta= 0.50
     Davidson diagonalization with overlap
     ethr =  4.72E-04,  avg # of iterations = 10.0

     total cpu time spent up to now is        4.5 secs

     total energy              =    -501.13662940 Ry
     estimated scf accuracy    <       1.58216445 Ry

     iteration #  4     ecut=    30.00 Ry     beta= 0.50
     Davidson diagonalization with overlap
     ethr =  4.72E-04,  avg # of iterations =  6.0

     total cpu time spent up to now is        4.6 secs

     total energy              =    -501.23518427 Ry
     estimated scf accuracy    <       0.41454263 Ry

     iteration #  5     ecut=    30.00 Ry     beta= 0.50
     Davidson diagonalization with overlap
     ethr =  1.62E-04,  avg # of iterations = 15.0

     total cpu time spent up to now is        4.7 secs

     total energy              =    -501.26928878 Ry
     estimated scf accuracy    <       0.33051054 Ry

     iteration #  6     ecut=    30.00 Ry     beta= 0.50
     Davidson diagonalization with overlap
     ethr =  1.29E-04,  avg # of iterations =  9.0

     total cpu time spent up to now is        4.9 secs

     total energy              =    -501.30123832 Ry
     estimated scf accuracy    <       0.02716103 Ry

     iteration #  7     ecut=    30.00 Ry     beta= 0.50
     Davidson diagonalization with overlap
     ethr =  1.06E-05,  avg # of iterations = 20.0

     total cpu time spent up to now is        5.0 secs

     total energy              =    -501.30595221 Ry
     estimated scf accuracy    <       0.06716464 Ry

     iteration #  8     ecut=    30.00 Ry     beta= 0.50
     Davidson diagonalization with overlap
     ethr =  1.06E-05,  avg # of iterations = 19.0

     total cpu time spent up to now is        5.2 secs

     total energy              =    -501.30678589 Ry
     estimated scf accuracy    <       0.02449715 Ry

     iteration #  9     ecut=    30.00 Ry     beta= 0.50
     Davidson diagonalization with overlap
     ethr =  9.57E-06,  avg # of iterations = 14.0

     total cpu time spent up to now is        5.3 secs

     total energy              =    -501.30861891 Ry
     estimated scf accuracy    <       0.00625080 Ry

     iteration # 10     ecut=    30.00 Ry     beta= 0.50
     Davidson diagonalization with overlap
     ethr =  2.44E-06,  avg # of iterations = 10.0

     total cpu time spent up to now is        5.5 secs

     total energy              =    -501.30925898 Ry
     estimated scf accuracy    <       0.00936497 Ry

     iteration # 11     ecut=    30.00 Ry     beta= 0.50
     Davidson diagonalization with overlap
     ethr =  2.44E-06,  avg # of iterations = 15.0

     total cpu time spent up to now is        5.6 secs

     total energy              =    -501.30957974 Ry
     estimated scf accuracy    <       0.00485409 Ry

     iteration # 12     ecut=    30.00 Ry     beta= 0.50
     Davidson diagonalization with overlap
     ethr =  1.90E-06,  avg # of iterations =  3.0

     total cpu time spent up to now is        5.7 secs

     total energy              =    -501.30957371 Ry
     estimated scf accuracy    <       0.00151987 Ry

     iteration # 13     ecut=    30.00 Ry     beta= 0.50
     Davidson diagonalization with overlap
     ethr =  5.94E-07,  avg # of iterations = 18.0

     total cpu time spent up to now is        5.8 secs

     total energy              =    -501.30989374 Ry
     estimated scf accuracy    <       0.00207967 Ry

     iteration # 14     ecut=    30.00 Ry     beta= 0.50
     Davidson diagonalization with overlap
     ethr =  5.94E-07,  avg # of iterations =  3.0

     total cpu time spent up to now is        5.9 secs

     total energy              =    -501.30984049 Ry
     estimated scf accuracy    <       0.00105848 Ry

     iteration # 15     ecut=    30.00 Ry     beta= 0.50
     Davidson diagonalization with overlap
     ethr =  4.13E-07,  avg # of iterations = 10.0

     total cpu time spent up to now is        6.0 secs

     total energy              =    -501.30993068 Ry
     estimated scf accuracy    <       0.00012737 Ry

     iteration # 16     ecut=    30.00 Ry     beta= 0.50
     Davidson diagonalization with overlap
     ethr =  4.98E-08,  avg # of iterations =  9.0

     total cpu time spent up to now is        6.1 secs

     total energy              =    -501.30995542 Ry
     estimated scf accuracy    <       0.00011086 Ry

     iteration # 17     ecut=    30.00 Ry     beta= 0.50
     Davidson diagonalization with overlap
     ethr =  4.33E-08,  avg # of iterations =  3.0

     total cpu time spent up to now is        6.2 secs

     total energy              =    -501.30995912 Ry
     estimated scf accuracy    <       0.00006111 Ry

     iteration # 18     ecut=    30.00 Ry     beta= 0.50
     Davidson diagonalization with overlap
     ethr =  2.39E-08,  avg # of iterations =  3.0

     total cpu time spent up to now is        6.3 secs

     total energy              =    -501.30996071 Ry
     estimated scf accuracy    <       0.00002023 Ry

     iteration # 19     ecut=    30.00 Ry     beta= 0.50
     Davidson diagonalization with overlap
     ethr =  7.90E-09,  avg # of iterations = 14.0

     total cpu time spent up to now is        6.4 secs

     total energy              =    -501.30996299 Ry
     estimated scf accuracy    <       0.00002690 Ry

     iteration # 20     ecut=    30.00 Ry     beta= 0.50
     Davidson diagonalization with overlap
     ethr =  7.90E-09,  avg # of iterations = 15.0

     total cpu time spent up to now is        6.6 secs

     total energy              =    -501.30996373 Ry
     estimated scf accuracy    <       0.00002263 Ry

     iteration # 21     ecut=    30.00 Ry     beta= 0.50
     Davidson diagonalization with overlap
     ethr =  7.90E-09,  avg # of iterations =  3.0

     total cpu time spent up to now is        6.7 secs

     total energy              =    -501.30996405 Ry
     estimated scf accuracy    <       0.00000509 Ry

     iteration # 22     ecut=    30.00 Ry     beta= 0.50
     Davidson diagonalization with overlap
     ethr =  1.99E-09,  avg # of iterations = 19.0

     total cpu time spent up to now is        6.8 secs

     total energy              =    -501.30996506 Ry
     estimated scf accuracy    <       0.00000792 Ry

     iteration # 23     ecut=    30.00 Ry     beta= 0.50
     Davidson diagonalization with overlap
     ethr =  1.99E-09,  avg # of iterations =  3.0

     total cpu time spent up to now is        6.9 secs

     total energy              =    -501.30996480 Ry
     estimated scf accuracy    <       0.00000354 Ry

     iteration # 24     ecut=    30.00 Ry     beta= 0.50
     Davidson diagonalization with overlap
     ethr =  1.38E-09,  avg # of iterations = 13.0

     total cpu time spent up to now is        7.0 secs

     total energy              =    -501.30996540 Ry
     estimated scf accuracy    <       0.00000104 Ry

     iteration # 25     ecut=    30.00 Ry     beta= 0.50
     Davidson diagonalization with overlap
     ethr =  4.07E-10,  avg # of iterations =  8.0

     total cpu time spent up to now is        7.2 secs

     total energy              =    -501.30996539 Ry
     estimated scf accuracy    <       0.00000304 Ry

     iteration # 26     ecut=    30.00 Ry     beta= 0.50
     Davidson diagonalization with overlap
     ethr =  4.07E-10,  avg # of iterations =  2.0

     total cpu time spent up to now is        7.2 secs

     total energy              =    -501.30996514 Ry
     estimated scf accuracy    <       0.00000213 Ry

     iteration # 27     ecut=    30.00 Ry     beta= 0.50
     Davidson diagonalization with overlap
     ethr =  4.07E-10,  avg # of iterations = 14.0

     total cpu time spent up to now is        7.4 secs

     End of self-consistent calculation

          k = 0.0000 0.0000 0.0000 ( 11792 PWs)   bands (ev):

    -5.5971  -4.6825  -4.5488  -4.4915  -4.4428  -4.4029  -4.1489  -3.7143
    -3.6717  -3.5271  -3.4670  -3.4322  -3.3562  -3.2958  -3.2423  -3.0852
    -3.0379  -2.9326  -2.5974  -2.4433  -2.3349  -2.2788  -2.2250  -2.1160
    -2.0231  -1.7890  -1.6213  -1.4385  -1.1984  -1.1648  -0.9817  -0.9295
    -0.7034  -0.5611  -0.5295  -0.4369  -0.3928  -0.2126  -0.1997  -0.0633
    -0.0003   0.0091   0.0911   0.1545   0.2693   0.4060   0.5194   0.5630
     0.6233   0.7249   0.8015   0.8690   0.9383   1.0054   1.1129   1.2495
     1.3810   1.5012   1.5584   1.6402   1.7009   1.8823   1.9025   2.0996
     2.2148   2.2497   2.3228   2.3829   2.5163   2.5395   2.6019   2.6438
     2.7444   2.8255   2.8831   3.1159   3.1544   3.1852   3.2537   3.3766
     3.5621   3.6693   3.8364   3.9141   3.9573   3.9677   4.1146   4.1443
     4.2076   4.3625   4.4184   4.4906   4.5678   4.6601   4.6811   4.7722
     4.8270   4.8441   4.9200   5.0321   5.0587   5.1250   5.2255   5.2541
     5.2971   5.3444   5.3652   5.4141   5.5469   5.5920   5.6311   5.6854
     5.7934   5.8036   5.8569   5.9004   5.9531   6.0425   6.0847   6.1224
     6.2232   6.2563   6.3568   6.4347   6.5101   6.5344   6.5871   6.6206

     highest occupied level (ev):     6.6206

!    total energy              =    -501.30996528 Ry
     estimated scf accuracy    <       0.00000010 Ry

     The total energy is the sum of the following terms:
     one-electron contribution =     170.07332947 Ry
     hartree contribution      =      28.72621487 Ry
     xc contribution           =    -149.91013690 Ry
     ewald contribution        =    -550.19937272 Ry

     convergence has been achieved in  27 iterations

     Forces acting on atoms (cartesian axes, Ry/au):

     atom    1 type  1   force =     0.04160558    0.01282860    0.00352684
     atom    2 type  1   force =    -0.01673669   -0.01596821   -0.01251321
     atom    3 type  1   force =    -0.04537848    0.03252798    0.10587676
     atom    4 type  1   force =     0.00445643   -0.04122601   -0.03805775
     atom    5 type  1   force =    -0.02619315    0.02364738   -0.02282634
     atom    6 type  1   force =    -0.01583385   -0.01427287    0.02034819
     atom    7 type  1   force =    -0.00592843   -0.01440646   -0.00522750
     atom    8 type  1   force =    -0.04353533   -0.05367992   -0.00697372
     atom    9 type  1   force =    -0.02985763    0.02661654   -0.01890698
     atom   10 type  1   force =     0.03337072    0.01505928    0.00799863
     atom   11 type  1   force =     0.02915525    0.01449355    0.04919414
     atom   12 type  1   force =    -0.00516808   -0.01650022    0.01728264
     atom   13 type  1   force =    -0.01264463   -0.00264316   -0.02659227
     atom   14 type  1   force =     0.00100032   -0.02436431   -0.01612577
     atom   15 type  1   force =    -0.00140071   -0.02068709    0.00228967
     atom   16 type  1   force =     0.01579468    0.00687785   -0.02964544
     atom   17 type  1   force =     0.02104627    0.05772664    0.01146012
     atom   18 type  1   force =     0.00718637    0.03326050    0.01447714
     atom   19 type  1   force =    -0.01535255   -0.00817850    0.01436524
     atom   20 type  1   force =     0.00011106   -0.03488277    0.01013336
     atom   21 type  1   force =    -0.00049121   -0.03954615    0.02062506
     atom   22 type  1   force =     0.01888757    0.00088789    0.01067438
     atom   23 type  1   force =     0.01150086    0.02628224    0.01494603
     atom   24 type  1   force =    -0.02499634    0.02582419   -0.00101125
     atom   25 type  1   force =     0.05623518   -0.00267321   -0.00296296
     atom   26 type  1   force =    -0.00455661   -0.00484359    0.04336385
     atom   27 type  1   force =    -0.03465255   -0.01434960   -0.02286875
     atom   28 type  1   force =    -0.00295089   -0.02730740   -0.02211246
     atom   29 type  1   force =     0.00713574    0.00962500    0.02009510
     atom   30 type  1   force =    -0.03824037    0.01674226    0.02610626
     atom   31 type  1   force =    -0.00050948   -0.02529238    0.00423008
     atom   32 type  1   force =     0.09562068    0.00778614   -0.11707427
     atom   33 type  1   force =    -0.02912855   -0.00840432    0.00817264
     atom   34 type  1   force =    -0.01255353    0.00266119   -0.03419104
     atom   35 type  1   force =     0.02843207   -0.00791563    0.01155475
     atom   36 type  1   force =    -0.01788942   -0.00621506   -0.02132963
     atom   37 type  1   force =    -0.01864761    0.02008932   -0.00289476
     atom   38 type  1   force =    -0.01156750   -0.00276606   -0.00441892
     atom   39 type  1   force =    -0.01237514    0.01956799   -0.01197579
     atom   40 type  1   force =    -0.00884613    0.01615992   -0.02334357
     atom   41 type  1   force =     0.00723311   -0.00902322    0.04019839
     atom   42 type  1   force =     0.00370775   -0.03166943    0.03923767
     atom   43 type  1   force =    -0.01111968    0.00362723   -0.01132136
     atom   44 type  1   force =     0.00161279    0.00118571   -0.00665849
     atom   45 type  1   force =    -0.00718921   -0.01885765   -0.03166601
     atom   46 type  1   force =     0.01035885    0.01751404   -0.01387672
     atom   47 type  1   force =     0.00503562    0.01995210    0.03167174
     atom   48 type  1   force =     0.00316834    0.00544797   -0.01681384
     atom   49 type  1   force =     0.01777607    0.02503624    0.00116308
     atom   50 type  1   force =    -0.00114507    0.00439550   -0.00867275
     atom   51 type  1   force =    -0.01293804    0.04003091   -0.02567585
     atom   52 type  1   force =     0.00107751   -0.01632477    0.00093496
     atom   53 type  1   force =     0.04380505    0.00318152    0.03934870
     atom   54 type  1   force =     0.00288610   -0.01614147   -0.00177160
     atom   55 type  1   force =     0.01831262   -0.00161242    0.02053044
     atom   56 type  1   force =     0.00043173    0.03004871   -0.02223435
     atom   57 type  1   force =     0.01264840   -0.01033095    0.01628858
     atom   58 type  1   force =    -0.01785899    0.01020231   -0.00110454
     atom   59 type  1   force =     0.00936610   -0.01498069    0.00753690
     atom   60 type  1   force =    -0.01566824   -0.02401295   -0.01211821
     atom   61 type  1   force =     0.00573001   -0.01388295    0.00703022
     atom   62 type  1   force =    -0.02815258   -0.01389207   -0.03616987
     atom   63 type  1   force =     0.00753541    0.00104664    0.02208324
     atom   64 type  1   force =     0.00728243    0.02651815   -0.01360886

     Total force =     0.341062     Total SCF correction =     0.000527


     Computing stress (Cartesian axis) and pressure

          total   stress  (Ry/bohr**3)                   (kbar)     P=      -45.62
  -0.00030144   0.00006316  -0.00002423          -44.34        9.29       -3.56
   0.00006316  -0.00028433   0.00002918            9.29      -41.83        4.29
  -0.00002423   0.00002918  -0.00034468           -3.56        4.29      -50.70

 
     init_run     :      0.98s CPU      4.01s WALL (       1 calls)
     electrons    :      3.12s CPU      3.29s WALL (       1 calls)
     forces       :      0.03s CPU      0.03s WALL (       1 calls)
     stress       :      0.12s CPU      0.13s WALL (       1 calls)

     Called by init_run:
     wfcinit      :      0.47s CPU      3.34s WALL (       1 calls)
                                        3.34s GPU  (       1 calls)
     potinit      :      0.05s CPU      0.13s WALL (       1 calls)
     hinit0       :      0.45s CPU      0.48s WALL (       1 calls)

     Called by electrons:
     c_bands      :      2.25s CPU      2.34s WALL (      28 calls)
     sum_band     :      0.43s CPU      0.47s WALL (      28 calls)
     v_of_rho     :      0.18s CPU      0.27s WALL (      28 calls)
     mix_rho      :      0.21s CPU      0.24s WALL (      28 calls)

     Called by c_bands:
     init_us_2    :      0.07s CPU      0.08s WALL (      57 calls)
     init_us_2:gp :      0.07s CPU      0.08s WALL (      57 calls)
     regterg      :      2.03s CPU      2.11s WALL (      28 calls)

     Called by *egterg:
     rdiaghg      :      1.04s CPU      1.66s WALL (     304 calls)
                                        1.61s GPU  (     304 calls)
     h_psi        :      1.14s CPU      3.45s WALL (     306 calls)
                                        3.45s GPU  (     306 calls)
     g_psi        :      0.00s CPU      0.01s WALL (     277 calls)
                                        0.01s GPU  (     277 calls)

     Called by h_psi:
     h_psi:calbec :      0.49s CPU      2.72s WALL (     306 calls)
                                        2.72s GPU  (     306 calls)
     vloc_psi     :      0.49s CPU      0.56s WALL (     306 calls)
                                        0.56s GPU  (     306 calls)
     add_vuspsi   :      0.13s CPU      0.15s WALL (     306 calls)
                                        0.15s GPU  (     306 calls)

     General routines
     calbec       :      0.49s CPU      2.72s WALL (     311 calls)
     fft          :      0.59s CPU      0.71s WALL (     231 calls)
                                        0.12s GPU  (     146 calls)
     ffts         :      0.05s CPU      0.05s WALL (      28 calls)
     fftw         :      0.58s CPU      0.75s WALL (    2824 calls)
                                        0.65s GPU  (    2824 calls)
 
     Parallel routines
 
     PWSCF        :      4.29s CPU      7.53s WALL

 
   This run was terminated on:  15:19:17   9May2023            

=------------------------------------------------------------------------------=
   JOB DONE.
=------------------------------------------------------------------------------=
