An instance of this daemon is already running
An instance of this daemon is already running
An instance of this daemon is already running

     Program PWSCF v.7.1 starts on  9May2023 at 15:22:11 

     This program is part of the open-source Quantum ESPRESSO suite
     for quantum simulation of materials; please cite
         "P. Giannozzi et al., J. Phys.:Condens. Matter 21 395502 (2009);
         "P. Giannozzi et al., J. Phys.:Condens. Matter 29 465901 (2017);
         "P. Giannozzi et al., J. Chem. Phys. 152 154105 (2020);
          URL http://www.quantum-espresso.org", 
     in publications or presentations arising from this work. More details at
     http://www.quantum-espresso.org/quote

     Parallel version (MPI & OpenMP), running on       4 processor cores
     Number of MPI processes:                 4
     Threads/MPI process:                     1

     MPI processes distributed on     1 nodes
     49335 MiB available memory on the printing compute node when the environment starts
 
     Reading input from pw-si-83.in
Warning: card &CELL ignored
Warning: card / ignored

     Current dimensions of program PWSCF are:
     Max number of different atomic species (ntypx) = 10
     Max number of k-points (npk) =  40000
     Max angular momentum in pseudopotentials (lmaxx) =  4

     IMPORTANT: XC functional enforced from input :
     Exchange-correlation= PBE
                           (   1   4   3   4   0   0   0)
     Any further DFT definition will be discarded
     Please, verify this is what you really want


     gamma-point specific algorithms are used
 
     K-points division:     npool     =       2
     R & G space division:  proc/nbgrp/npool/nimage =       2
     Subspace diagonalization in iterative solution of the eigenvalue problem:
     a serial algorithm will be used

     Message from routine divide_et_impera:
     suboptimal parallelization: some nodes have no k-points
 
     Parallelization info
     --------------------
     sticks:   dense  smooth     PW     G-vecs:    dense   smooth      PW
     Min        1941    1941    516                90975    90975   12416
     Max        1944    1944    517                90980    90980   12421
     Sum        3885    3885   1033               181955   181955   24837
 
     Using Slab Decomposition
 


     bravais-lattice index     =            0
     lattice parameter (alat)  =      20.1585  a.u.
     unit-cell volume          =    8191.7412 (a.u.)^3
     number of atoms/cell      =           64
     number of atomic types    =            1
     number of electrons       =       256.00
     number of Kohn-Sham states=          128
     kinetic-energy cutoff     =      30.0000  Ry
     charge density cutoff     =     120.0000  Ry
     scf convergence threshold =      1.0E-06
     mixing beta               =       0.5000
     number of iterations used =            8  plain     mixing
     Exchange-correlation= PBE
                           (   1   4   3   4   0   0   0)

     GPU acceleration is ACTIVE.
     GPU-aware MPI enabled

     Message from routine print_cuda_info:
     High GPU oversubscription detected. Are you sure this is what you want?

     celldm(1)=  20.158525  celldm(2)=   0.000000  celldm(3)=   0.000000
     celldm(4)=   0.000000  celldm(5)=   0.000000  celldm(6)=   0.000000

     crystal axes: (cart. coord. in units of alat)
               a(1) = (   1.000000   0.000000   0.000000 )  
               a(2) = (   0.000000   1.000000   0.000000 )  
               a(3) = (   0.000000   0.000000   1.000000 )  

     reciprocal axes: (cart. coord. in units 2 pi/alat)
               b(1) = (  1.000000  0.000000  0.000000 )  
               b(2) = (  0.000000  1.000000  0.000000 )  
               b(3) = (  0.000000  0.000000  1.000000 )  


     PseudoPot. # 1 for Si read from file:
     /home/ppiaggi/pseudos/Si_ONCV_PBE_sr.upf
     MD5 check sum: 8553c464762ac42b85b1eed164b4d029
     Pseudo is Norm-conserving, Zval =  4.0
     Generated using ONCVPSP code by D. R. Hamann
     Using radial grid of 1510 points,  4 beta functions with: 
                l(1) =   0
                l(2) =   0
                l(3) =   1
                l(4) =   1

     atomic species   valence    mass     pseudopotential
        Si             4.00    28.08500     Si( 1.00)

     No symmetry found



   Cartesian axes

     site n.     atom                  positions (alat units)
         1           Si  tau(   1) = (   0.2078650   0.1281070   0.2065410  )
         2           Si  tau(   2) = (   0.8777330   0.1290560   0.3521510  )
         3           Si  tau(   3) = (   0.8642860   0.4284210   0.3602620  )
         4           Si  tau(   4) = (   0.6768810   0.2004360   0.1382030  )
         5           Si  tau(   5) = (   0.1867500   0.8509630   0.3225580  )
         6           Si  tau(   6) = (   0.5095020   0.0447896   0.9845930  )
         7           Si  tau(   7) = (   0.6977190   0.8138360   0.2769210  )
         8           Si  tau(   8) = (   0.2639220   0.0822318   0.6019690  )
         9           Si  tau(   9) = (   0.6674820   0.4989350   0.0108901  )
        10           Si  tau(  10) = (   0.4411350   0.8444150   0.3216300  )
        11           Si  tau(  11) = (   0.7741300   0.7964080   0.0506541  )
        12           Si  tau(  12) = (   0.7099780   0.9938380   0.9301850  )
        13           Si  tau(  13) = (   0.5229090   0.3690390   0.6883070  )
        14           Si  tau(  14) = (   0.1297000   0.3155010   0.6010100  )
        15           Si  tau(  15) = (   0.3780440   0.8561220   0.0334382  )
        16           Si  tau(  16) = (   0.8581870   0.8742420   0.5081830  )
        17           Si  tau(  17) = (   0.2595070   0.5836100   0.9363010  )
        18           Si  tau(  18) = (   0.6403900   0.3021950   0.9069840  )
        19           Si  tau(  19) = (   0.9557960   0.3504150   0.9094150  )
        20           Si  tau(  20) = (   0.9867370   0.0303944   0.6359920  )
        21           Si  tau(  21) = (   0.9185080   0.1426450   0.1466840  )
        22           Si  tau(  22) = (   0.4943380   0.0678835   0.2491600  )
        23           Si  tau(  23) = (   0.8907050   0.5146120   0.7768880  )
        24           Si  tau(  24) = (   0.5479620   0.5156470   0.3609360  )
        25           Si  tau(  25) = (   0.4651040   0.6272540   0.7162610  )
        26           Si  tau(  26) = (   0.9492660   0.8638620   0.2673620  )
        27           Si  tau(  27) = (   0.1203980   0.0449831   0.4113970  )
        28           Si  tau(  28) = (   0.3223150   0.6457820   0.1797850  )
        29           Si  tau(  29) = (   0.0832873   0.3097450   0.2234930  )
        30           Si  tau(  30) = (   0.8519650   0.4040650   0.1209750  )
        31           Si  tau(  31) = (   0.6635960   0.0216563   0.4242740  )
        32           Si  tau(  32) = (   0.1567250   0.1018160   0.8421470  )
        33           Si  tau(  33) = (   0.1504420   0.7121740   0.7294340  )
        34           Si  tau(  34) = (   0.5181720   0.3506890   0.2182120  )
        35           Si  tau(  35) = (   0.9168560   0.6602970   0.9419180  )
        36           Si  tau(  36) = (   0.9718200   0.8301280   0.8041370  )
        37           Si  tau(  37) = (   0.3878220   0.5255320   0.5263320  )
        38           Si  tau(  38) = (   0.7460450   0.4217710   0.6302310  )
        39           Si  tau(  39) = (   0.5758450   0.7609260   0.5539140  )
        40           Si  tau(  40) = (   0.1523270   0.3110250   0.8228650  )
        41           Si  tau(  41) = (   0.3557520   0.1851910   0.4062270  )
        42           Si  tau(  42) = (   0.7519590   0.1974530   0.6985650  )
        43           Si  tau(  43) = (   0.9564020   0.6396190   0.5937660  )
        44           Si  tau(  44) = (   0.2144830   0.9835780   0.0465489  )
        45           Si  tau(  45) = (   0.6809240   0.6269260   0.8292860  )
        46           Si  tau(  46) = (   0.5707970   0.6551270   0.1586450  )
        47           Si  tau(  47) = (   0.7452690   0.8425050   0.7479560  )
        48           Si  tau(  48) = (   0.2477370   0.6908200   0.5181230  )
        49           Si  tau(  49) = (   0.5697550   0.2725390   0.4739150  )
        50           Si  tau(  50) = (   0.3740850   0.8891640   0.5868200  )
        51           Si  tau(  51) = (   0.0686203   0.5376160   0.0448475  )
        52           Si  tau(  52) = (   0.4575270   0.1557720   0.7384070  )
        53           Si  tau(  53) = (   0.3678170   0.3896880   0.8743750  )
        54           Si  tau(  54) = (   0.0477140   0.6618000   0.2338280  )
        55           Si  tau(  55) = (   0.9925020   0.9612920   0.0379983  )
        56           Si  tau(  56) = (   0.2945300   0.4275320   0.1982000  )
        57           Si  tau(  57) = (   0.9253530   0.2689870   0.5126610  )
        58           Si  tau(  58) = (   0.0675435   0.5443390   0.4180570  )
        59           Si  tau(  59) = (   0.6152490   0.0176813   0.6304320  )
        60           Si  tau(  60) = (   0.3429730   0.7956560   0.8094260  )
        61           Si  tau(  61) = (   0.7604240   0.6264890   0.4480080  )
        62           Si  tau(  62) = (   0.8811280   0.1281130   0.8626480  )
        63           Si  tau(  63) = (   0.2647210   0.4017000   0.4014670  )
        64           Si  tau(  64) = (   0.3868110   0.2338810   0.0250935  )

     number of k points=     1
                       cart. coord. in units 2pi/alat
        k(    1) = (   0.0000000   0.0000000   0.0000000), wk =   2.0000000

     Dense  grid:    90978 G-vectors     FFT dimensions: (  72,  72,  72)

     Estimated max dynamical RAM per process >     133.86 MB

     Estimated total dynamical RAM >     513.22 MB

     Initial potential from superposition of free atoms

     starting charge     255.9608, renormalised to     256.0000
     Starting wfcs are  256 randomized atomic wfcs

     total cpu time spent up to now is        4.2 secs

     Self-consistent Calculation

     iteration #  1     ecut=    30.00 Ry     beta= 0.50
     Davidson diagonalization with overlap
     ethr =  1.00E-02,  avg # of iterations =  2.0

     Threshold (ethr) on eigenvalues was too large:
     Diagonalizing with lowered threshold

     Davidson diagonalization with overlap
     ethr =  3.73E-04,  avg # of iterations = 14.0

     total cpu time spent up to now is        4.4 secs

     total energy              =    -501.25357280 Ry
     estimated scf accuracy    <       1.18374019 Ry

     iteration #  2     ecut=    30.00 Ry     beta= 0.50
     Davidson diagonalization with overlap
     ethr =  4.62E-04,  avg # of iterations =  8.0

     total cpu time spent up to now is        4.5 secs

     total energy              =    -500.98582757 Ry
     estimated scf accuracy    <       2.98788968 Ry

     iteration #  3     ecut=    30.00 Ry     beta= 0.50
     Davidson diagonalization with overlap
     ethr =  4.62E-04,  avg # of iterations =  8.0

     total cpu time spent up to now is        4.7 secs

     total energy              =    -501.34633637 Ry
     estimated scf accuracy    <       1.30704911 Ry

     iteration #  4     ecut=    30.00 Ry     beta= 0.50
     Davidson diagonalization with overlap
     ethr =  4.62E-04,  avg # of iterations =  3.0

     total cpu time spent up to now is        4.7 secs

     total energy              =    -501.43698731 Ry
     estimated scf accuracy    <       0.24661130 Ry

     iteration #  5     ecut=    30.00 Ry     beta= 0.50
     Davidson diagonalization with overlap
     ethr =  9.63E-05,  avg # of iterations =  7.0

     total cpu time spent up to now is        4.8 secs

     total energy              =    -501.46771754 Ry
     estimated scf accuracy    <       0.13201778 Ry

     iteration #  6     ecut=    30.00 Ry     beta= 0.50
     Davidson diagonalization with overlap
     ethr =  5.16E-05,  avg # of iterations =  6.0

     total cpu time spent up to now is        4.9 secs

     total energy              =    -501.48277372 Ry
     estimated scf accuracy    <       0.06515528 Ry

     iteration #  7     ecut=    30.00 Ry     beta= 0.50
     Davidson diagonalization with overlap
     ethr =  2.55E-05,  avg # of iterations =  3.0

     total cpu time spent up to now is        5.0 secs

     total energy              =    -501.48408192 Ry
     estimated scf accuracy    <       0.01822049 Ry

     iteration #  8     ecut=    30.00 Ry     beta= 0.50
     Davidson diagonalization with overlap
     ethr =  7.12E-06,  avg # of iterations = 12.0

     total cpu time spent up to now is        5.1 secs

     total energy              =    -501.48786586 Ry
     estimated scf accuracy    <       0.00890735 Ry

     iteration #  9     ecut=    30.00 Ry     beta= 0.50
     Davidson diagonalization with overlap
     ethr =  3.48E-06,  avg # of iterations =  3.0

     total cpu time spent up to now is        5.2 secs

     total energy              =    -501.48763123 Ry
     estimated scf accuracy    <       0.00661336 Ry

     iteration # 10     ecut=    30.00 Ry     beta= 0.50
     Davidson diagonalization with overlap
     ethr =  2.58E-06,  avg # of iterations =  8.0

     total cpu time spent up to now is        5.3 secs

     total energy              =    -501.48773347 Ry
     estimated scf accuracy    <       0.00151887 Ry

     iteration # 11     ecut=    30.00 Ry     beta= 0.50
     Davidson diagonalization with overlap
     ethr =  5.93E-07,  avg # of iterations = 16.0

     total cpu time spent up to now is        5.5 secs

     total energy              =    -501.48809745 Ry
     estimated scf accuracy    <       0.00258934 Ry

     iteration # 12     ecut=    30.00 Ry     beta= 0.50
     Davidson diagonalization with overlap
     ethr =  5.93E-07,  avg # of iterations =  3.0

     total cpu time spent up to now is        5.6 secs

     total energy              =    -501.48802853 Ry
     estimated scf accuracy    <       0.00109619 Ry

     iteration # 13     ecut=    30.00 Ry     beta= 0.50
     Davidson diagonalization with overlap
     ethr =  4.28E-07,  avg # of iterations = 11.0

     total cpu time spent up to now is        5.7 secs

     total energy              =    -501.48813997 Ry
     estimated scf accuracy    <       0.00004348 Ry

     iteration # 14     ecut=    30.00 Ry     beta= 0.50
     Davidson diagonalization with overlap
     c_bands:  1 eigenvalues not converged
     ethr =  1.70E-08,  avg # of iterations = 20.0

     total cpu time spent up to now is        5.8 secs

     total energy              =    -501.48816448 Ry
     estimated scf accuracy    <       0.00033741 Ry

     iteration # 15     ecut=    30.00 Ry     beta= 0.50
     Davidson diagonalization with overlap
     ethr =  1.70E-08,  avg # of iterations =  7.0

     total cpu time spent up to now is        5.9 secs

     total energy              =    -501.48815379 Ry
     estimated scf accuracy    <       0.00014926 Ry

     iteration # 16     ecut=    30.00 Ry     beta= 0.50
     Davidson diagonalization with overlap
     ethr =  1.70E-08,  avg # of iterations = 18.0

     total cpu time spent up to now is        6.1 secs

     total energy              =    -501.48816316 Ry
     estimated scf accuracy    <       0.00000774 Ry

     iteration # 17     ecut=    30.00 Ry     beta= 0.50
     Davidson diagonalization with overlap
     ethr =  3.02E-09,  avg # of iterations = 20.0

     total cpu time spent up to now is        6.3 secs

     total energy              =    -501.48816496 Ry
     estimated scf accuracy    <       0.00001387 Ry

     iteration # 18     ecut=    30.00 Ry     beta= 0.50
     Davidson diagonalization with overlap
     ethr =  3.02E-09,  avg # of iterations =  8.0

     total cpu time spent up to now is        6.4 secs

     total energy              =    -501.48816525 Ry
     estimated scf accuracy    <       0.00000639 Ry

     iteration # 19     ecut=    30.00 Ry     beta= 0.50
     Davidson diagonalization with overlap
     ethr =  2.50E-09,  avg # of iterations =  3.0

     total cpu time spent up to now is        6.5 secs

     total energy              =    -501.48816518 Ry
     estimated scf accuracy    <       0.00000268 Ry

     iteration # 20     ecut=    30.00 Ry     beta= 0.50
     Davidson diagonalization with overlap
     ethr =  1.05E-09,  avg # of iterations = 20.0

     total cpu time spent up to now is        6.6 secs

     total energy              =    -501.48816555 Ry
     estimated scf accuracy    <       0.00000136 Ry

     iteration # 21     ecut=    30.00 Ry     beta= 0.50
     Davidson diagonalization with overlap
     ethr =  5.32E-10,  avg # of iterations =  2.0

     total cpu time spent up to now is        6.7 secs

     End of self-consistent calculation

          k = 0.0000 0.0000 0.0000 ( 11372 PWs)   bands (ev):

    -5.3928  -4.5727  -4.3587  -4.2773  -4.1769  -4.0334  -3.9173  -3.4464
    -3.3724  -3.3019  -3.2520  -3.1652  -3.1117  -2.9411  -2.9088  -2.7476
    -2.6952  -2.5772  -2.4062  -2.1789  -2.1176  -1.9301  -1.9030  -1.8194
    -1.6944  -1.4802  -1.2627  -1.0169  -0.9100  -0.7603  -0.5986  -0.4548
    -0.3619  -0.3055  -0.2326  -0.0897  -0.0121   0.0842   0.1573   0.2347
     0.2956   0.3795   0.5092   0.6016   0.6469   0.7060   0.8082   0.9003
     0.9408   0.9908   1.1390   1.2686   1.2889   1.4299   1.4862   1.6092
     1.6543   1.7002   1.8516   2.0255   2.2038   2.3089   2.3430   2.4223
     2.5509   2.5986   2.6414   2.7132   2.7470   2.8383   2.9640   2.9668
     3.0745   3.1569   3.1835   3.2419   3.2977   3.4364   3.5052   3.6118
     3.6890   3.9585   4.1235   4.2562   4.3157   4.4581   4.5366   4.6132
     4.6891   4.8115   4.8770   4.9113   4.9232   4.9922   5.0758   5.1687
     5.2166   5.2393   5.3092   5.3734   5.3872   5.4495   5.5373   5.5439
     5.6482   5.6769   5.7784   5.8111   5.8368   5.9300   5.9916   6.0515
     6.0930   6.1418   6.1955   6.2628   6.2920   6.4114   6.5227   6.5544
     6.5790   6.6815   6.7369   6.7755   6.8324   6.9222   6.9661   7.0175

     highest occupied level (ev):     7.0175

!    total energy              =    -501.48816485 Ry
     estimated scf accuracy    <       0.00000083 Ry

     The total energy is the sum of the following terms:
     one-electron contribution =     186.11757586 Ry
     hartree contribution      =      24.41331767 Ry
     xc contribution           =    -150.77480024 Ry
     ewald contribution        =    -561.24425814 Ry

     convergence has been achieved in  21 iterations

     Forces acting on atoms (cartesian axes, Ry/au):

     atom    1 type  1   force =     0.02929485    0.01834681    0.03251905
     atom    2 type  1   force =    -0.00254947   -0.04247443    0.06404701
     atom    3 type  1   force =     0.02569936    0.01894755   -0.00149879
     atom    4 type  1   force =     0.02204789   -0.00406640   -0.04809802
     atom    5 type  1   force =     0.00294147   -0.02491826    0.01691404
     atom    6 type  1   force =    -0.04214604    0.00933422    0.00441172
     atom    7 type  1   force =     0.01752461   -0.02781996    0.00630157
     atom    8 type  1   force =    -0.00435103    0.04438189    0.00465854
     atom    9 type  1   force =     0.00348775   -0.00465161    0.02265827
     atom   10 type  1   force =     0.00048913    0.01875737    0.00543458
     atom   11 type  1   force =    -0.00251190    0.03531796    0.00921112
     atom   12 type  1   force =     0.05580865   -0.03578550   -0.02135531
     atom   13 type  1   force =    -0.01882209    0.01404711    0.03236747
     atom   14 type  1   force =     0.00177625   -0.03217473   -0.02994352
     atom   15 type  1   force =     0.06941447   -0.01702379   -0.01957023
     atom   16 type  1   force =    -0.00560559    0.00756175   -0.00237633
     atom   17 type  1   force =     0.00732119    0.00707765    0.00759330
     atom   18 type  1   force =    -0.01362245   -0.02806898   -0.00086478
     atom   19 type  1   force =    -0.01983609   -0.02469579    0.03838093
     atom   20 type  1   force =    -0.00493863   -0.00443640    0.02790154
     atom   21 type  1   force =    -0.02821551    0.04484206   -0.03198874
     atom   22 type  1   force =     0.01185700   -0.01965403    0.02654779
     atom   23 type  1   force =    -0.03547327    0.01823587   -0.03762095
     atom   24 type  1   force =     0.01780488    0.03313662    0.00577894
     atom   25 type  1   force =     0.04168339   -0.00130447   -0.00378842
     atom   26 type  1   force =    -0.00739105   -0.00183450   -0.01122426
     atom   27 type  1   force =    -0.02671487   -0.00452034   -0.00381480
     atom   28 type  1   force =     0.00931356    0.01452838   -0.02701313
     atom   29 type  1   force =    -0.00326301    0.00293555    0.00368146
     atom   30 type  1   force =     0.01320487   -0.01810109   -0.00389717
     atom   31 type  1   force =     0.03420422    0.00818307   -0.06344484
     atom   32 type  1   force =    -0.01682218   -0.04816972   -0.01868646
     atom   33 type  1   force =    -0.00491545   -0.00505846   -0.00357149
     atom   34 type  1   force =    -0.01255789   -0.01026165   -0.02988172
     atom   35 type  1   force =    -0.02005900    0.02233021   -0.00282237
     atom   36 type  1   force =     0.01824426    0.01926832   -0.01200930
     atom   37 type  1   force =     0.05995080   -0.01037782    0.01125336
     atom   38 type  1   force =    -0.01101470   -0.00786796   -0.01727397
     atom   39 type  1   force =     0.00119808    0.01202660   -0.01467020
     atom   40 type  1   force =     0.02952015    0.04926862   -0.01172891
     atom   41 type  1   force =     0.01860466    0.00582735   -0.01121129
     atom   42 type  1   force =     0.00189602    0.01098762   -0.00672722
     atom   43 type  1   force =     0.00423931    0.00870535    0.00568437
     atom   44 type  1   force =    -0.05030838    0.03466153   -0.00661606
     atom   45 type  1   force =     0.00531381    0.00062084   -0.01745860
     atom   46 type  1   force =    -0.02052038   -0.01406732    0.02380016
     atom   47 type  1   force =    -0.02120070    0.01306429   -0.00975701
     atom   48 type  1   force =    -0.04099778    0.05503547    0.00745433
     atom   49 type  1   force =    -0.01082552   -0.00496004   -0.00343032
     atom   50 type  1   force =     0.01170413   -0.03082997    0.00306864
     atom   51 type  1   force =    -0.00526921   -0.01518963    0.03710407
     atom   52 type  1   force =    -0.00356044   -0.02071822    0.00101972
     atom   53 type  1   force =    -0.01796970    0.02045511   -0.03615683
     atom   54 type  1   force =     0.02744320    0.01165483   -0.00235623
     atom   55 type  1   force =    -0.02044716   -0.01811520   -0.00989017
     atom   56 type  1   force =     0.00045828   -0.00343758   -0.08027797
     atom   57 type  1   force =     0.00310082    0.01090962    0.01569142
     atom   58 type  1   force =     0.01060880   -0.00210527    0.02139380
     atom   59 type  1   force =    -0.00582291   -0.01499502    0.04672292
     atom   60 type  1   force =    -0.00495704   -0.00800885   -0.00119635
     atom   61 type  1   force =    -0.03742341   -0.00185153   -0.00669489
     atom   62 type  1   force =     0.02041081    0.00195594    0.00544848
     atom   63 type  1   force =    -0.06245806   -0.05796696    0.07963858
     atom   64 type  1   force =     0.00600422   -0.00689408    0.04222946

     Total force =     0.343051     Total SCF correction =     0.001788


     Computing stress (Cartesian axis) and pressure

          total   stress  (Ry/bohr**3)                   (kbar)     P=      -33.61
  -0.00026657  -0.00002422  -0.00003854          -39.21       -3.56       -5.67
  -0.00002422  -0.00005468   0.00003544           -3.56       -8.04        5.21
  -0.00003854   0.00003544  -0.00036425           -5.67        5.21      -53.58

 
     init_run     :      0.94s CPU      4.14s WALL (       1 calls)
     electrons    :      2.31s CPU      2.49s WALL (       1 calls)
     forces       :      0.03s CPU      0.03s WALL (       1 calls)
     stress       :      0.12s CPU      0.12s WALL (       1 calls)

     Called by init_run:
     wfcinit      :      0.43s CPU      3.48s WALL (       1 calls)
                                        3.48s GPU  (       1 calls)
     potinit      :      0.04s CPU      0.13s WALL (       1 calls)
     hinit0       :      0.45s CPU      0.48s WALL (       1 calls)

     Called by electrons:
     c_bands      :      1.68s CPU      1.77s WALL (      22 calls)
     sum_band     :      0.31s CPU      0.36s WALL (      22 calls)
     v_of_rho     :      0.14s CPU      0.23s WALL (      22 calls)
     mix_rho      :      0.15s CPU      0.18s WALL (      22 calls)

     Called by c_bands:
     init_us_2    :      0.05s CPU      0.06s WALL (      45 calls)
     init_us_2:gp :      0.05s CPU      0.06s WALL (      45 calls)
     regterg      :      1.52s CPU      1.61s WALL (      22 calls)

     Called by *egterg:
     rdiaghg      :      0.79s CPU      1.43s WALL (     223 calls)
                                        1.40s GPU  (     223 calls)
     h_psi        :      0.92s CPU      3.39s WALL (     225 calls)
                                        3.38s GPU  (     225 calls)
     g_psi        :      0.00s CPU      0.01s WALL (     202 calls)
                                        0.00s GPU  (     202 calls)

     Called by h_psi:
     h_psi:calbec :      0.42s CPU      2.82s WALL (     225 calls)
                                        2.82s GPU  (     225 calls)
     vloc_psi     :      0.39s CPU      0.45s WALL (     225 calls)
                                        0.45s GPU  (     225 calls)
     add_vuspsi   :      0.08s CPU      0.11s WALL (     225 calls)
                                        0.11s GPU  (     225 calls)

     General routines
     calbec       :      0.42s CPU      2.82s WALL (     230 calls)
     fft          :      0.57s CPU      0.68s WALL (     183 calls)
                                        0.11s GPU  (     116 calls)
     ffts         :      0.04s CPU      0.04s WALL (      22 calls)
     fftw         :      0.45s CPU      0.59s WALL (    2200 calls)
                                        0.52s GPU  (    2200 calls)
 
     Parallel routines
 
     PWSCF        :      3.44s CPU      6.85s WALL

 
   This run was terminated on:  15:22:18   9May2023            

=------------------------------------------------------------------------------=
   JOB DONE.
=------------------------------------------------------------------------------=
