An instance of this daemon is already running
An instance of this daemon is already running

     Program PWSCF v.7.1 starts on  9May2023 at 15: 4:32 

     This program is part of the open-source Quantum ESPRESSO suite
     for quantum simulation of materials; please cite
         "P. Giannozzi et al., J. Phys.:Condens. Matter 21 395502 (2009);
         "P. Giannozzi et al., J. Phys.:Condens. Matter 29 465901 (2017);
         "P. Giannozzi et al., J. Chem. Phys. 152 154105 (2020);
          URL http://www.quantum-espresso.org", 
     in publications or presentations arising from this work. More details at
     http://www.quantum-espresso.org/quote

     Parallel version (MPI & OpenMP), running on       4 processor cores
     Number of MPI processes:                 4
     Threads/MPI process:                     1

     MPI processes distributed on     1 nodes
     80122 MiB available memory on the printing compute node when the environment starts
 
     Reading input from pw-si-2.in
Warning: card &CELL ignored
Warning: card / ignored

     Current dimensions of program PWSCF are:
     Max number of different atomic species (ntypx) = 10
     Max number of k-points (npk) =  40000
     Max angular momentum in pseudopotentials (lmaxx) =  4

     IMPORTANT: XC functional enforced from input :
     Exchange-correlation= PBE
                           (   1   4   3   4   0   0   0)
     Any further DFT definition will be discarded
     Please, verify this is what you really want


     gamma-point specific algorithms are used
 
     K-points division:     npool     =       2
     R & G space division:  proc/nbgrp/npool/nimage =       2
     Subspace diagonalization in iterative solution of the eigenvalue problem:
     a serial algorithm will be used

     Message from routine divide_et_impera:
     suboptimal parallelization: some nodes have no k-points
 
     Parallelization info
     --------------------
     sticks:   dense  smooth     PW     G-vecs:    dense   smooth      PW
     Min        1992    1992    524                93875    93875   12765
     Max        1993    1993    525                93876    93876   12768
     Sum        3985    3985   1049               187751   187751   25533
 
     Using Slab Decomposition
 


     bravais-lattice index     =            0
     lattice parameter (alat)  =      20.3683  a.u.
     unit-cell volume          =    8450.1279 (a.u.)^3
     number of atoms/cell      =           64
     number of atomic types    =            1
     number of electrons       =       256.00
     number of Kohn-Sham states=          128
     kinetic-energy cutoff     =      30.0000  Ry
     charge density cutoff     =     120.0000  Ry
     scf convergence threshold =      1.0E-06
     mixing beta               =       0.5000
     number of iterations used =            8  plain     mixing
     Exchange-correlation= PBE
                           (   1   4   3   4   0   0   0)

     GPU acceleration is ACTIVE.
     GPU-aware MPI enabled

     Message from routine print_cuda_info:
     High GPU oversubscription detected. Are you sure this is what you want?

     celldm(1)=  20.368283  celldm(2)=   0.000000  celldm(3)=   0.000000
     celldm(4)=   0.000000  celldm(5)=   0.000000  celldm(6)=   0.000000

     crystal axes: (cart. coord. in units of alat)
               a(1) = (   1.000000   0.000000   0.000000 )  
               a(2) = (   0.000000   1.000000   0.000000 )  
               a(3) = (   0.000000   0.000000   1.000000 )  

     reciprocal axes: (cart. coord. in units 2 pi/alat)
               b(1) = (  1.000000  0.000000  0.000000 )  
               b(2) = (  0.000000  1.000000  0.000000 )  
               b(3) = (  0.000000  0.000000  1.000000 )  


     PseudoPot. # 1 for Si read from file:
     /home/ppiaggi/pseudos/Si_ONCV_PBE_sr.upf
     MD5 check sum: 8553c464762ac42b85b1eed164b4d029
     Pseudo is Norm-conserving, Zval =  4.0
     Generated using ONCVPSP code by D. R. Hamann
     Using radial grid of 1510 points,  4 beta functions with: 
                l(1) =   0
                l(2) =   0
                l(3) =   1
                l(4) =   1

     atomic species   valence    mass     pseudopotential
        Si             4.00    28.08500     Si( 1.00)

     No symmetry found



   Cartesian axes

     site n.     atom                  positions (alat units)
         1           Si  tau(   1) = (   0.1107010   0.4958410   0.4812310  )
         2           Si  tau(   2) = (   0.9974580   0.3976070   0.6782290  )
         3           Si  tau(   3) = (   0.6932270   0.8564250   0.1703540  )
         4           Si  tau(   4) = (   0.0240811   0.0075252   0.7348460  )
         5           Si  tau(   5) = (   0.8802420   0.3517460   0.2930190  )
         6           Si  tau(   6) = (   0.6246030   0.5949380   0.8333010  )
         7           Si  tau(   7) = (   0.4872320   0.9032630   0.8634120  )
         8           Si  tau(   8) = (   0.5201700   0.3650820   0.6070560  )
         9           Si  tau(   9) = (   0.6987960   0.0354767   0.9890360  )
        10           Si  tau(  10) = (   0.7801150   0.7475790   0.9881530  )
        11           Si  tau(  11) = (   0.4195940   0.7334120   0.3784510  )
        12           Si  tau(  12) = (   0.5650590   0.4953940   0.0015456  )
        13           Si  tau(  13) = (   0.3367340   0.4819700   0.4055440  )
        14           Si  tau(  14) = (   0.6950080   0.5470160   0.1900430  )
        15           Si  tau(  15) = (   0.3199690   0.7017200   0.5921790  )
        16           Si  tau(  16) = (   0.0964063   0.6253370   0.7021170  )
        17           Si  tau(  17) = (   0.9099620   0.5942100   0.1354470  )
        18           Si  tau(  18) = (   0.6342830   0.7073770   0.3130760  )
        19           Si  tau(  19) = (   0.3412230   0.9365830   0.6084730  )
        20           Si  tau(  20) = (   0.0781215   0.2248340   0.7708380  )
        21           Si  tau(  21) = (   0.8300390   0.8060380   0.5946530  )
        22           Si  tau(  22) = (   0.0298128   0.0115002   0.0731859  )
        23           Si  tau(  23) = (   0.3146020   0.8883200   0.2332260  )
        24           Si  tau(  24) = (   0.5723220   0.8761660   0.5176110  )
        25           Si  tau(  25) = (   0.3907060   0.5360260   0.7486400  )
        26           Si  tau(  26) = (   0.7423020   0.2815600   0.8414490  )
        27           Si  tau(  27) = (   0.5492070   0.2918780   0.9609100  )
        28           Si  tau(  28) = (   0.7206830   0.3636620   0.4362940  )
        29           Si  tau(  29) = (   0.2771000   0.0768976   0.0337478  )
        30           Si  tau(  30) = (   0.7162640   0.4417940   0.6996960  )
        31           Si  tau(  31) = (   0.9593920   0.6162590   0.3787810  )
        32           Si  tau(  32) = (   0.0706962   0.1279210   0.5268240  )
        33           Si  tau(  33) = (   0.5765730   0.7828030   0.7265460  )
        34           Si  tau(  34) = (   0.4416540   0.1460850   0.4516780  )
        35           Si  tau(  35) = (   0.0527584   0.8926890   0.3785920  )
        36           Si  tau(  36) = (   0.3986570   0.3103500   0.3199530  )
        37           Si  tau(  37) = (   0.4681780   0.1567950   0.6784040  )
        38           Si  tau(  38) = (   0.3674660   0.6050240   0.0016325  )
        39           Si  tau(  39) = (   0.5902410   0.3245690   0.2353770  )
        40           Si  tau(  40) = (   0.2010780   0.4255500   0.8680230  )
        41           Si  tau(  41) = (   0.8164900   0.9027800   0.8080590  )
        42           Si  tau(  42) = (   0.1480590   0.7097510   0.2351510  )
        43           Si  tau(  43) = (   0.6010380   0.0467946   0.3319300  )
        44           Si  tau(  44) = (   0.7546440   0.5911620   0.4813150  )
        45           Si  tau(  45) = (   0.2058430   0.7100250   0.8794710  )
        46           Si  tau(  46) = (   0.9029940   0.5070950   0.8652020  )
        47           Si  tau(  47) = (   0.2547010   0.0422624   0.3802090  )
        48           Si  tau(  48) = (   0.2513670   0.9127810   0.8347810  )
        49           Si  tau(  49) = (   0.0667324   0.2924580   0.3585650  )
        50           Si  tau(  50) = (   0.0800880   0.8154140   0.5870930  )
        51           Si  tau(  51) = (   0.0341651   0.8012220   0.0298498  )
        52           Si  tau(  52) = (   0.8810450   0.9848150   0.2424740  )
        53           Si  tau(  53) = (   0.9537910   0.3755660   0.0441314  )
        54           Si  tau(  54) = (   0.5094620   0.1164030   0.1128950  )
        55           Si  tau(  55) = (   0.6598340   0.0786621   0.7406590  )
        56           Si  tau(  56) = (   0.7830840   0.1693080   0.2007600  )
        57           Si  tau(  57) = (   0.1506540   0.3933530   0.0834151  )
        58           Si  tau(  58) = (   0.8585670   0.1981050   0.6039180  )
        59           Si  tau(  59) = (   0.7773110   0.0060891   0.4953850  )
        60           Si  tau(  60) = (   0.3422020   0.2236790   0.8612780  )
        61           Si  tau(  61) = (   0.2779050   0.5469100   0.1862040  )
        62           Si  tau(  62) = (   0.4683870   0.8382210   0.0662693  )
        63           Si  tau(  63) = (   0.2320820   0.2321540   0.1947680  )
        64           Si  tau(  64) = (   0.9390660   0.1986810   0.9525400  )

     number of k points=     1
                       cart. coord. in units 2pi/alat
        k(    1) = (   0.0000000   0.0000000   0.0000000), wk =   2.0000000

     Dense  grid:    93876 G-vectors     FFT dimensions: (  72,  72,  72)

     Estimated max dynamical RAM per process >     137.63 MB

     Estimated total dynamical RAM >     527.58 MB

     Initial potential from superposition of free atoms

     starting charge     255.9608, renormalised to     256.0000
     Starting wfcs are  256 randomized atomic wfcs

     total cpu time spent up to now is        4.1 secs

     Self-consistent Calculation

     iteration #  1     ecut=    30.00 Ry     beta= 0.50
     Davidson diagonalization with overlap
     ethr =  1.00E-02,  avg # of iterations =  2.0

     Threshold (ethr) on eigenvalues was too large:
     Diagonalizing with lowered threshold

     Davidson diagonalization with overlap
     ethr =  4.54E-04,  avg # of iterations =  6.0

     total cpu time spent up to now is        4.2 secs

     total energy              =    -501.03992960 Ry
     estimated scf accuracy    <       1.46464283 Ry

     iteration #  2     ecut=    30.00 Ry     beta= 0.50
     Davidson diagonalization with overlap
     ethr =  5.72E-04,  avg # of iterations = 11.0

     total cpu time spent up to now is        4.4 secs

     total energy              =    -500.24972128 Ry
     estimated scf accuracy    <      10.71322314 Ry

     iteration #  3     ecut=    30.00 Ry     beta= 0.50
     Davidson diagonalization with overlap
     ethr =  5.72E-04,  avg # of iterations = 11.0

     total cpu time spent up to now is        4.5 secs

     total energy              =    -501.20931539 Ry
     estimated scf accuracy    <       1.81497674 Ry

     iteration #  4     ecut=    30.00 Ry     beta= 0.50
     Davidson diagonalization with overlap
     ethr =  5.72E-04,  avg # of iterations =  9.0

     total cpu time spent up to now is        4.6 secs

     total energy              =    -501.32820891 Ry
     estimated scf accuracy    <       0.50090196 Ry

     iteration #  5     ecut=    30.00 Ry     beta= 0.50
     Davidson diagonalization with overlap
     ethr =  1.96E-04,  avg # of iterations =  8.0

     total cpu time spent up to now is        4.7 secs

     total energy              =    -501.36212197 Ry
     estimated scf accuracy    <       0.31740583 Ry

     iteration #  6     ecut=    30.00 Ry     beta= 0.50
     Davidson diagonalization with overlap
     ethr =  1.24E-04,  avg # of iterations =  7.0

     total cpu time spent up to now is        4.8 secs

     total energy              =    -501.40016607 Ry
     estimated scf accuracy    <       0.03916828 Ry

     iteration #  7     ecut=    30.00 Ry     beta= 0.50
     Davidson diagonalization with overlap
     ethr =  1.53E-05,  avg # of iterations =  8.0

     total cpu time spent up to now is        4.9 secs

     total energy              =    -501.40561150 Ry
     estimated scf accuracy    <       0.03495075 Ry

     iteration #  8     ecut=    30.00 Ry     beta= 0.50
     Davidson diagonalization with overlap
     ethr =  1.37E-05,  avg # of iterations =  6.0

     total cpu time spent up to now is        5.0 secs

     total energy              =    -501.40788154 Ry
     estimated scf accuracy    <       0.01527609 Ry

     iteration #  9     ecut=    30.00 Ry     beta= 0.50
     Davidson diagonalization with overlap
     ethr =  5.97E-06,  avg # of iterations =  5.0

     total cpu time spent up to now is        5.1 secs

     total energy              =    -501.40871242 Ry
     estimated scf accuracy    <       0.00268627 Ry

     iteration # 10     ecut=    30.00 Ry     beta= 0.50
     Davidson diagonalization with overlap
     ethr =  1.05E-06,  avg # of iterations = 18.0

     total cpu time spent up to now is        5.2 secs

     total energy              =    -501.40936898 Ry
     estimated scf accuracy    <       0.00282472 Ry

     iteration # 11     ecut=    30.00 Ry     beta= 0.50
     Davidson diagonalization with overlap
     ethr =  1.05E-06,  avg # of iterations =  3.0

     total cpu time spent up to now is        5.3 secs

     total energy              =    -501.40929522 Ry
     estimated scf accuracy    <       0.00152228 Ry

     iteration # 12     ecut=    30.00 Ry     beta= 0.50
     Davidson diagonalization with overlap
     ethr =  5.95E-07,  avg # of iterations = 10.0

     total cpu time spent up to now is        5.4 secs

     total energy              =    -501.40942853 Ry
     estimated scf accuracy    <       0.00014269 Ry

     iteration # 13     ecut=    30.00 Ry     beta= 0.50
     Davidson diagonalization with overlap
     ethr =  5.57E-08,  avg # of iterations = 15.0

     total cpu time spent up to now is        5.6 secs

     total energy              =    -501.40947185 Ry
     estimated scf accuracy    <       0.00030329 Ry

     iteration # 14     ecut=    30.00 Ry     beta= 0.50
     Davidson diagonalization with overlap
     ethr =  5.57E-08,  avg # of iterations =  6.0

     total cpu time spent up to now is        5.7 secs

     total energy              =    -501.40946751 Ry
     estimated scf accuracy    <       0.00011674 Ry

     iteration # 15     ecut=    30.00 Ry     beta= 0.50
     Davidson diagonalization with overlap
     ethr =  4.56E-08,  avg # of iterations = 13.0

     total cpu time spent up to now is        5.8 secs

     total energy              =    -501.40947823 Ry
     estimated scf accuracy    <       0.00005603 Ry

     iteration # 16     ecut=    30.00 Ry     beta= 0.50
     Davidson diagonalization with overlap
     ethr =  2.19E-08,  avg # of iterations = 10.0

     total cpu time spent up to now is        5.9 secs

     total energy              =    -501.40948294 Ry
     estimated scf accuracy    <       0.00001296 Ry

     iteration # 17     ecut=    30.00 Ry     beta= 0.50
     Davidson diagonalization with overlap
     ethr =  5.06E-09,  avg # of iterations =  8.0

     total cpu time spent up to now is        6.0 secs

     total energy              =    -501.40948364 Ry
     estimated scf accuracy    <       0.00002332 Ry

     iteration # 18     ecut=    30.00 Ry     beta= 0.50
     Davidson diagonalization with overlap
     ethr =  5.06E-09,  avg # of iterations =  6.0

     total cpu time spent up to now is        6.1 secs

     total energy              =    -501.40948447 Ry
     estimated scf accuracy    <       0.00000541 Ry

     iteration # 19     ecut=    30.00 Ry     beta= 0.50
     Davidson diagonalization with overlap
     ethr =  2.12E-09,  avg # of iterations = 10.0

     total cpu time spent up to now is        6.2 secs

     total energy              =    -501.40948483 Ry
     estimated scf accuracy    <       0.00000170 Ry

     iteration # 20     ecut=    30.00 Ry     beta= 0.50
     Davidson diagonalization with overlap
     ethr =  6.65E-10,  avg # of iterations =  8.0

     total cpu time spent up to now is        6.3 secs

     End of self-consistent calculation

          k = 0.0000 0.0000 0.0000 ( 11792 PWs)   bands (ev):

    -5.5739  -4.7301  -4.6162  -4.4990  -4.4342  -4.3043  -4.1562  -3.7327
    -3.6018  -3.5026  -3.4205  -3.3886  -3.2998  -3.1992  -3.1817  -3.1156
    -2.9658  -2.8456  -2.8067  -2.5808  -2.4031  -2.2739  -2.1533  -2.0077
    -1.8841  -1.7883  -1.5159  -1.2897  -1.2404  -1.1331  -0.9675  -0.7877
    -0.7105  -0.6855  -0.6165  -0.5009  -0.3733  -0.2887  -0.2610  -0.1328
    -0.0545   0.1044   0.1978   0.2782   0.3789   0.3949   0.5078   0.5431
     0.6002   0.7625   0.8215   1.0080   1.0542   1.1683   1.2037   1.3187
     1.3806   1.5320   1.6202   1.6322   1.9010   1.9488   2.0338   2.1708
     2.2421   2.3194   2.3844   2.4068   2.4417   2.6514   2.7271   2.7892
     2.8376   2.8850   2.9693   3.0120   3.1199   3.2073   3.2285   3.3857
     3.4139   3.7087   3.8796   3.9245   3.9464   4.0732   4.1230   4.1848
     4.2109   4.3121   4.4203   4.5236   4.5286   4.6587   4.7281   4.8166
     4.8285   4.9021   4.9328   4.9997   5.0249   5.0683   5.1818   5.2467
     5.3030   5.3335   5.3881   5.4604   5.4690   5.5405   5.6531   5.6912
     5.7207   5.7688   5.8434   5.8887   5.9682   6.0373   6.0992   6.1526
     6.2113   6.2821   6.3723   6.4172   6.4870   6.5529   6.6345   6.6572

     highest occupied level (ev):     6.6572

!    total energy              =    -501.40948453 Ry
     estimated scf accuracy    <       0.00000064 Ry

     The total energy is the sum of the following terms:
     one-electron contribution =     173.22641822 Ry
     hartree contribution      =      27.62627685 Ry
     xc contribution           =    -150.37085107 Ry
     ewald contribution        =    -551.89132854 Ry

     convergence has been achieved in  20 iterations

     Forces acting on atoms (cartesian axes, Ry/au):

     atom    1 type  1   force =     0.01707696   -0.02611555    0.03308378
     atom    2 type  1   force =    -0.02169076    0.03657364   -0.01791886
     atom    3 type  1   force =     0.00155037    0.03292397   -0.02274136
     atom    4 type  1   force =     0.01221769   -0.00854593   -0.00528484
     atom    5 type  1   force =    -0.01445112    0.01763570   -0.05832247
     atom    6 type  1   force =     0.03091461    0.04244775   -0.06089305
     atom    7 type  1   force =    -0.01900335    0.06757920    0.04118416
     atom    8 type  1   force =    -0.00366543    0.03454350    0.00699371
     atom    9 type  1   force =    -0.01883395   -0.00760895   -0.00490823
     atom   10 type  1   force =     0.02653483    0.00766784   -0.01079746
     atom   11 type  1   force =     0.01276438   -0.01027856    0.00390055
     atom   12 type  1   force =    -0.01352476    0.02748749    0.08468760
     atom   13 type  1   force =    -0.02560465    0.09989501    0.02661156
     atom   14 type  1   force =    -0.02045185   -0.06394449   -0.04814067
     atom   15 type  1   force =     0.00240587    0.00467241    0.01397291
     atom   16 type  1   force =     0.01648547   -0.02361868   -0.01161473
     atom   17 type  1   force =    -0.00880315   -0.01855498    0.01937511
     atom   18 type  1   force =    -0.02693089   -0.01577034    0.04771557
     atom   19 type  1   force =     0.00519247   -0.00966515   -0.01327312
     atom   20 type  1   force =     0.02519634   -0.02098898    0.03471122
     atom   21 type  1   force =     0.00523417   -0.00959882    0.00454996
     atom   22 type  1   force =    -0.00391583    0.03694989   -0.00601025
     atom   23 type  1   force =     0.00898674   -0.06206205   -0.00475945
     atom   24 type  1   force =    -0.02140098    0.00448312    0.00185112
     atom   25 type  1   force =     0.01610586   -0.01726768   -0.02656536
     atom   26 type  1   force =     0.00624245   -0.06384492    0.02471066
     atom   27 type  1   force =    -0.00870975   -0.04825564   -0.00679417
     atom   28 type  1   force =    -0.02023761    0.00652147    0.01938370
     atom   29 type  1   force =     0.00337639    0.00187004   -0.02602095
     atom   30 type  1   force =     0.00841696    0.02434520   -0.03761953
     atom   31 type  1   force =     0.00150986    0.02111449   -0.03252384
     atom   32 type  1   force =    -0.00256644   -0.00307117   -0.01456793
     atom   33 type  1   force =     0.02205113   -0.05450117   -0.04737712
     atom   34 type  1   force =     0.00106972   -0.01780804    0.02679915
     atom   35 type  1   force =     0.00258180   -0.00806784   -0.00960383
     atom   36 type  1   force =    -0.00044949   -0.05139684   -0.04474692
     atom   37 type  1   force =    -0.03317071    0.00761704   -0.01304324
     atom   38 type  1   force =     0.01746589    0.03642104   -0.00138968
     atom   39 type  1   force =     0.06218949    0.01453605   -0.00513442
     atom   40 type  1   force =     0.02596390   -0.02982026   -0.03301492
     atom   41 type  1   force =    -0.00919940    0.00715786    0.00329471
     atom   42 type  1   force =    -0.03734395    0.06822338   -0.01583719
     atom   43 type  1   force =     0.00702676   -0.00538872   -0.02179869
     atom   44 type  1   force =     0.01934726    0.03067527    0.00559814
     atom   45 type  1   force =    -0.02496735   -0.00448170    0.03597581
     atom   46 type  1   force =    -0.01131871   -0.01157013   -0.01585654
     atom   47 type  1   force =    -0.02437447    0.00693285    0.02795738
     atom   48 type  1   force =     0.01558868    0.05717667   -0.01098970
     atom   49 type  1   force =     0.05890205   -0.02559041    0.01351726
     atom   50 type  1   force =    -0.02467880    0.01599234   -0.01224965
     atom   51 type  1   force =     0.00881778   -0.04993465   -0.00039323
     atom   52 type  1   force =     0.02252207   -0.04320671    0.01957864
     atom   53 type  1   force =    -0.07245895    0.09612183    0.05453511
     atom   54 type  1   force =     0.01313538    0.00342271   -0.00177095
     atom   55 type  1   force =     0.04249240   -0.01418510    0.02884460
     atom   56 type  1   force =    -0.05143175    0.04392513   -0.00332602
     atom   57 type  1   force =     0.07786924    0.03404774    0.00249643
     atom   58 type  1   force =    -0.00930410   -0.00217948   -0.00810756
     atom   59 type  1   force =    -0.00737544   -0.00106655    0.01364655
     atom   60 type  1   force =    -0.00088185    0.01505832    0.00698650
     atom   61 type  1   force =    -0.03238361   -0.02571005    0.01932591
     atom   62 type  1   force =     0.01012295   -0.01564533    0.03508563
     atom   63 type  1   force =    -0.01101023   -0.03460845    0.04633340
     atom   64 type  1   force =    -0.02721859   -0.09966566   -0.04931094

     Total force =     0.425157     Total SCF correction =     0.001519


     Computing stress (Cartesian axis) and pressure

          total   stress  (Ry/bohr**3)                   (kbar)     P=      -35.43
  -0.00033903  -0.00007661   0.00001946          -49.87      -11.27        2.86
  -0.00007661  -0.00009191   0.00005418          -11.27      -13.52        7.97
   0.00001946   0.00005418  -0.00029152            2.86        7.97      -42.88

 
     init_run     :      0.94s CPU      4.00s WALL (       1 calls)
     electrons    :      2.15s CPU      2.28s WALL (       1 calls)
     forces       :      0.03s CPU      0.03s WALL (       1 calls)
     stress       :      0.12s CPU      0.13s WALL (       1 calls)

     Called by init_run:
     wfcinit      :      0.43s CPU      3.35s WALL (       1 calls)
                                        3.35s GPU  (       1 calls)
     potinit      :      0.04s CPU      0.11s WALL (       1 calls)
     hinit0       :      0.45s CPU      0.47s WALL (       1 calls)

     Called by electrons:
     c_bands      :      1.56s CPU      1.62s WALL (      21 calls)
     sum_band     :      0.28s CPU      0.32s WALL (      21 calls)
     v_of_rho     :      0.14s CPU      0.22s WALL (      21 calls)
     mix_rho      :      0.15s CPU      0.16s WALL (      21 calls)

     Called by c_bands:
     init_us_2    :      0.05s CPU      0.06s WALL (      43 calls)
     init_us_2:gp :      0.05s CPU      0.06s WALL (      43 calls)
     regterg      :      1.41s CPU      1.47s WALL (      21 calls)

     Called by *egterg:
     rdiaghg      :      0.71s CPU      1.31s WALL (     200 calls)
                                        1.28s GPU  (     200 calls)
     h_psi        :      0.91s CPU      3.27s WALL (     202 calls)
                                        3.27s GPU  (     202 calls)
     g_psi        :      0.00s CPU      0.00s WALL (     180 calls)
                                        0.00s GPU  (     180 calls)

     Called by h_psi:
     h_psi:calbec :      0.43s CPU      2.73s WALL (     202 calls)
                                        2.73s GPU  (     202 calls)
     vloc_psi     :      0.37s CPU      0.44s WALL (     202 calls)
                                        0.43s GPU  (     202 calls)
     add_vuspsi   :      0.07s CPU      0.09s WALL (     202 calls)
                                        0.09s GPU  (     202 calls)

     General routines
     calbec       :      0.44s CPU      2.73s WALL (     207 calls)
     fft          :      0.55s CPU      0.65s WALL (     175 calls)
                                        0.11s GPU  (     111 calls)
     ffts         :      0.03s CPU      0.03s WALL (      21 calls)
     fftw         :      0.43s CPU      0.57s WALL (    2076 calls)
                                        0.50s GPU  (    2076 calls)
 
     Parallel routines
 
     PWSCF        :      3.28s CPU      6.50s WALL

 
   This run was terminated on:  15: 4:39   9May2023            

=------------------------------------------------------------------------------=
   JOB DONE.
=------------------------------------------------------------------------------=
