An instance of this daemon is already running
An instance of this daemon is already running

     Program PWSCF v.7.1 starts on  9May2023 at 15:14:40 

     This program is part of the open-source Quantum ESPRESSO suite
     for quantum simulation of materials; please cite
         "P. Giannozzi et al., J. Phys.:Condens. Matter 21 395502 (2009);
         "P. Giannozzi et al., J. Phys.:Condens. Matter 29 465901 (2017);
         "P. Giannozzi et al., J. Chem. Phys. 152 154105 (2020);
          URL http://www.quantum-espresso.org", 
     in publications or presentations arising from this work. More details at
     http://www.quantum-espresso.org/quote

     Parallel version (MPI & OpenMP), running on       4 processor cores
     Number of MPI processes:                 4
     Threads/MPI process:                     1

     MPI processes distributed on     1 nodes
     61342 MiB available memory on the printing compute node when the environment starts
 
     Reading input from pw-si-46.in
Warning: card &CELL ignored
Warning: card / ignored

     Current dimensions of program PWSCF are:
     Max number of different atomic species (ntypx) = 10
     Max number of k-points (npk) =  40000
     Max angular momentum in pseudopotentials (lmaxx) =  4

     IMPORTANT: XC functional enforced from input :
     Exchange-correlation= PBE
                           (   1   4   3   4   0   0   0)
     Any further DFT definition will be discarded
     Please, verify this is what you really want


     gamma-point specific algorithms are used
 
     K-points division:     npool     =       2
     R & G space division:  proc/nbgrp/npool/nimage =       2
     Subspace diagonalization in iterative solution of the eigenvalue problem:
     a serial algorithm will be used

     Message from routine divide_et_impera:
     suboptimal parallelization: some nodes have no k-points
 
     Parallelization info
     --------------------
     sticks:   dense  smooth     PW     G-vecs:    dense   smooth      PW
     Min        1953    1953    520                91863    91863   12584
     Max        1956    1956    521                91868    91868   12589
     Sum        3909    3909   1041               183731   183731   25173
 
     Using Slab Decomposition
 


     bravais-lattice index     =            0
     lattice parameter (alat)  =      20.2381  a.u.
     unit-cell volume          =    8289.1115 (a.u.)^3
     number of atoms/cell      =           64
     number of atomic types    =            1
     number of electrons       =       256.00
     number of Kohn-Sham states=          128
     kinetic-energy cutoff     =      30.0000  Ry
     charge density cutoff     =     120.0000  Ry
     scf convergence threshold =      1.0E-06
     mixing beta               =       0.5000
     number of iterations used =            8  plain     mixing
     Exchange-correlation= PBE
                           (   1   4   3   4   0   0   0)

     GPU acceleration is ACTIVE.
     GPU-aware MPI enabled

     Message from routine print_cuda_info:
     High GPU oversubscription detected. Are you sure this is what you want?

     celldm(1)=  20.238081  celldm(2)=   0.000000  celldm(3)=   0.000000
     celldm(4)=   0.000000  celldm(5)=   0.000000  celldm(6)=   0.000000

     crystal axes: (cart. coord. in units of alat)
               a(1) = (   1.000000   0.000000   0.000000 )  
               a(2) = (   0.000000   1.000000   0.000000 )  
               a(3) = (   0.000000   0.000000   1.000000 )  

     reciprocal axes: (cart. coord. in units 2 pi/alat)
               b(1) = (  1.000000  0.000000  0.000000 )  
               b(2) = (  0.000000  1.000000  0.000000 )  
               b(3) = (  0.000000  0.000000  1.000000 )  


     PseudoPot. # 1 for Si read from file:
     /home/ppiaggi/pseudos/Si_ONCV_PBE_sr.upf
     MD5 check sum: 8553c464762ac42b85b1eed164b4d029
     Pseudo is Norm-conserving, Zval =  4.0
     Generated using ONCVPSP code by D. R. Hamann
     Using radial grid of 1510 points,  4 beta functions with: 
                l(1) =   0
                l(2) =   0
                l(3) =   1
                l(4) =   1

     atomic species   valence    mass     pseudopotential
        Si             4.00    28.08500     Si( 1.00)

     No symmetry found



   Cartesian axes

     site n.     atom                  positions (alat units)
         1           Si  tau(   1) = (   0.1860400   0.7219330   0.1707700  )
         2           Si  tau(   2) = (   0.8377120   0.2056470   0.3304210  )
         3           Si  tau(   3) = (   0.5327250   0.7174570   0.7883680  )
         4           Si  tau(   4) = (   0.6462230   0.6614180   0.5823570  )
         5           Si  tau(   5) = (   0.9198950   0.5310360   0.6461100  )
         6           Si  tau(   6) = (   0.4403630   0.8481770   0.4603680  )
         7           Si  tau(   7) = (   0.1250780   0.8187050   0.9843070  )
         8           Si  tau(   8) = (   0.1168570   0.2290630   0.4553080  )
         9           Si  tau(   9) = (   0.9087640   0.0299910   0.8240390  )
        10           Si  tau(  10) = (   0.4908530   0.9198880   0.6513370  )
        11           Si  tau(  11) = (   0.0161678   0.1124490   0.1494340  )
        12           Si  tau(  12) = (   0.3070840   0.3633930   0.9317450  )
        13           Si  tau(  13) = (   0.7940840   0.3020530   0.0772184  )
        14           Si  tau(  14) = (   0.6979280   0.2954770   0.6037710  )
        15           Si  tau(  15) = (   0.3848840   0.6473220   0.1461460  )
        16           Si  tau(  16) = (   0.8870930   0.8192770   0.2177670  )
        17           Si  tau(  17) = (   0.7392520   0.8522280   0.8198050  )
        18           Si  tau(  18) = (   0.7300660   0.0170695   0.4601810  )
        19           Si  tau(  19) = (   0.6994570   0.4769940   0.4637290  )
        20           Si  tau(  20) = (   0.5971390   0.2237230   0.2757950  )
        21           Si  tau(  21) = (   0.1613540   0.8489180   0.5422450  )
        22           Si  tau(  22) = (   0.0589085   0.6170710   0.8762680  )
        23           Si  tau(  23) = (   0.1367670   0.1400580   0.8986430  )
        24           Si  tau(  24) = (   0.9203430   0.5198370   0.0491466  )
        25           Si  tau(  25) = (   0.2861540   0.9833590   0.9594050  )
        26           Si  tau(  26) = (   0.7547690   0.1843520   0.8780440  )
        27           Si  tau(  27) = (   0.5228360   0.9964790   0.2994950  )
        28           Si  tau(  28) = (   0.9199940   0.2711940   0.6302440  )
        29           Si  tau(  29) = (   0.2550920   0.6834160   0.7788500  )
        30           Si  tau(  30) = (   0.6323320   0.3850320   0.8054470  )
        31           Si  tau(  31) = (   0.8367220   0.8540470   0.5778490  )
        32           Si  tau(  32) = (   0.0009923   0.6764720   0.4849320  )
        33           Si  tau(  33) = (   0.9779830   0.5978330   0.2419360  )
        34           Si  tau(  34) = (   0.2397660   0.8752600   0.3236860  )
        35           Si  tau(  35) = (   0.4659030   0.3875270   0.4061250  )
        36           Si  tau(  36) = (   0.4204780   0.1606520   0.5929720  )
        37           Si  tau(  37) = (   0.4534400   0.3991760   0.6624610  )
        38           Si  tau(  38) = (   0.1662300   0.3812360   0.7458940  )
        39           Si  tau(  39) = (   0.0215983   0.0300900   0.6267570  )
        40           Si  tau(  40) = (   0.6011060   0.5731070   0.2725350  )
        41           Si  tau(  41) = (   0.1125770   0.3392040   0.0857583  )
        42           Si  tau(  42) = (   0.6804230   0.7810240   0.3738390  )
        43           Si  tau(  43) = (   0.6989960   0.5764390   0.0294139  )
        44           Si  tau(  44) = (   0.6633610   0.0671568   0.6736350  )
        45           Si  tau(  45) = (   0.1461120   0.4455950   0.4131330  )
        46           Si  tau(  46) = (   0.9385100   0.9437590   0.0225611  )
        47           Si  tau(  47) = (   0.6189700   0.0760892   0.0531793  )
        48           Si  tau(  48) = (   0.3152290   0.3934200   0.2068310  )
        49           Si  tau(  49) = (   0.2849790   0.9179850   0.7267750  )
        50           Si  tau(  50) = (   0.7342970   0.7910490   0.0547238  )
        51           Si  tau(  51) = (   0.9032680   0.4159560   0.3858530  )
        52           Si  tau(  52) = (   0.9425280   0.3368920   0.8604230  )
        53           Si  tau(  53) = (   0.4260170   0.6304980   0.5329720  )
        54           Si  tau(  54) = (   0.2090510   0.0417019   0.1783370  )
        55           Si  tau(  55) = (   0.5150610   0.8220220   0.1492340  )
        56           Si  tau(  56) = (   0.4601620   0.1991500   0.8744120  )
        57           Si  tau(  57) = (   0.1976780   0.1676970   0.6666620  )
        58           Si  tau(  58) = (   0.7590260   0.5880880   0.8031400  )
        59           Si  tau(  59) = (   0.4812490   0.9142370   0.9389520  )
        60           Si  tau(  60) = (   0.4167900   0.5720030   0.9249990  )
        61           Si  tau(  61) = (   0.9662970   0.9811940   0.3631750  )
        62           Si  tau(  62) = (   0.1956810   0.5756440   0.5850070  )
        63           Si  tau(  63) = (   0.5545030   0.3499770   0.0815555  )
        64           Si  tau(  64) = (   0.3210310   0.1737200   0.3414090  )

     number of k points=     1
                       cart. coord. in units 2pi/alat
        k(    1) = (   0.0000000   0.0000000   0.0000000), wk =   2.0000000

     Dense  grid:    91866 G-vectors     FFT dimensions: (  72,  72,  72)

     Estimated max dynamical RAM per process >     135.24 MB

     Estimated total dynamical RAM >     518.53 MB

     Initial potential from superposition of free atoms

     starting charge     255.9608, renormalised to     256.0000
     Starting wfcs are  256 randomized atomic wfcs

     total cpu time spent up to now is        4.4 secs

     Self-consistent Calculation

     iteration #  1     ecut=    30.00 Ry     beta= 0.50
     Davidson diagonalization with overlap
     ethr =  1.00E-02,  avg # of iterations =  2.0

     Threshold (ethr) on eigenvalues was too large:
     Diagonalizing with lowered threshold

     Davidson diagonalization with overlap
     ethr =  3.86E-04,  avg # of iterations =  5.0

     total cpu time spent up to now is        4.5 secs

     total energy              =    -500.95911248 Ry
     estimated scf accuracy    <       1.28356803 Ry

     iteration #  2     ecut=    30.00 Ry     beta= 0.50
     Davidson diagonalization with overlap
     ethr =  5.01E-04,  avg # of iterations = 14.0

     total cpu time spent up to now is        4.7 secs

     total energy              =    -500.43679356 Ry
     estimated scf accuracy    <       7.07091088 Ry

     iteration #  3     ecut=    30.00 Ry     beta= 0.50
     Davidson diagonalization with overlap
     ethr =  5.01E-04,  avg # of iterations = 10.0

     total cpu time spent up to now is        4.8 secs

     total energy              =    -501.08128239 Ry
     estimated scf accuracy    <       1.88294293 Ry

     iteration #  4     ecut=    30.00 Ry     beta= 0.50
     Davidson diagonalization with overlap
     ethr =  5.01E-04,  avg # of iterations =  7.0

     total cpu time spent up to now is        4.9 secs

     total energy              =    -501.24662737 Ry
     estimated scf accuracy    <       0.30744760 Ry

     iteration #  5     ecut=    30.00 Ry     beta= 0.50
     Davidson diagonalization with overlap
     ethr =  1.20E-04,  avg # of iterations =  9.0

     total cpu time spent up to now is        5.0 secs

     total energy              =    -501.27637033 Ry
     estimated scf accuracy    <       0.17495333 Ry

     iteration #  6     ecut=    30.00 Ry     beta= 0.50
     Davidson diagonalization with overlap
     ethr =  6.83E-05,  avg # of iterations = 11.0

     total cpu time spent up to now is        5.2 secs

     total energy              =    -501.29025197 Ry
     estimated scf accuracy    <       0.17091311 Ry

     iteration #  7     ecut=    30.00 Ry     beta= 0.50
     Davidson diagonalization with overlap
     ethr =  6.68E-05,  avg # of iterations =  3.0

     total cpu time spent up to now is        5.2 secs

     total energy              =    -501.29208717 Ry
     estimated scf accuracy    <       0.05116699 Ry

     iteration #  8     ecut=    30.00 Ry     beta= 0.50
     Davidson diagonalization with overlap
     ethr =  2.00E-05,  avg # of iterations = 15.0

     total cpu time spent up to now is        5.4 secs

     total energy              =    -501.30167151 Ry
     estimated scf accuracy    <       0.02055664 Ry

     iteration #  9     ecut=    30.00 Ry     beta= 0.50
     Davidson diagonalization with overlap
     ethr =  8.03E-06,  avg # of iterations =  3.0

     total cpu time spent up to now is        5.5 secs

     total energy              =    -501.30090637 Ry
     estimated scf accuracy    <       0.01312098 Ry

     iteration # 10     ecut=    30.00 Ry     beta= 0.50
     Davidson diagonalization with overlap
     ethr =  5.13E-06,  avg # of iterations = 15.0

     total cpu time spent up to now is        5.6 secs

     total energy              =    -501.30230898 Ry
     estimated scf accuracy    <       0.00095625 Ry

     iteration # 11     ecut=    30.00 Ry     beta= 0.50
     Davidson diagonalization with overlap
     ethr =  3.74E-07,  avg # of iterations = 13.0

     total cpu time spent up to now is        5.7 secs

     total energy              =    -501.30251785 Ry
     estimated scf accuracy    <       0.00322547 Ry

     iteration # 12     ecut=    30.00 Ry     beta= 0.50
     Davidson diagonalization with overlap
     ethr =  3.74E-07,  avg # of iterations =  6.0

     total cpu time spent up to now is        5.8 secs

     total energy              =    -501.30244327 Ry
     estimated scf accuracy    <       0.00094613 Ry

     iteration # 13     ecut=    30.00 Ry     beta= 0.50
     Davidson diagonalization with overlap
     ethr =  3.70E-07,  avg # of iterations = 13.0

     total cpu time spent up to now is        6.0 secs

     total energy              =    -501.30267683 Ry
     estimated scf accuracy    <       0.00093522 Ry

     iteration # 14     ecut=    30.00 Ry     beta= 0.50
     Davidson diagonalization with overlap
     ethr =  3.65E-07,  avg # of iterations =  2.0

     total cpu time spent up to now is        6.0 secs

     total energy              =    -501.30262689 Ry
     estimated scf accuracy    <       0.00080203 Ry

     iteration # 15     ecut=    30.00 Ry     beta= 0.50
     Davidson diagonalization with overlap
     ethr =  3.13E-07,  avg # of iterations =  2.0

     total cpu time spent up to now is        6.1 secs

     total energy              =    -501.30261315 Ry
     estimated scf accuracy    <       0.00036259 Ry

     iteration # 16     ecut=    30.00 Ry     beta= 0.50
     Davidson diagonalization with overlap
     ethr =  1.42E-07,  avg # of iterations =  9.0

     total cpu time spent up to now is        6.2 secs

     total energy              =    -501.30264713 Ry
     estimated scf accuracy    <       0.00003044 Ry

     iteration # 17     ecut=    30.00 Ry     beta= 0.50
     Davidson diagonalization with overlap
     ethr =  1.19E-08,  avg # of iterations = 18.0

     total cpu time spent up to now is        6.4 secs

     total energy              =    -501.30265962 Ry
     estimated scf accuracy    <       0.00006548 Ry

     iteration # 18     ecut=    30.00 Ry     beta= 0.50
     Davidson diagonalization with overlap
     ethr =  1.19E-08,  avg # of iterations =  3.0

     total cpu time spent up to now is        6.5 secs

     total energy              =    -501.30265820 Ry
     estimated scf accuracy    <       0.00004445 Ry

     iteration # 19     ecut=    30.00 Ry     beta= 0.50
     Davidson diagonalization with overlap
     ethr =  1.19E-08,  avg # of iterations =  2.0

     total cpu time spent up to now is        6.5 secs

     total energy              =    -501.30265695 Ry
     estimated scf accuracy    <       0.00002559 Ry

     iteration # 20     ecut=    30.00 Ry     beta= 0.50
     Davidson diagonalization with overlap
     ethr =  1.00E-08,  avg # of iterations = 13.0

     total cpu time spent up to now is        6.7 secs

     total energy              =    -501.30265826 Ry
     estimated scf accuracy    <       0.00000664 Ry

     iteration # 21     ecut=    30.00 Ry     beta= 0.50
     Davidson diagonalization with overlap
     ethr =  2.59E-09,  avg # of iterations = 11.0

     total cpu time spent up to now is        6.8 secs

     total energy              =    -501.30265865 Ry
     estimated scf accuracy    <       0.00000193 Ry

     iteration # 22     ecut=    30.00 Ry     beta= 0.50
     Davidson diagonalization with overlap
     ethr =  7.53E-10,  avg # of iterations =  6.0

     total cpu time spent up to now is        6.9 secs

     total energy              =    -501.30265908 Ry
     estimated scf accuracy    <       0.00000155 Ry

     iteration # 23     ecut=    30.00 Ry     beta= 0.50
     Davidson diagonalization with overlap
     ethr =  6.04E-10,  avg # of iterations =  8.0

     total cpu time spent up to now is        7.0 secs

     total energy              =    -501.30265910 Ry
     estimated scf accuracy    <       0.00000172 Ry

     iteration # 24     ecut=    30.00 Ry     beta= 0.50
     Davidson diagonalization with overlap
     ethr =  6.04E-10,  avg # of iterations =  3.0

     total cpu time spent up to now is        7.1 secs

     total energy              =    -501.30265907 Ry
     estimated scf accuracy    <       0.00000118 Ry

     iteration # 25     ecut=    30.00 Ry     beta= 0.50
     Davidson diagonalization with overlap
     ethr =  4.62E-10,  avg # of iterations =  2.0

     total cpu time spent up to now is        7.1 secs

     End of self-consistent calculation

          k = 0.0000 0.0000 0.0000 ( 11492 PWs)   bands (ev):

    -5.3884  -4.4247  -4.4112  -4.2692  -4.1483  -4.0718  -3.8985  -3.4794
    -3.3553  -3.2417  -3.1365  -3.0926  -3.0428  -2.9852  -2.9048  -2.8479
    -2.7780  -2.6562  -2.5331  -2.1912  -2.1279  -1.8810  -1.8455  -1.7917
    -1.6158  -1.5520  -1.4026  -1.0867  -1.0214  -0.7129  -0.6019  -0.4794
    -0.3919  -0.1688  -0.0968   0.0015   0.0020   0.0830   0.1516   0.1961
     0.2291   0.2888   0.4189   0.4560   0.5189   0.6558   0.7344   0.8044
     0.8594   0.9780   0.9866   1.1183   1.2085   1.3912   1.4365   1.5033
     1.6668   1.7213   1.7781   1.9535   2.0062   2.1607   2.2397   2.3901
     2.4067   2.5391   2.5665   2.6822   2.7040   2.7529   2.8237   2.8942
     2.9697   3.0076   3.0701   3.1782   3.3579   3.3608   3.5041   3.5497
     3.7031   3.9028   4.0141   4.0510   4.3051   4.3748   4.4511   4.5238
     4.6441   4.7053   4.7518   4.8109   4.8677   4.9577   5.0373   5.0823
     5.1147   5.2555   5.2907   5.3548   5.3676   5.4820   5.5321   5.5952
     5.6365   5.6756   5.7308   5.7991   5.8112   5.8415   5.8902   5.9771
     6.0557   6.0717   6.1141   6.2141   6.2794   6.3350   6.3484   6.5005
     6.5482   6.6175   6.6580   6.6953   6.7661   6.8346   6.8753   6.8805

     highest occupied level (ev):     6.8805

!    total energy              =    -501.30265845 Ry
     estimated scf accuracy    <       0.00000069 Ry

     The total energy is the sum of the following terms:
     one-electron contribution =     186.23505826 Ry
     hartree contribution      =      23.40091570 Ry
     xc contribution           =    -149.97708799 Ry
     ewald contribution        =    -560.96154442 Ry

     convergence has been achieved in  25 iterations

     Forces acting on atoms (cartesian axes, Ry/au):

     atom    1 type  1   force =    -0.04515338   -0.01339129    0.02656306
     atom    2 type  1   force =    -0.01021753   -0.01459126   -0.02348193
     atom    3 type  1   force =     0.01646272    0.04864187   -0.00767157
     atom    4 type  1   force =     0.00332922    0.01252383    0.00683649
     atom    5 type  1   force =     0.00124188   -0.04044005    0.01768179
     atom    6 type  1   force =    -0.01331619   -0.02155901   -0.07530183
     atom    7 type  1   force =    -0.00961234   -0.00012814   -0.00647645
     atom    8 type  1   force =    -0.00195389   -0.00152954    0.01588825
     atom    9 type  1   force =    -0.01209840    0.01675350   -0.00592805
     atom   10 type  1   force =     0.01905413    0.02027332    0.04891631
     atom   11 type  1   force =    -0.03665963    0.04480195   -0.00122300
     atom   12 type  1   force =    -0.01752465    0.00029134   -0.01643622
     atom   13 type  1   force =    -0.01342904    0.01456729    0.00880915
     atom   14 type  1   force =    -0.01010688    0.00706079   -0.00058213
     atom   15 type  1   force =     0.02037947   -0.05923944   -0.02091983
     atom   16 type  1   force =    -0.01054484   -0.03535627    0.00710762
     atom   17 type  1   force =    -0.01578559    0.00128715    0.00390445
     atom   18 type  1   force =     0.00756516   -0.01276350   -0.01562385
     atom   19 type  1   force =    -0.00181141   -0.00915885    0.00360950
     atom   20 type  1   force =     0.00401136   -0.00030925   -0.02940243
     atom   21 type  1   force =    -0.03217963    0.00456269   -0.04050826
     atom   22 type  1   force =    -0.00664032   -0.00226739    0.01371789
     atom   23 type  1   force =    -0.03048051    0.03565166    0.00612049
     atom   24 type  1   force =     0.00236157   -0.03763792   -0.05516345
     atom   25 type  1   force =    -0.07298020    0.00488977    0.01136471
     atom   26 type  1   force =    -0.01632631    0.00312641    0.02217901
     atom   27 type  1   force =     0.01001135    0.00321715    0.02034522
     atom   28 type  1   force =     0.01909828    0.01695219   -0.00633729
     atom   29 type  1   force =     0.01499917    0.00854551    0.01347737
     atom   30 type  1   force =    -0.00981531   -0.00194114   -0.00686053
     atom   31 type  1   force =     0.00654431   -0.01066770   -0.01924724
     atom   32 type  1   force =     0.00994317    0.02684585    0.00770415
     atom   33 type  1   force =     0.03848674    0.04065417    0.05116964
     atom   34 type  1   force =    -0.00406546   -0.02404346    0.05030146
     atom   35 type  1   force =     0.01594967    0.00117667   -0.02349797
     atom   36 type  1   force =    -0.01327655   -0.00294615   -0.00100362
     atom   37 type  1   force =     0.01187839   -0.01561286    0.00196093
     atom   38 type  1   force =    -0.03317426    0.01829731    0.03304006
     atom   39 type  1   force =    -0.00850233   -0.00485345   -0.01622125
     atom   40 type  1   force =    -0.03016661   -0.00486580   -0.00195388
     atom   41 type  1   force =     0.00490722   -0.03962411   -0.02544171
     atom   42 type  1   force =    -0.01031194    0.00923716    0.00945340
     atom   43 type  1   force =    -0.00283842   -0.03200938    0.00120712
     atom   44 type  1   force =    -0.02124649   -0.00887897   -0.00986632
     atom   45 type  1   force =    -0.01434304   -0.00623765   -0.03896953
     atom   46 type  1   force =     0.02937182   -0.00920702    0.01281732
     atom   47 type  1   force =    -0.00435175    0.03849350   -0.03857959
     atom   48 type  1   force =     0.00012335    0.01957811    0.02641964
     atom   49 type  1   force =     0.01226416   -0.01853261    0.02007328
     atom   50 type  1   force =    -0.02286150    0.02272982    0.00176883
     atom   51 type  1   force =     0.02588817    0.01802730    0.00686782
     atom   52 type  1   force =     0.04593558    0.01034163   -0.00806593
     atom   53 type  1   force =    -0.00642409   -0.01441635   -0.00268307
     atom   54 type  1   force =     0.06733519   -0.00432356    0.00536474
     atom   55 type  1   force =     0.02966423    0.03028503   -0.03696057
     atom   56 type  1   force =     0.01572963    0.00665437    0.00688501
     atom   57 type  1   force =     0.00385622   -0.00233891    0.00634889
     atom   58 type  1   force =    -0.01358806   -0.00738125   -0.01585819
     atom   59 type  1   force =     0.06860447   -0.02520718    0.00489911
     atom   60 type  1   force =    -0.00654359   -0.00675508    0.01753008
     atom   61 type  1   force =    -0.00834405    0.01690478    0.02337715
     atom   62 type  1   force =     0.01419140   -0.01207608    0.03271533
     atom   63 type  1   force =     0.02938319   -0.01238954   -0.00040725
     atom   64 type  1   force =     0.01810298    0.01030805    0.00424765

     Total force =     0.314766     Total SCF correction =     0.001693


     Computing stress (Cartesian axis) and pressure

          total   stress  (Ry/bohr**3)                   (kbar)     P=      -48.00
  -0.00035048  -0.00003800   0.00004806          -51.56       -5.59        7.07
  -0.00003800  -0.00028784   0.00000860           -5.59      -42.34        1.26
   0.00004806   0.00000860  -0.00034059            7.07        1.26      -50.10

 
     init_run     :      0.95s CPU      4.30s WALL (       1 calls)
     electrons    :      2.57s CPU      2.77s WALL (       1 calls)
     forces       :      0.03s CPU      0.03s WALL (       1 calls)
     stress       :      0.12s CPU      0.12s WALL (       1 calls)

     Called by init_run:
     wfcinit      :      0.44s CPU      3.63s WALL (       1 calls)
                                        3.63s GPU  (       1 calls)
     potinit      :      0.04s CPU      0.13s WALL (       1 calls)
     hinit0       :      0.45s CPU      0.48s WALL (       1 calls)

     Called by electrons:
     c_bands      :      1.79s CPU      1.89s WALL (      26 calls)
     sum_band     :      0.38s CPU      0.44s WALL (      26 calls)
     v_of_rho     :      0.16s CPU      0.26s WALL (      26 calls)
     mix_rho      :      0.19s CPU      0.22s WALL (      26 calls)

     Called by c_bands:
     init_us_2    :      0.07s CPU      0.07s WALL (      53 calls)
     init_us_2:gp :      0.07s CPU      0.07s WALL (      53 calls)
     regterg      :      1.60s CPU      1.69s WALL (      26 calls)

     Called by *egterg:
     rdiaghg      :      0.81s CPU      1.48s WALL (     230 calls)
                                        1.44s GPU  (     230 calls)
     h_psi        :      0.99s CPU      3.57s WALL (     232 calls)
                                        3.57s GPU  (     232 calls)
     g_psi        :      0.00s CPU      0.01s WALL (     205 calls)
                                        0.00s GPU  (     205 calls)

     Called by h_psi:
     h_psi:calbec :      0.44s CPU      2.95s WALL (     232 calls)
                                        2.95s GPU  (     232 calls)
     vloc_psi     :      0.42s CPU      0.50s WALL (     232 calls)
                                        0.50s GPU  (     232 calls)
     add_vuspsi   :      0.09s CPU      0.11s WALL (     232 calls)
                                        0.11s GPU  (     232 calls)

     General routines
     calbec       :      0.45s CPU      2.95s WALL (     237 calls)
     fft          :      0.58s CPU      0.70s WALL (     215 calls)
                                        0.12s GPU  (     136 calls)
     ffts         :      0.04s CPU      0.05s WALL (      26 calls)
     fftw         :      0.51s CPU      0.67s WALL (    2510 calls)
                                        0.58s GPU  (    2510 calls)
 
     Parallel routines
 
     PWSCF        :      3.71s CPU      7.30s WALL

 
   This run was terminated on:  15:14:47   9May2023            

=------------------------------------------------------------------------------=
   JOB DONE.
=------------------------------------------------------------------------------=
