An instance of this daemon is already running

     Program PWSCF v.7.1 starts on  9May2023 at 15:15:37 

     This program is part of the open-source Quantum ESPRESSO suite
     for quantum simulation of materials; please cite
         "P. Giannozzi et al., J. Phys.:Condens. Matter 21 395502 (2009);
         "P. Giannozzi et al., J. Phys.:Condens. Matter 29 465901 (2017);
         "P. Giannozzi et al., J. Chem. Phys. 152 154105 (2020);
          URL http://www.quantum-espresso.org", 
     in publications or presentations arising from this work. More details at
     http://www.quantum-espresso.org/quote

     Parallel version (MPI & OpenMP), running on       4 processor cores
     Number of MPI processes:                 4
     Threads/MPI process:                     1

     MPI processes distributed on     1 nodes
     60415 MiB available memory on the printing compute node when the environment starts
 
     Reading input from pw-si-51.in
Warning: card &CELL ignored
Warning: card / ignored

     Current dimensions of program PWSCF are:
     Max number of different atomic species (ntypx) = 10
     Max number of k-points (npk) =  40000
     Max angular momentum in pseudopotentials (lmaxx) =  4

     IMPORTANT: XC functional enforced from input :
     Exchange-correlation= PBE
                           (   1   4   3   4   0   0   0)
     Any further DFT definition will be discarded
     Please, verify this is what you really want


     gamma-point specific algorithms are used
 
     K-points division:     npool     =       2
     R & G space division:  proc/nbgrp/npool/nimage =       2
     Subspace diagonalization in iterative solution of the eigenvalue problem:
     a serial algorithm will be used

     Message from routine divide_et_impera:
     suboptimal parallelization: some nodes have no k-points
 
     Parallelization info
     --------------------
     sticks:   dense  smooth     PW     G-vecs:    dense   smooth      PW
     Min        1945    1945    516                91383    91383   12416
     Max        1948    1948    517                91388    91388   12421
     Sum        3893    3893   1033               182771   182771   24837
 
     Using Slab Decomposition
 


     bravais-lattice index     =            0
     lattice parameter (alat)  =      20.1936  a.u.
     unit-cell volume          =    8234.5836 (a.u.)^3
     number of atoms/cell      =           64
     number of atomic types    =            1
     number of electrons       =       256.00
     number of Kohn-Sham states=          128
     kinetic-energy cutoff     =      30.0000  Ry
     charge density cutoff     =     120.0000  Ry
     scf convergence threshold =      1.0E-06
     mixing beta               =       0.5000
     number of iterations used =            8  plain     mixing
     Exchange-correlation= PBE
                           (   1   4   3   4   0   0   0)

     GPU acceleration is ACTIVE.
     GPU-aware MPI enabled

     Message from routine print_cuda_info:
     High GPU oversubscription detected. Are you sure this is what you want?

     celldm(1)=  20.193606  celldm(2)=   0.000000  celldm(3)=   0.000000
     celldm(4)=   0.000000  celldm(5)=   0.000000  celldm(6)=   0.000000

     crystal axes: (cart. coord. in units of alat)
               a(1) = (   1.000000   0.000000   0.000000 )  
               a(2) = (   0.000000   1.000000   0.000000 )  
               a(3) = (   0.000000   0.000000   1.000000 )  

     reciprocal axes: (cart. coord. in units 2 pi/alat)
               b(1) = (  1.000000  0.000000  0.000000 )  
               b(2) = (  0.000000  1.000000  0.000000 )  
               b(3) = (  0.000000  0.000000  1.000000 )  


     PseudoPot. # 1 for Si read from file:
     /home/ppiaggi/pseudos/Si_ONCV_PBE_sr.upf
     MD5 check sum: 8553c464762ac42b85b1eed164b4d029
     Pseudo is Norm-conserving, Zval =  4.0
     Generated using ONCVPSP code by D. R. Hamann
     Using radial grid of 1510 points,  4 beta functions with: 
                l(1) =   0
                l(2) =   0
                l(3) =   1
                l(4) =   1

     atomic species   valence    mass     pseudopotential
        Si             4.00    28.08500     Si( 1.00)

     No symmetry found



   Cartesian axes

     site n.     atom                  positions (alat units)
         1           Si  tau(   1) = (   0.4872610   0.2820170   0.0225835  )
         2           Si  tau(   2) = (   0.0226107   0.2268260   0.2956310  )
         3           Si  tau(   3) = (   0.8826260   0.8173810   0.8921270  )
         4           Si  tau(   4) = (   0.1281020   0.0224643   0.3760150  )
         5           Si  tau(   5) = (   0.2050680   0.6354420   0.5630500  )
         6           Si  tau(   6) = (   0.0424555   0.2819020   0.7535800  )
         7           Si  tau(   7) = (   0.3871880   0.6383370   0.8509910  )
         8           Si  tau(   8) = (   0.2666030   0.3554510   0.4626500  )
         9           Si  tau(   9) = (   0.0698835   0.9777470   0.8885170  )
        10           Si  tau(  10) = (   0.0408704   0.1970550   0.0611853  )
        11           Si  tau(  11) = (   0.3910110   0.5492720   0.0486246  )
        12           Si  tau(  12) = (   0.4555570   0.4856940   0.6811140  )
        13           Si  tau(  13) = (   0.1418690   0.8034790   0.1683120  )
        14           Si  tau(  14) = (   0.6284040   0.6868750   0.1070090  )
        15           Si  tau(  15) = (   0.5725250   0.2466950   0.4804440  )
        16           Si  tau(  16) = (   0.3226090   0.9420720   0.2209250  )
        17           Si  tau(  17) = (   0.6159530   0.4549050   0.1357180  )
        18           Si  tau(  18) = (   0.4632270   0.7783100   0.2967450  )
        19           Si  tau(  19) = (   0.7390310   0.3402130   0.3177190  )
        20           Si  tau(  20) = (   0.8727770   0.3842320   0.6384270  )
        21           Si  tau(  21) = (   0.8352970   0.8128900   0.5411320  )
        22           Si  tau(  22) = (   0.2309620   0.1690740   0.9300010  )
        23           Si  tau(  23) = (   0.8604380   0.2659260   0.9076450  )
        24           Si  tau(  24) = (   0.3573740   0.9868990   0.0103477  )
        25           Si  tau(  25) = (   0.2411740   0.4255930   0.8600020  )
        26           Si  tau(  26) = (   0.6691130   0.9117830   0.7524860  )
        27           Si  tau(  27) = (   0.2279620   0.0076732   0.5631450  )
        28           Si  tau(  28) = (   0.7523480   0.7587040   0.3191200  )
        29           Si  tau(  29) = (   0.5893280   0.7143000   0.8706230  )
        30           Si  tau(  30) = (   0.0379862   0.0637624   0.6824410  )
        31           Si  tau(  31) = (   0.8355480   0.6397590   0.0181325  )
        32           Si  tau(  32) = (   0.9530940   0.6677850   0.2643980  )
        33           Si  tau(  33) = (   0.8878640   0.4090160   0.1280380  )
        34           Si  tau(  34) = (   0.4445040   0.0823335   0.5823760  )
        35           Si  tau(  35) = (   0.5217000   0.2960640   0.8131920  )
        36           Si  tau(  36) = (   0.3092320   0.8194420   0.6266610  )
        37           Si  tau(  37) = (   0.6934340   0.5333100   0.7150490  )
        38           Si  tau(  38) = (   0.3498900   0.6109890   0.3720310  )
        39           Si  tau(  39) = (   0.2715720   0.2613950   0.6672680  )
        40           Si  tau(  40) = (   0.4780850   0.0645913   0.8002780  )
        41           Si  tau(  41) = (   0.8217470   0.0525128   0.6162750  )
        42           Si  tau(  42) = (   0.5841310   0.0774362   0.0614590  )
        43           Si  tau(  43) = (   0.4777380   0.4539460   0.4393900  )
        44           Si  tau(  44) = (   0.8092380   0.1208500   0.3867150  )
        45           Si  tau(  45) = (   0.2184130   0.5802150   0.1973840  )
        46           Si  tau(  46) = (   0.7306820   0.4578500   0.9425500  )
        47           Si  tau(  47) = (   0.6365710   0.6159310   0.4876690  )
        48           Si  tau(  48) = (   0.0754176   0.4422410   0.3628170  )
        49           Si  tau(  49) = (   0.6037280   0.9424290   0.4160010  )
        50           Si  tau(  50) = (   0.8605830   0.4846550   0.4249930  )
        51           Si  tau(  51) = (   0.0865626   0.5498340   0.7441070  )
        52           Si  tau(  52) = (   0.8504670   0.6725240   0.6966360  )
        53           Si  tau(  53) = (   0.9880170   0.9727720   0.1110000  )
        54           Si  tau(  54) = (   0.0941241   0.4729870   0.0534431  )
        55           Si  tau(  55) = (   0.7229880   0.2153290   0.7025550  )
        56           Si  tau(  56) = (   0.5256820   0.1319770   0.2879460  )
        57           Si  tau(  57) = (   0.7588140   0.9607000   0.1806860  )
        58           Si  tau(  58) = (   0.0560145   0.7869940   0.4707450  )
        59           Si  tau(  59) = (   0.2856620   0.1998270   0.3052110  )
        60           Si  tau(  60) = (   0.5427500   0.7865880   0.5881750  )
        61           Si  tau(  61) = (   0.2810890   0.3171250   0.1238800  )
        62           Si  tau(  62) = (   0.7785520   0.0472317   0.9434140  )
        63           Si  tau(  63) = (   0.2637480   0.8321150   0.8521720  )
        64           Si  tau(  64) = (   0.0969720   0.6771880   0.9369360  )

     number of k points=     1
                       cart. coord. in units 2pi/alat
        k(    1) = (   0.0000000   0.0000000   0.0000000), wk =   2.0000000

     Dense  grid:    91386 G-vectors     FFT dimensions: (  72,  72,  72)

     Estimated max dynamical RAM per process >     134.47 MB

     Estimated total dynamical RAM >     515.57 MB

     Initial potential from superposition of free atoms

     starting charge     255.9608, renormalised to     256.0000
     Starting wfcs are  256 randomized atomic wfcs

     total cpu time spent up to now is        4.1 secs

     Self-consistent Calculation

     iteration #  1     ecut=    30.00 Ry     beta= 0.50
     Davidson diagonalization with overlap
     ethr =  1.00E-02,  avg # of iterations =  2.0

     Threshold (ethr) on eigenvalues was too large:
     Diagonalizing with lowered threshold

     Davidson diagonalization with overlap
     ethr =  3.76E-04,  avg # of iterations =  6.0

     total cpu time spent up to now is        4.3 secs

     total energy              =    -501.36999833 Ry
     estimated scf accuracy    <       1.17624694 Ry

     iteration #  2     ecut=    30.00 Ry     beta= 0.50
     Davidson diagonalization with overlap
     ethr =  4.59E-04,  avg # of iterations =  8.0

     total cpu time spent up to now is        4.4 secs

     total energy              =    -501.13825603 Ry
     estimated scf accuracy    <       2.48919583 Ry

     iteration #  3     ecut=    30.00 Ry     beta= 0.50
     Davidson diagonalization with overlap
     ethr =  4.59E-04,  avg # of iterations =  8.0

     total cpu time spent up to now is        4.5 secs

     total energy              =    -501.42579167 Ry
     estimated scf accuracy    <       1.39316907 Ry

     iteration #  4     ecut=    30.00 Ry     beta= 0.50
     Davidson diagonalization with overlap
     ethr =  4.59E-04,  avg # of iterations =  5.0

     total cpu time spent up to now is        4.6 secs

     total energy              =    -501.53197940 Ry
     estimated scf accuracy    <       0.28789653 Ry

     iteration #  5     ecut=    30.00 Ry     beta= 0.50
     Davidson diagonalization with overlap
     ethr =  1.12E-04,  avg # of iterations =  6.0

     total cpu time spent up to now is        4.7 secs

     total energy              =    -501.56838658 Ry
     estimated scf accuracy    <       0.06894060 Ry

     iteration #  6     ecut=    30.00 Ry     beta= 0.50
     Davidson diagonalization with overlap
     c_bands:  1 eigenvalues not converged
     ethr =  2.69E-05,  avg # of iterations = 20.0

     total cpu time spent up to now is        4.9 secs

     total energy              =    -501.57605503 Ry
     estimated scf accuracy    <       0.13748858 Ry

     iteration #  7     ecut=    30.00 Ry     beta= 0.50
     Davidson diagonalization with overlap
     ethr =  2.69E-05,  avg # of iterations = 11.0

     total cpu time spent up to now is        5.0 secs

     total energy              =    -501.58008982 Ry
     estimated scf accuracy    <       0.02991256 Ry

     iteration #  8     ecut=    30.00 Ry     beta= 0.50
     Davidson diagonalization with overlap
     ethr =  1.17E-05,  avg # of iterations = 20.0

     total cpu time spent up to now is        5.2 secs

     total energy              =    -501.58356741 Ry
     estimated scf accuracy    <       0.01843783 Ry

     iteration #  9     ecut=    30.00 Ry     beta= 0.50
     Davidson diagonalization with overlap
     ethr =  7.20E-06,  avg # of iterations = 17.0

     total cpu time spent up to now is        5.3 secs

     total energy              =    -501.58463609 Ry
     estimated scf accuracy    <       0.00894334 Ry

     iteration # 10     ecut=    30.00 Ry     beta= 0.50
     Davidson diagonalization with overlap
     ethr =  3.49E-06,  avg # of iterations = 10.0

     total cpu time spent up to now is        5.4 secs

     total energy              =    -501.58490698 Ry
     estimated scf accuracy    <       0.00575701 Ry

     iteration # 11     ecut=    30.00 Ry     beta= 0.50
     Davidson diagonalization with overlap
     ethr =  2.25E-06,  avg # of iterations = 19.0

     total cpu time spent up to now is        5.6 secs

     total energy              =    -501.58506467 Ry
     estimated scf accuracy    <       0.00151776 Ry

     iteration # 12     ecut=    30.00 Ry     beta= 0.50
     Davidson diagonalization with overlap
     ethr =  5.93E-07,  avg # of iterations = 10.0

     total cpu time spent up to now is        5.7 secs

     total energy              =    -501.58522033 Ry
     estimated scf accuracy    <       0.00057405 Ry

     iteration # 13     ecut=    30.00 Ry     beta= 0.50
     Davidson diagonalization with overlap
     ethr =  2.24E-07,  avg # of iterations = 19.0

     total cpu time spent up to now is        5.8 secs

     total energy              =    -501.58525504 Ry
     estimated scf accuracy    <       0.00031857 Ry

     iteration # 14     ecut=    30.00 Ry     beta= 0.50
     Davidson diagonalization with overlap
     ethr =  1.24E-07,  avg # of iterations = 11.0

     total cpu time spent up to now is        6.0 secs

     total energy              =    -501.58526901 Ry
     estimated scf accuracy    <       0.00011671 Ry

     iteration # 15     ecut=    30.00 Ry     beta= 0.50
     Davidson diagonalization with overlap
     c_bands:  1 eigenvalues not converged
     ethr =  4.56E-08,  avg # of iterations = 20.0

     total cpu time spent up to now is        6.1 secs

     total energy              =    -501.58527525 Ry
     estimated scf accuracy    <       0.00025393 Ry

     iteration # 16     ecut=    30.00 Ry     beta= 0.50
     Davidson diagonalization with overlap
     ethr =  4.56E-08,  avg # of iterations = 18.0

     total cpu time spent up to now is        6.3 secs

     total energy              =    -501.58528195 Ry
     estimated scf accuracy    <       0.00007874 Ry

     iteration # 17     ecut=    30.00 Ry     beta= 0.50
     Davidson diagonalization with overlap
     c_bands:  1 eigenvalues not converged
     ethr =  3.08E-08,  avg # of iterations = 20.0

     total cpu time spent up to now is        6.5 secs

     total energy              =    -501.58528796 Ry
     estimated scf accuracy    <       0.00004287 Ry

     iteration # 18     ecut=    30.00 Ry     beta= 0.50
     Davidson diagonalization with overlap
     ethr =  1.67E-08,  avg # of iterations = 12.0

     total cpu time spent up to now is        6.6 secs

     total energy              =    -501.58529026 Ry
     estimated scf accuracy    <       0.00001858 Ry

     iteration # 19     ecut=    30.00 Ry     beta= 0.50
     Davidson diagonalization with overlap
     ethr =  7.26E-09,  avg # of iterations = 10.0

     total cpu time spent up to now is        6.7 secs

     total energy              =    -501.58529163 Ry
     estimated scf accuracy    <       0.00001034 Ry

     iteration # 20     ecut=    30.00 Ry     beta= 0.50
     Davidson diagonalization with overlap
     ethr =  4.04E-09,  avg # of iterations =  7.0

     total cpu time spent up to now is        6.8 secs

     total energy              =    -501.58529172 Ry
     estimated scf accuracy    <       0.00000601 Ry

     iteration # 21     ecut=    30.00 Ry     beta= 0.50
     Davidson diagonalization with overlap
     ethr =  2.35E-09,  avg # of iterations =  6.0

     total cpu time spent up to now is        6.9 secs

     total energy              =    -501.58529191 Ry
     estimated scf accuracy    <       0.00000286 Ry

     iteration # 22     ecut=    30.00 Ry     beta= 0.50
     Davidson diagonalization with overlap
     c_bands:  1 eigenvalues not converged
     ethr =  1.12E-09,  avg # of iterations = 20.0

     total cpu time spent up to now is        7.0 secs

     total energy              =    -501.58529207 Ry
     estimated scf accuracy    <       0.00000317 Ry

     iteration # 23     ecut=    30.00 Ry     beta= 0.50
     Davidson diagonalization with overlap
     ethr =  1.12E-09,  avg # of iterations =  7.0

     total cpu time spent up to now is        7.1 secs

     total energy              =    -501.58529211 Ry
     estimated scf accuracy    <       0.00000100 Ry

     iteration # 24     ecut=    30.00 Ry     beta= 0.50
     Davidson diagonalization with overlap
     c_bands:  1 eigenvalues not converged
     ethr =  3.92E-10,  avg # of iterations = 20.0

     total cpu time spent up to now is        7.3 secs

     End of self-consistent calculation

          k = 0.0000 0.0000 0.0000 ( 11444 PWs)   bands (ev):

    -5.4150  -4.4779  -4.4041  -4.3634  -4.1572  -4.0433  -3.9347  -3.5870
    -3.4047  -3.3455  -3.2009  -3.1230  -3.0445  -3.0005  -2.9561  -2.8646
    -2.7812  -2.6442  -2.5058  -2.2878  -2.0538  -2.0194  -1.9391  -1.7905
    -1.7137  -1.5898  -1.3657  -1.1126  -0.9667  -0.6997  -0.6631  -0.5599
    -0.4179  -0.3829  -0.1876  -0.1463   0.0064   0.0658   0.1141   0.3088
     0.3251   0.3466   0.4074   0.4472   0.5640   0.6749   0.7066   0.8669
     0.8707   0.9010   0.9968   1.0756   1.1882   1.3484   1.4913   1.5853
     1.6723   1.7719   1.8901   1.9900   2.0881   2.1879   2.2622   2.2997
     2.3667   2.5171   2.6219   2.6388   2.7509   2.8526   2.8885   2.9424
     3.0470   3.0715   3.1024   3.2185   3.2272   3.2810   3.4427   3.5479
     3.6613   4.0690   4.1441   4.1940   4.3086   4.3957   4.4509   4.5120
     4.6354   4.6633   4.8287   4.8570   4.9109   4.9634   5.0625   5.0970
     5.1122   5.1603   5.2814   5.3341   5.3823   5.4545   5.4729   5.5276
     5.5765   5.7051   5.7267   5.7531   5.7870   5.8815   5.9046   5.9611
     5.9982   6.0876   6.1658   6.2352   6.2678   6.3442   6.3861   6.4543
     6.5113   6.5483   6.6925   6.7129   6.7356   6.7870   6.8213   6.9218

     highest occupied level (ev):     6.9218

!    total energy              =    -501.58529208 Ry
     estimated scf accuracy    <       0.00000027 Ry

     The total energy is the sum of the following terms:
     one-electron contribution =     184.33820654 Ry
     hartree contribution      =      24.80521902 Ry
     xc contribution           =    -150.76572806 Ry
     ewald contribution        =    -559.96298957 Ry

     convergence has been achieved in  24 iterations

     Forces acting on atoms (cartesian axes, Ry/au):

     atom    1 type  1   force =    -0.00452011    0.03213107    0.05523202
     atom    2 type  1   force =     0.00359986   -0.00038520   -0.01621473
     atom    3 type  1   force =     0.04489049    0.01036360   -0.02835860
     atom    4 type  1   force =     0.02184315   -0.02696444   -0.05356985
     atom    5 type  1   force =    -0.01367693    0.02338421   -0.02543142
     atom    6 type  1   force =    -0.01050088    0.00161192    0.00735627
     atom    7 type  1   force =    -0.00570619   -0.01950471   -0.02567066
     atom    8 type  1   force =    -0.00579781   -0.00431841    0.00308679
     atom    9 type  1   force =    -0.00512754   -0.03557920   -0.00521818
     atom   10 type  1   force =    -0.01373261    0.00474676    0.01621999
     atom   11 type  1   force =     0.02830662   -0.02933521    0.01239310
     atom   12 type  1   force =     0.03148644   -0.01753353    0.00487212
     atom   13 type  1   force =    -0.02084248   -0.03775647   -0.00571242
     atom   14 type  1   force =    -0.01110135   -0.00255857    0.01678734
     atom   15 type  1   force =     0.01301645    0.01891218    0.01845727
     atom   16 type  1   force =    -0.02981771   -0.02046672    0.04544426
     atom   17 type  1   force =    -0.01904502   -0.01023975   -0.01525465
     atom   18 type  1   force =     0.03894251    0.05676590   -0.01182318
     atom   19 type  1   force =    -0.00316098   -0.01400851   -0.04203697
     atom   20 type  1   force =    -0.00534963    0.00915721   -0.02326836
     atom   21 type  1   force =     0.01364078    0.03726571   -0.04927147
     atom   22 type  1   force =    -0.00198663    0.01133442    0.02061098
     atom   23 type  1   force =     0.02898183   -0.00854946    0.00945594
     atom   24 type  1   force =     0.02508274    0.02512676   -0.04901883
     atom   25 type  1   force =    -0.03208049   -0.00617519    0.01772768
     atom   26 type  1   force =    -0.02708186   -0.01541750    0.01882054
     atom   27 type  1   force =    -0.00625613    0.02953024    0.00764412
     atom   28 type  1   force =    -0.01997024    0.03130456    0.00758520
     atom   29 type  1   force =     0.01954351    0.01638894    0.01054309
     atom   30 type  1   force =     0.00178884    0.00818623    0.01849329
     atom   31 type  1   force =     0.02774993   -0.00872218    0.04599390
     atom   32 type  1   force =     0.01005032   -0.00178705    0.01534472
     atom   33 type  1   force =     0.01779926   -0.00205664    0.00029060
     atom   34 type  1   force =    -0.02645289    0.02045348   -0.01635789
     atom   35 type  1   force =     0.00862936    0.00664869   -0.04918602
     atom   36 type  1   force =     0.03576901   -0.02778028    0.03736133
     atom   37 type  1   force =    -0.04688690   -0.02655217    0.01193678
     atom   38 type  1   force =    -0.04475017    0.01043032    0.01793103
     atom   39 type  1   force =     0.00736141   -0.00528409    0.00019010
     atom   40 type  1   force =     0.01510221   -0.00443108    0.00158630
     atom   41 type  1   force =     0.02847684   -0.06879820   -0.05311145
     atom   42 type  1   force =    -0.02689459   -0.00204011    0.01906443
     atom   43 type  1   force =     0.01293749   -0.03847615    0.05863974
     atom   44 type  1   force =    -0.00474709    0.00197472   -0.01887239
     atom   45 type  1   force =    -0.00751538    0.01365063    0.01133053
     atom   46 type  1   force =     0.00550600   -0.01595452   -0.00609710
     atom   47 type  1   force =     0.04074988   -0.01897028    0.00386451
     atom   48 type  1   force =    -0.00417151   -0.00755407   -0.00177961
     atom   49 type  1   force =    -0.02951692   -0.02606832   -0.01351718
     atom   50 type  1   force =     0.01999557    0.02161326    0.03769542
     atom   51 type  1   force =    -0.01870253    0.00456004   -0.00812127
     atom   52 type  1   force =     0.05797793    0.01594429    0.03585518
     atom   53 type  1   force =    -0.01476842    0.00505409   -0.02155625
     atom   54 type  1   force =     0.00153533   -0.02185478   -0.02212632
     atom   55 type  1   force =    -0.03820765    0.06229240    0.00877096
     atom   56 type  1   force =    -0.00807715   -0.03276764   -0.00123247
     atom   57 type  1   force =     0.02425896    0.00079379    0.02985815
     atom   58 type  1   force =    -0.02426022    0.00098221   -0.02478709
     atom   59 type  1   force =     0.00526800   -0.02346491    0.00971258
     atom   60 type  1   force =    -0.01908321    0.06460486    0.00459117
     atom   61 type  1   force =    -0.00187607   -0.00193911   -0.06120521
     atom   62 type  1   force =    -0.00602682   -0.00332416   -0.00467253
     atom   63 type  1   force =    -0.00893273    0.01449834    0.00894800
     atom   64 type  1   force =    -0.02366589    0.02690775    0.00377665

     Total force =     0.338812     Total SCF correction =     0.000975


     Computing stress (Cartesian axis) and pressure

          total   stress  (Ry/bohr**3)                   (kbar)     P=      -35.96
  -0.00034588   0.00005560   0.00008530          -50.88        8.18       12.55
   0.00005560  -0.00020147  -0.00002027            8.18      -29.64       -2.98
   0.00008530  -0.00002027  -0.00018598           12.55       -2.98      -27.36

 
     init_run     :      1.02s CPU      4.08s WALL (       1 calls)
     electrons    :      3.01s CPU      3.17s WALL (       1 calls)
     forces       :      0.03s CPU      0.03s WALL (       1 calls)
     stress       :      0.12s CPU      0.12s WALL (       1 calls)

     Called by init_run:
     wfcinit      :      0.52s CPU      3.41s WALL (       1 calls)
                                        3.41s GPU  (       1 calls)
     potinit      :      0.04s CPU      0.12s WALL (       1 calls)
     hinit0       :      0.44s CPU      0.48s WALL (       1 calls)

     Called by electrons:
     c_bands      :      2.26s CPU      2.34s WALL (      25 calls)
     sum_band     :      0.35s CPU      0.41s WALL (      25 calls)
     v_of_rho     :      0.16s CPU      0.25s WALL (      25 calls)
     mix_rho      :      0.19s CPU      0.21s WALL (      25 calls)

     Called by c_bands:
     init_us_2    :      0.06s CPU      0.07s WALL (      51 calls)
     init_us_2:gp :      0.06s CPU      0.07s WALL (      51 calls)
     regterg      :      2.09s CPU      2.16s WALL (      25 calls)

     Called by *egterg:
     rdiaghg      :      1.15s CPU      1.76s WALL (     336 calls)
                                        1.71s GPU  (     336 calls)
     h_psi        :      1.16s CPU      3.49s WALL (     338 calls)
                                        3.49s GPU  (     338 calls)
     g_psi        :      0.00s CPU      0.01s WALL (     312 calls)
                                        0.00s GPU  (     312 calls)

     Called by h_psi:
     h_psi:calbec :      0.53s CPU      2.79s WALL (     338 calls)
                                        2.79s GPU  (     338 calls)
     vloc_psi     :      0.45s CPU      0.51s WALL (     338 calls)
                                        0.51s GPU  (     338 calls)
     add_vuspsi   :      0.14s CPU      0.17s WALL (     338 calls)
                                        0.17s GPU  (     338 calls)

     General routines
     calbec       :      0.53s CPU      2.79s WALL (     343 calls)
     fft          :      0.56s CPU      0.70s WALL (     207 calls)
                                        0.12s GPU  (     131 calls)
     ffts         :      0.04s CPU      0.05s WALL (      25 calls)
     fftw         :      0.52s CPU      0.67s WALL (    2656 calls)
                                        0.58s GPU  (    2656 calls)
 
     Parallel routines
 
     PWSCF        :      4.21s CPU      7.47s WALL

 
   This run was terminated on:  15:15:45   9May2023            

=------------------------------------------------------------------------------=
   JOB DONE.
=------------------------------------------------------------------------------=
