An instance of this daemon is already running
An instance of this daemon is already running

     Program PWSCF v.7.1 starts on  9May2023 at 15:17:17 

     This program is part of the open-source Quantum ESPRESSO suite
     for quantum simulation of materials; please cite
         "P. Giannozzi et al., J. Phys.:Condens. Matter 21 395502 (2009);
         "P. Giannozzi et al., J. Phys.:Condens. Matter 29 465901 (2017);
         "P. Giannozzi et al., J. Chem. Phys. 152 154105 (2020);
          URL http://www.quantum-espresso.org", 
     in publications or presentations arising from this work. More details at
     http://www.quantum-espresso.org/quote

     Parallel version (MPI & OpenMP), running on       4 processor cores
     Number of MPI processes:                 4
     Threads/MPI process:                     1

     MPI processes distributed on     1 nodes
     56813 MiB available memory on the printing compute node when the environment starts
 
     Reading input from pw-si-60.in
Warning: card &CELL ignored
Warning: card / ignored

     Current dimensions of program PWSCF are:
     Max number of different atomic species (ntypx) = 10
     Max number of k-points (npk) =  40000
     Max angular momentum in pseudopotentials (lmaxx) =  4

     IMPORTANT: XC functional enforced from input :
     Exchange-correlation= PBE
                           (   1   4   3   4   0   0   0)
     Any further DFT definition will be discarded
     Please, verify this is what you really want


     gamma-point specific algorithms are used
 
     K-points division:     npool     =       2
     R & G space division:  proc/nbgrp/npool/nimage =       2
     Subspace diagonalization in iterative solution of the eigenvalue problem:
     a serial algorithm will be used

     Message from routine divide_et_impera:
     suboptimal parallelization: some nodes have no k-points
 
     Parallelization info
     --------------------
     sticks:   dense  smooth     PW     G-vecs:    dense   smooth      PW
     Min        1904    1904    502                88752    88752   12054
     Max        1905    1905    503                88757    88757   12057
     Sum        3809    3809   1005               177509   177509   24111
 
     Using Slab Decomposition
 


     bravais-lattice index     =            0
     lattice parameter (alat)  =      19.9938  a.u.
     unit-cell volume          =    7992.5975 (a.u.)^3
     number of atoms/cell      =           64
     number of atomic types    =            1
     number of electrons       =       256.00
     number of Kohn-Sham states=          128
     kinetic-energy cutoff     =      30.0000  Ry
     charge density cutoff     =     120.0000  Ry
     scf convergence threshold =      1.0E-06
     mixing beta               =       0.5000
     number of iterations used =            8  plain     mixing
     Exchange-correlation= PBE
                           (   1   4   3   4   0   0   0)

     GPU acceleration is ACTIVE.
     GPU-aware MPI enabled

     Message from routine print_cuda_info:
     High GPU oversubscription detected. Are you sure this is what you want?

     celldm(1)=  19.993829  celldm(2)=   0.000000  celldm(3)=   0.000000
     celldm(4)=   0.000000  celldm(5)=   0.000000  celldm(6)=   0.000000

     crystal axes: (cart. coord. in units of alat)
               a(1) = (   1.000000   0.000000   0.000000 )  
               a(2) = (   0.000000   1.000000   0.000000 )  
               a(3) = (   0.000000   0.000000   1.000000 )  

     reciprocal axes: (cart. coord. in units 2 pi/alat)
               b(1) = (  1.000000  0.000000  0.000000 )  
               b(2) = (  0.000000  1.000000  0.000000 )  
               b(3) = (  0.000000  0.000000  1.000000 )  


     PseudoPot. # 1 for Si read from file:
     /home/ppiaggi/pseudos/Si_ONCV_PBE_sr.upf
     MD5 check sum: 8553c464762ac42b85b1eed164b4d029
     Pseudo is Norm-conserving, Zval =  4.0
     Generated using ONCVPSP code by D. R. Hamann
     Using radial grid of 1510 points,  4 beta functions with: 
                l(1) =   0
                l(2) =   0
                l(3) =   1
                l(4) =   1

     atomic species   valence    mass     pseudopotential
        Si             4.00    28.08500     Si( 1.00)

     No symmetry found



   Cartesian axes

     site n.     atom                  positions (alat units)
         1           Si  tau(   1) = (   0.3831950   0.3814960   0.1072430  )
         2           Si  tau(   2) = (   0.9131390   0.9131800   0.0920289  )
         3           Si  tau(   3) = (   0.1466280   0.9569710   0.0602164  )
         4           Si  tau(   4) = (   0.0424216   0.3496460   0.3654930  )
         5           Si  tau(   5) = (   0.7079590   0.9739420   0.1768760  )
         6           Si  tau(   6) = (   0.4639340   0.5869320   0.8869700  )
         7           Si  tau(   7) = (   0.7740570   0.3672320   0.1720400  )
         8           Si  tau(   8) = (   0.8852820   0.7282740   0.8282530  )
         9           Si  tau(   9) = (   0.8489380   0.3657150   0.7190010  )
        10           Si  tau(  10) = (   0.1249550   0.0938545   0.8847020  )
        11           Si  tau(  11) = (   0.8775230   0.2928870   0.4761900  )
        12           Si  tau(  12) = (   0.0921291   0.1632610   0.2400860  )
        13           Si  tau(  13) = (   0.2984940   0.1775250   0.5565830  )
        14           Si  tau(  14) = (   0.1512130   0.0279773   0.4250950  )
        15           Si  tau(  15) = (   0.4670880   0.3854150   0.3701780  )
        16           Si  tau(  16) = (   0.2789840   0.1667380   0.1236640  )
        17           Si  tau(  17) = (   0.3567090   0.6863130   0.5371140  )
        18           Si  tau(  18) = (   0.0544642   0.6971680   0.0502532  )
        19           Si  tau(  19) = (   0.7799150   0.9708670   0.6872410  )
        20           Si  tau(  20) = (   0.5366520   0.8317470   0.8415020  )
        21           Si  tau(  21) = (   0.5963700   0.4345040   0.7692320  )
        22           Si  tau(  22) = (   0.2725120   0.9406200   0.7164670  )
        23           Si  tau(  23) = (   0.6852170   0.3987510   0.3960520  )
        24           Si  tau(  24) = (   0.3242710   0.7030650   0.7521160  )
        25           Si  tau(  25) = (   0.5920070   0.3607730   0.0067546  )
        26           Si  tau(  26) = (   0.0694135   0.9011980   0.6149630  )
        27           Si  tau(  27) = (   0.6969090   0.7881050   0.9770450  )
        28           Si  tau(  28) = (   0.1382750   0.8669050   0.2750410  )
        29           Si  tau(  29) = (   0.3778200   0.4813800   0.5626670  )
        30           Si  tau(  30) = (   0.5258130   0.7975590   0.2194780  )
        31           Si  tau(  31) = (   0.8869550   0.0503315   0.4924380  )
        32           Si  tau(  32) = (   0.1891560   0.3638510   0.5336660  )
        33           Si  tau(  33) = (   0.0481305   0.4931150   0.2087720  )
        34           Si  tau(  34) = (   0.6155230   0.8385820   0.6314670  )
        35           Si  tau(  35) = (   0.7235050   0.1555770   0.7709080  )
        36           Si  tau(  36) = (   0.9301950   0.2271920   0.9052100  )
        37           Si  tau(  37) = (   0.6169480   0.1067580   0.4873680  )
        38           Si  tau(  38) = (   0.6145210   0.6601480   0.4342040  )
        39           Si  tau(  39) = (   0.5231230   0.2660740   0.6483960  )
        40           Si  tau(  40) = (   0.0831388   0.4220450   0.7362920  )
        41           Si  tau(  41) = (   0.4584580   0.0182639   0.9452420  )
        42           Si  tau(  42) = (   0.3801790   0.1930880   0.7926140  )
        43           Si  tau(  43) = (   0.3496150   0.8591830   0.0723471  )
        44           Si  tau(  44) = (   0.4408400   0.9347340   0.5450450  )
        45           Si  tau(  45) = (   0.9052170   0.4888220   0.9861220  )
        46           Si  tau(  46) = (   0.8518730   0.5874910   0.4887350  )
        47           Si  tau(  47) = (   0.1065400   0.6200540   0.8099360  )
        48           Si  tau(  48) = (   0.6389580   0.1764150   0.2747730  )
        49           Si  tau(  49) = (   0.8904510   0.1783660   0.1137270  )
        50           Si  tau(  50) = (   0.6518760   0.1392490   0.9838370  )
        51           Si  tau(  51) = (   0.8399520   0.6288430   0.2421610  )
        52           Si  tau(  52) = (   0.0799035   0.6679280   0.5513370  )
        53           Si  tau(  53) = (   0.7347430   0.9022500   0.3749980  )
        54           Si  tau(  54) = (   0.2866750   0.4046700   0.8811190  )
        55           Si  tau(  55) = (   0.3927370   0.9411440   0.3306160  )
        56           Si  tau(  56) = (   0.2942380   0.6514150   0.0426252  )
        57           Si  tau(  57) = (   0.4136910   0.6106650   0.2485090  )
        58           Si  tau(  58) = (   0.7381690   0.5995110   0.6778100  )
        59           Si  tau(  59) = (   0.9890250   0.9442710   0.8144270  )
        60           Si  tau(  60) = (   0.6520410   0.6049050   0.1112020  )
        61           Si  tau(  61) = (   0.4029650   0.1603790   0.3091460  )
        62           Si  tau(  62) = (   0.9333440   0.8076480   0.3204400  )
        63           Si  tau(  63) = (   0.1909180   0.6257850   0.3464090  )
        64           Si  tau(  64) = (   0.1163360   0.3401660   0.0154519  )

     number of k points=     1
                       cart. coord. in units 2pi/alat
        k(    1) = (   0.0000000   0.0000000   0.0000000), wk =   2.0000000

     Dense  grid:    88755 G-vectors     FFT dimensions: (  72,  72,  72)

     Estimated max dynamical RAM per process >     130.97 MB

     Estimated total dynamical RAM >     502.22 MB

     Initial potential from superposition of free atoms

     starting charge     255.9608, renormalised to     256.0000
     Starting wfcs are  256 randomized atomic wfcs

     total cpu time spent up to now is        4.2 secs

     Self-consistent Calculation

     iteration #  1     ecut=    30.00 Ry     beta= 0.50
     Davidson diagonalization with overlap
     ethr =  1.00E-02,  avg # of iterations =  2.0

     Threshold (ethr) on eigenvalues was too large:
     Diagonalizing with lowered threshold

     Davidson diagonalization with overlap
     ethr =  4.41E-04,  avg # of iterations =  6.0

     total cpu time spent up to now is        4.4 secs

     total energy              =    -501.12457438 Ry
     estimated scf accuracy    <       1.41108848 Ry

     iteration #  2     ecut=    30.00 Ry     beta= 0.50
     Davidson diagonalization with overlap
     ethr =  5.51E-04,  avg # of iterations = 13.0

     total cpu time spent up to now is        4.5 secs

     total energy              =    -500.51304532 Ry
     estimated scf accuracy    <       7.82267952 Ry

     iteration #  3     ecut=    30.00 Ry     beta= 0.50
     Davidson diagonalization with overlap
     ethr =  5.51E-04,  avg # of iterations =  9.0

     total cpu time spent up to now is        4.7 secs

     total energy              =    -501.28483504 Ry
     estimated scf accuracy    <       1.62441602 Ry

     iteration #  4     ecut=    30.00 Ry     beta= 0.50
     Davidson diagonalization with overlap
     ethr =  5.51E-04,  avg # of iterations =  3.0

     total cpu time spent up to now is        4.7 secs

     total energy              =    -501.38435338 Ry
     estimated scf accuracy    <       0.36663662 Ry

     iteration #  5     ecut=    30.00 Ry     beta= 0.50
     Davidson diagonalization with overlap
     ethr =  1.43E-04,  avg # of iterations =  9.0

     total cpu time spent up to now is        4.8 secs

     total energy              =    -501.42045331 Ry
     estimated scf accuracy    <       0.28713193 Ry

     iteration #  6     ecut=    30.00 Ry     beta= 0.50
     Davidson diagonalization with overlap
     ethr =  1.12E-04,  avg # of iterations =  3.0

     total cpu time spent up to now is        4.9 secs

     total energy              =    -501.44859749 Ry
     estimated scf accuracy    <       0.06253707 Ry

     iteration #  7     ecut=    30.00 Ry     beta= 0.50
     Davidson diagonalization with overlap
     c_bands:  1 eigenvalues not converged
     ethr =  2.44E-05,  avg # of iterations = 20.0

     total cpu time spent up to now is        5.1 secs

     total energy              =    -501.45490541 Ry
     estimated scf accuracy    <       0.06808966 Ry

     iteration #  8     ecut=    30.00 Ry     beta= 0.50
     Davidson diagonalization with overlap
     ethr =  2.44E-05,  avg # of iterations =  2.0

     total cpu time spent up to now is        5.2 secs

     total energy              =    -501.45198703 Ry
     estimated scf accuracy    <       0.03801701 Ry

     iteration #  9     ecut=    30.00 Ry     beta= 0.50
     Davidson diagonalization with overlap
     ethr =  1.49E-05,  avg # of iterations =  8.0

     total cpu time spent up to now is        5.3 secs

     total energy              =    -501.45262088 Ry
     estimated scf accuracy    <       0.01111525 Ry

     iteration # 10     ecut=    30.00 Ry     beta= 0.50
     Davidson diagonalization with overlap
     ethr =  4.34E-06,  avg # of iterations =  9.0

     total cpu time spent up to now is        5.4 secs

     total energy              =    -501.45503446 Ry
     estimated scf accuracy    <       0.01027391 Ry

     iteration # 11     ecut=    30.00 Ry     beta= 0.50
     Davidson diagonalization with overlap
     ethr =  4.01E-06,  avg # of iterations =  3.0

     total cpu time spent up to now is        5.5 secs

     total energy              =    -501.45485902 Ry
     estimated scf accuracy    <       0.00493845 Ry

     iteration # 12     ecut=    30.00 Ry     beta= 0.50
     Davidson diagonalization with overlap
     c_bands:  1 eigenvalues not converged
     ethr =  1.93E-06,  avg # of iterations = 20.0

     total cpu time spent up to now is        5.6 secs

     total energy              =    -501.45636456 Ry
     estimated scf accuracy    <       0.03053358 Ry

     iteration # 13     ecut=    30.00 Ry     beta= 0.50
     Davidson diagonalization with overlap
     ethr =  1.93E-06,  avg # of iterations = 19.0

     total cpu time spent up to now is        5.8 secs

     total energy              =    -501.45702277 Ry
     estimated scf accuracy    <       0.02051124 Ry

     iteration # 14     ecut=    30.00 Ry     beta= 0.50
     Davidson diagonalization with overlap
     ethr =  1.93E-06,  avg # of iterations =  1.0

     total cpu time spent up to now is        5.8 secs

     total energy              =    -501.45645365 Ry
     estimated scf accuracy    <       0.01779525 Ry

     iteration # 15     ecut=    30.00 Ry     beta= 0.50
     Davidson diagonalization with overlap
     ethr =  1.93E-06,  avg # of iterations =  1.0

     total cpu time spent up to now is        5.9 secs

     total energy              =    -501.45507480 Ry
     estimated scf accuracy    <       0.01488704 Ry

     iteration # 16     ecut=    30.00 Ry     beta= 0.50
     Davidson diagonalization with overlap
     c_bands:  1 eigenvalues not converged
     ethr =  1.93E-06,  avg # of iterations = 20.0

     total cpu time spent up to now is        6.0 secs

     total energy              =    -501.45580489 Ry
     estimated scf accuracy    <       0.00405903 Ry

     iteration # 17     ecut=    30.00 Ry     beta= 0.50
     Davidson diagonalization with overlap
     ethr =  1.59E-06,  avg # of iterations = 17.0

     total cpu time spent up to now is        6.2 secs

     total energy              =    -501.45593365 Ry
     estimated scf accuracy    <       0.00374681 Ry

     iteration # 18     ecut=    30.00 Ry     beta= 0.50
     Davidson diagonalization with overlap
     ethr =  1.46E-06,  avg # of iterations =  2.0

     total cpu time spent up to now is        6.2 secs

     total energy              =    -501.45559916 Ry
     estimated scf accuracy    <       0.00307673 Ry

     iteration # 19     ecut=    30.00 Ry     beta= 0.50
     Davidson diagonalization with overlap
     c_bands:  1 eigenvalues not converged
     ethr =  1.20E-06,  avg # of iterations = 20.0

     total cpu time spent up to now is        6.4 secs

     total energy              =    -501.45757722 Ry
     estimated scf accuracy    <       0.02585154 Ry

     iteration # 20     ecut=    30.00 Ry     beta= 0.50
     Davidson diagonalization with overlap
     ethr =  1.20E-06,  avg # of iterations = 18.0

     total cpu time spent up to now is        6.6 secs

     total energy              =    -501.45677849 Ry
     estimated scf accuracy    <       0.01678852 Ry

     iteration # 21     ecut=    30.00 Ry     beta= 0.50
     Davidson diagonalization with overlap
     ethr =  1.20E-06,  avg # of iterations =  3.0

     total cpu time spent up to now is        6.7 secs

     total energy              =    -501.45584531 Ry
     estimated scf accuracy    <       0.01160410 Ry

     iteration # 22     ecut=    30.00 Ry     beta= 0.50
     Davidson diagonalization with overlap
     ethr =  1.20E-06,  avg # of iterations =  3.0

     total cpu time spent up to now is        6.7 secs

     total energy              =    -501.45589641 Ry
     estimated scf accuracy    <       0.00712748 Ry

     iteration # 23     ecut=    30.00 Ry     beta= 0.50
     Davidson diagonalization with overlap
     ethr =  1.20E-06,  avg # of iterations =  2.0

     total cpu time spent up to now is        6.8 secs

     total energy              =    -501.45582435 Ry
     estimated scf accuracy    <       0.00568843 Ry

     iteration # 24     ecut=    30.00 Ry     beta= 0.50
     Davidson diagonalization with overlap
     ethr =  1.20E-06,  avg # of iterations =  1.0

     total cpu time spent up to now is        6.9 secs

     total energy              =    -501.45526696 Ry
     estimated scf accuracy    <       0.00479813 Ry

     iteration # 25     ecut=    30.00 Ry     beta= 0.50
     Davidson diagonalization with overlap
     ethr =  1.20E-06,  avg # of iterations =  2.0

     total cpu time spent up to now is        6.9 secs

     total energy              =    -501.45527464 Ry
     estimated scf accuracy    <       0.00265989 Ry

     iteration # 26     ecut=    30.00 Ry     beta= 0.50
     Davidson diagonalization with overlap
     ethr =  1.04E-06,  avg # of iterations =  2.0

     total cpu time spent up to now is        7.0 secs

     total energy              =    -501.45525186 Ry
     estimated scf accuracy    <       0.00202621 Ry

     iteration # 27     ecut=    30.00 Ry     beta= 0.50
     Davidson diagonalization with overlap
     c_bands:  1 eigenvalues not converged
     ethr =  7.91E-07,  avg # of iterations = 20.0

     total cpu time spent up to now is        7.2 secs

     total energy              =    -501.45768986 Ry
     estimated scf accuracy    <       0.02195638 Ry

     iteration # 28     ecut=    30.00 Ry     beta= 0.50
     Davidson diagonalization with overlap
     c_bands:  1 eigenvalues not converged
     ethr =  7.91E-07,  avg # of iterations = 20.0

     total cpu time spent up to now is        7.3 secs

     total energy              =    -501.45637698 Ry
     estimated scf accuracy    <       0.02492416 Ry

     iteration # 29     ecut=    30.00 Ry     beta= 0.50
     Davidson diagonalization with overlap
     c_bands:  1 eigenvalues not converged
     ethr =  7.91E-07,  avg # of iterations = 20.0

     total cpu time spent up to now is        7.5 secs

     total energy              =    -501.45675938 Ry
     estimated scf accuracy    <       0.01399735 Ry

     iteration # 30     ecut=    30.00 Ry     beta= 0.50
     Davidson diagonalization with overlap
     ethr =  7.91E-07,  avg # of iterations = 12.0

     total cpu time spent up to now is        7.6 secs

     total energy              =    -501.45670362 Ry
     estimated scf accuracy    <       0.01252026 Ry

     iteration # 31     ecut=    30.00 Ry     beta= 0.50
     Davidson diagonalization with overlap
     ethr =  7.91E-07,  avg # of iterations =  1.0

     total cpu time spent up to now is        7.7 secs

     total energy              =    -501.45639412 Ry
     estimated scf accuracy    <       0.01192575 Ry

     iteration # 32     ecut=    30.00 Ry     beta= 0.50
     Davidson diagonalization with overlap
     ethr =  7.91E-07,  avg # of iterations =  1.0

     total cpu time spent up to now is        7.7 secs

     total energy              =    -501.45623534 Ry
     estimated scf accuracy    <       0.01070351 Ry

     iteration # 33     ecut=    30.00 Ry     beta= 0.50
     Davidson diagonalization with overlap
     ethr =  7.91E-07,  avg # of iterations =  1.0

     total cpu time spent up to now is        7.8 secs

     total energy              =    -501.45641851 Ry
     estimated scf accuracy    <       0.00976379 Ry

     iteration # 34     ecut=    30.00 Ry     beta= 0.50
     Davidson diagonalization with overlap
     ethr =  7.91E-07,  avg # of iterations =  2.0

     total cpu time spent up to now is        7.9 secs

     total energy              =    -501.45627084 Ry
     estimated scf accuracy    <       0.01014653 Ry

     iteration # 35     ecut=    30.00 Ry     beta= 0.50
     Davidson diagonalization with overlap
     ethr =  7.91E-07,  avg # of iterations =  1.0

     total cpu time spent up to now is        8.0 secs

     total energy              =    -501.45345371 Ry
     estimated scf accuracy    <       0.00949221 Ry

     iteration # 36     ecut=    30.00 Ry     beta= 0.50
     Davidson diagonalization with overlap
     c_bands:  1 eigenvalues not converged
     ethr =  7.91E-07,  avg # of iterations = 20.0

     total cpu time spent up to now is        8.1 secs

     total energy              =    -501.45700538 Ry
     estimated scf accuracy    <       0.03706824 Ry

     iteration # 37     ecut=    30.00 Ry     beta= 0.50
     Davidson diagonalization with overlap
     ethr =  7.91E-07,  avg # of iterations = 16.0

     total cpu time spent up to now is        8.3 secs

     total energy              =    -501.45642252 Ry
     estimated scf accuracy    <       0.03226992 Ry

     iteration # 38     ecut=    30.00 Ry     beta= 0.50
     Davidson diagonalization with overlap
     c_bands:  1 eigenvalues not converged
     ethr =  7.91E-07,  avg # of iterations = 20.0

     total cpu time spent up to now is        8.5 secs

     total energy              =    -501.45693747 Ry
     estimated scf accuracy    <       0.01133657 Ry

     iteration # 39     ecut=    30.00 Ry     beta= 0.50
     Davidson diagonalization with overlap
     ethr =  7.91E-07,  avg # of iterations =  2.0

     total cpu time spent up to now is        8.5 secs

     total energy              =    -501.45678301 Ry
     estimated scf accuracy    <       0.00984244 Ry

     iteration # 40     ecut=    30.00 Ry     beta= 0.50
     Davidson diagonalization with overlap
     ethr =  7.91E-07,  avg # of iterations =  1.0

     total cpu time spent up to now is        8.6 secs

     total energy              =    -501.45643706 Ry
     estimated scf accuracy    <       0.00890461 Ry

     iteration # 41     ecut=    30.00 Ry     beta= 0.50
     Davidson diagonalization with overlap
     ethr =  7.91E-07,  avg # of iterations =  1.0

     total cpu time spent up to now is        8.7 secs

     total energy              =    -501.45645494 Ry
     estimated scf accuracy    <       0.00711802 Ry

     iteration # 42     ecut=    30.00 Ry     beta= 0.50
     Davidson diagonalization with overlap
     ethr =  7.91E-07,  avg # of iterations =  1.0

     total cpu time spent up to now is        8.7 secs

     total energy              =    -501.45549049 Ry
     estimated scf accuracy    <       0.00665231 Ry

     iteration # 43     ecut=    30.00 Ry     beta= 0.50
     Davidson diagonalization with overlap
     c_bands:  1 eigenvalues not converged
     ethr =  7.91E-07,  avg # of iterations = 20.0

     total cpu time spent up to now is        8.9 secs

     total energy              =    -501.45599727 Ry
     estimated scf accuracy    <       0.00449323 Ry

     iteration # 44     ecut=    30.00 Ry     beta= 0.50
     Davidson diagonalization with overlap
     c_bands:  1 eigenvalues not converged
     ethr =  7.91E-07,  avg # of iterations = 20.0

     total cpu time spent up to now is        9.0 secs

     total energy              =    -501.45675863 Ry
     estimated scf accuracy    <       0.00273615 Ry

     iteration # 45     ecut=    30.00 Ry     beta= 0.50
     Davidson diagonalization with overlap
     c_bands:  1 eigenvalues not converged
     ethr =  7.91E-07,  avg # of iterations = 20.0

     total cpu time spent up to now is        9.2 secs

     total energy              =    -501.45717432 Ry
     estimated scf accuracy    <       0.03087226 Ry

     iteration # 46     ecut=    30.00 Ry     beta= 0.50
     Davidson diagonalization with overlap
     ethr =  7.91E-07,  avg # of iterations = 16.0

     total cpu time spent up to now is        9.3 secs

     total energy              =    -501.45635961 Ry
     estimated scf accuracy    <       0.02475060 Ry

     iteration # 47     ecut=    30.00 Ry     beta= 0.50
     Davidson diagonalization with overlap
     ethr =  7.91E-07,  avg # of iterations =  2.0

     total cpu time spent up to now is        9.4 secs

     total energy              =    -501.45609242 Ry
     estimated scf accuracy    <       0.02061241 Ry

     iteration # 48     ecut=    30.00 Ry     beta= 0.50
     Davidson diagonalization with overlap
     ethr =  7.91E-07,  avg # of iterations =  1.0

     total cpu time spent up to now is        9.5 secs

     total energy              =    -501.45520791 Ry
     estimated scf accuracy    <       0.01896431 Ry

     iteration # 49     ecut=    30.00 Ry     beta= 0.50
     Davidson diagonalization with overlap
     c_bands:  1 eigenvalues not converged
     ethr =  7.91E-07,  avg # of iterations = 20.0

     total cpu time spent up to now is        9.6 secs

     total energy              =    -501.45555659 Ry
     estimated scf accuracy    <       0.00291061 Ry

     iteration # 50     ecut=    30.00 Ry     beta= 0.50
     Davidson diagonalization with overlap
     c_bands:  1 eigenvalues not converged
     ethr =  7.91E-07,  avg # of iterations = 20.0

     total cpu time spent up to now is        9.8 secs

     total energy              =    -501.45609932 Ry
     estimated scf accuracy    <       0.00221943 Ry

     iteration # 51     ecut=    30.00 Ry     beta= 0.50
     Davidson diagonalization with overlap
     c_bands:  1 eigenvalues not converged
     ethr =  7.91E-07,  avg # of iterations = 20.0

     total cpu time spent up to now is        9.9 secs

     total energy              =    -501.45619327 Ry
     estimated scf accuracy    <       0.00241210 Ry

     iteration # 52     ecut=    30.00 Ry     beta= 0.50
     Davidson diagonalization with overlap
     ethr =  7.91E-07,  avg # of iterations = 15.0

     total cpu time spent up to now is       10.1 secs

     total energy              =    -501.45628918 Ry
     estimated scf accuracy    <       0.00203940 Ry

     iteration # 53     ecut=    30.00 Ry     beta= 0.50
     Davidson diagonalization with overlap
     ethr =  7.91E-07,  avg # of iterations =  1.0

     total cpu time spent up to now is       10.1 secs

     total energy              =    -501.45622430 Ry
     estimated scf accuracy    <       0.00172885 Ry

     iteration # 54     ecut=    30.00 Ry     beta= 0.50
     Davidson diagonalization with overlap
     ethr =  6.75E-07,  avg # of iterations =  2.0

     total cpu time spent up to now is       10.2 secs

     total energy              =    -501.45624234 Ry
     estimated scf accuracy    <       0.00145747 Ry

     iteration # 55     ecut=    30.00 Ry     beta= 0.50
     Davidson diagonalization with overlap
     ethr =  5.69E-07,  avg # of iterations =  1.0

     total cpu time spent up to now is       10.3 secs

     total energy              =    -501.45622497 Ry
     estimated scf accuracy    <       0.00138381 Ry

     iteration # 56     ecut=    30.00 Ry     beta= 0.50
     Davidson diagonalization with overlap
     ethr =  5.41E-07,  avg # of iterations =  1.0

     total cpu time spent up to now is       10.3 secs

     total energy              =    -501.45620855 Ry
     estimated scf accuracy    <       0.00123163 Ry

     iteration # 57     ecut=    30.00 Ry     beta= 0.50
     Davidson diagonalization with overlap
     ethr =  4.81E-07,  avg # of iterations =  2.0

     total cpu time spent up to now is       10.4 secs

     total energy              =    -501.45684417 Ry
     estimated scf accuracy    <       0.00113569 Ry

     iteration # 58     ecut=    30.00 Ry     beta= 0.50
     Davidson diagonalization with overlap
     c_bands:  1 eigenvalues not converged
     ethr =  4.44E-07,  avg # of iterations = 20.0

     total cpu time spent up to now is       10.6 secs

     total energy              =    -501.45334815 Ry
     estimated scf accuracy    <       0.08656641 Ry

     iteration # 59     ecut=    30.00 Ry     beta= 0.50
     Davidson diagonalization with overlap
     c_bands:  2 eigenvalues not converged
     ethr =  4.44E-07,  avg # of iterations = 20.0

     total cpu time spent up to now is       10.8 secs

     total energy              =    -501.45433305 Ry
     estimated scf accuracy    <       0.02312613 Ry

     iteration # 60     ecut=    30.00 Ry     beta= 0.50
     Davidson diagonalization with overlap
     ethr =  4.44E-07,  avg # of iterations = 13.0

     total cpu time spent up to now is       10.9 secs

     total energy              =    -501.45458525 Ry
     estimated scf accuracy    <       0.01225282 Ry

     iteration # 61     ecut=    30.00 Ry     beta= 0.50
     Davidson diagonalization with overlap
     ethr =  4.44E-07,  avg # of iterations =  3.0

     total cpu time spent up to now is       11.0 secs

     total energy              =    -501.45438649 Ry
     estimated scf accuracy    <       0.01126237 Ry

     iteration # 62     ecut=    30.00 Ry     beta= 0.50
     Davidson diagonalization with overlap
     ethr =  4.44E-07,  avg # of iterations =  1.0

     total cpu time spent up to now is       11.0 secs

     total energy              =    -501.45382683 Ry
     estimated scf accuracy    <       0.01033689 Ry

     iteration # 63     ecut=    30.00 Ry     beta= 0.50
     Davidson diagonalization with overlap
     ethr =  4.44E-07,  avg # of iterations =  2.0

     total cpu time spent up to now is       11.1 secs

     total energy              =    -501.45351343 Ry
     estimated scf accuracy    <       0.00816160 Ry

     iteration # 64     ecut=    30.00 Ry     beta= 0.50
     Davidson diagonalization with overlap
     c_bands:  1 eigenvalues not converged
     ethr =  4.44E-07,  avg # of iterations = 20.0

     total cpu time spent up to now is       11.3 secs

     total energy              =    -501.45741849 Ry
     estimated scf accuracy    <       0.01365751 Ry

     iteration # 65     ecut=    30.00 Ry     beta= 0.50
     Davidson diagonalization with overlap
     ethr =  4.44E-07,  avg # of iterations = 19.0

     total cpu time spent up to now is       11.4 secs

     total energy              =    -501.45752453 Ry
     estimated scf accuracy    <       0.01240568 Ry

     iteration # 66     ecut=    30.00 Ry     beta= 0.50
     Davidson diagonalization with overlap
     ethr =  4.44E-07,  avg # of iterations =  1.0

     total cpu time spent up to now is       11.5 secs

     total energy              =    -501.45695507 Ry
     estimated scf accuracy    <       0.01106260 Ry

     iteration # 67     ecut=    30.00 Ry     beta= 0.50
     Davidson diagonalization with overlap
     c_bands:  1 eigenvalues not converged
     ethr =  4.44E-07,  avg # of iterations = 20.0

     total cpu time spent up to now is       11.6 secs

     total energy              =    -501.45721690 Ry
     estimated scf accuracy    <       0.00880458 Ry

     iteration # 68     ecut=    30.00 Ry     beta= 0.50
     Davidson diagonalization with overlap
     c_bands:  1 eigenvalues not converged
     ethr =  4.44E-07,  avg # of iterations = 20.0

     total cpu time spent up to now is       11.8 secs

     total energy              =    -501.45701865 Ry
     estimated scf accuracy    <       0.00838589 Ry

     iteration # 69     ecut=    30.00 Ry     beta= 0.50
     Davidson diagonalization with overlap
     ethr =  4.44E-07,  avg # of iterations = 11.0

     total cpu time spent up to now is       11.9 secs

     total energy              =    -501.45703478 Ry
     estimated scf accuracy    <       0.00688552 Ry

     iteration # 70     ecut=    30.00 Ry     beta= 0.50
     Davidson diagonalization with overlap
     ethr =  4.44E-07,  avg # of iterations =  1.0

     total cpu time spent up to now is       12.0 secs

     total energy              =    -501.45697870 Ry
     estimated scf accuracy    <       0.00673030 Ry

     iteration # 71     ecut=    30.00 Ry     beta= 0.50
     Davidson diagonalization with overlap
     ethr =  4.44E-07,  avg # of iterations =  1.0

     total cpu time spent up to now is       12.0 secs

     total energy              =    -501.45703091 Ry
     estimated scf accuracy    <       0.00648970 Ry

     iteration # 72     ecut=    30.00 Ry     beta= 0.50
     Davidson diagonalization with overlap
     ethr =  4.44E-07,  avg # of iterations =  1.0

     total cpu time spent up to now is       12.1 secs

     total energy              =    -501.45516106 Ry
     estimated scf accuracy    <       0.00661430 Ry

     iteration # 73     ecut=    30.00 Ry     beta= 0.50
     Davidson diagonalization with overlap
     c_bands:  1 eigenvalues not converged
     ethr =  4.44E-07,  avg # of iterations = 20.0

     total cpu time spent up to now is       12.3 secs

     total energy              =    -501.45531551 Ry
     estimated scf accuracy    <       0.04334008 Ry

     iteration # 74     ecut=    30.00 Ry     beta= 0.50
     Davidson diagonalization with overlap
     c_bands:  1 eigenvalues not converged
     ethr =  4.44E-07,  avg # of iterations = 20.0

     total cpu time spent up to now is       12.5 secs

     total energy              =    -501.45687795 Ry
     estimated scf accuracy    <       0.03175757 Ry

     iteration # 75     ecut=    30.00 Ry     beta= 0.50
     Davidson diagonalization with overlap
     c_bands:  1 eigenvalues not converged
     ethr =  4.44E-07,  avg # of iterations = 20.0

     total cpu time spent up to now is       12.6 secs

     total energy              =    -501.45321274 Ry
     estimated scf accuracy    <       0.02517411 Ry

     iteration # 76     ecut=    30.00 Ry     beta= 0.50
     Davidson diagonalization with overlap
     c_bands:  1 eigenvalues not converged
     ethr =  4.44E-07,  avg # of iterations = 20.0

     total cpu time spent up to now is       12.8 secs

     total energy              =    -501.45650305 Ry
     estimated scf accuracy    <       0.00666136 Ry

     iteration # 77     ecut=    30.00 Ry     beta= 0.50
     Davidson diagonalization with overlap
     c_bands:  1 eigenvalues not converged
     ethr =  4.44E-07,  avg # of iterations = 20.0

     total cpu time spent up to now is       13.0 secs

     total energy              =    -501.45636446 Ry
     estimated scf accuracy    <       0.00866843 Ry

     iteration # 78     ecut=    30.00 Ry     beta= 0.50
     Davidson diagonalization with overlap
     ethr =  4.44E-07,  avg # of iterations = 13.0

     total cpu time spent up to now is       13.1 secs

     total energy              =    -501.45656372 Ry
     estimated scf accuracy    <       0.00414978 Ry

     iteration # 79     ecut=    30.00 Ry     beta= 0.50
     Davidson diagonalization with overlap
     ethr =  4.44E-07,  avg # of iterations =  3.0

     total cpu time spent up to now is       13.2 secs

     total energy              =    -501.45651744 Ry
     estimated scf accuracy    <       0.00351838 Ry

     iteration # 80     ecut=    30.00 Ry     beta= 0.50
     Davidson diagonalization with overlap
     ethr =  4.44E-07,  avg # of iterations =  1.0

     total cpu time spent up to now is       13.3 secs

     total energy              =    -501.45639105 Ry
     estimated scf accuracy    <       0.00314865 Ry

     iteration # 81     ecut=    30.00 Ry     beta= 0.50
     Davidson diagonalization with overlap
     ethr =  4.44E-07,  avg # of iterations =  1.0

     total cpu time spent up to now is       13.3 secs

     total energy              =    -501.45630997 Ry
     estimated scf accuracy    <       0.00262358 Ry

     iteration # 82     ecut=    30.00 Ry     beta= 0.50
     Davidson diagonalization with overlap
     ethr =  4.44E-07,  avg # of iterations =  1.0

     total cpu time spent up to now is       13.4 secs

     total energy              =    -501.45620210 Ry
     estimated scf accuracy    <       0.00224961 Ry

     iteration # 83     ecut=    30.00 Ry     beta= 0.50
     Davidson diagonalization with overlap
     ethr =  4.44E-07,  avg # of iterations =  1.0

     total cpu time spent up to now is       13.5 secs

     total energy              =    -501.45604824 Ry
     estimated scf accuracy    <       0.00175429 Ry

     iteration # 84     ecut=    30.00 Ry     beta= 0.50
     Davidson diagonalization with overlap
     ethr =  4.44E-07,  avg # of iterations =  2.0

     total cpu time spent up to now is       13.6 secs

     total energy              =    -501.45570440 Ry
     estimated scf accuracy    <       0.00107372 Ry

     iteration # 85     ecut=    30.00 Ry     beta= 0.50
     Davidson diagonalization with overlap
     c_bands:  1 eigenvalues not converged
     ethr =  4.19E-07,  avg # of iterations = 20.0

     total cpu time spent up to now is       13.7 secs

     total energy              =    -501.45613139 Ry
     estimated scf accuracy    <       0.00193442 Ry

     iteration # 86     ecut=    30.00 Ry     beta= 0.50
     Davidson diagonalization with overlap
     c_bands:  1 eigenvalues not converged
     ethr =  4.19E-07,  avg # of iterations = 20.0

     total cpu time spent up to now is       13.9 secs

     total energy              =    -501.45683447 Ry
     estimated scf accuracy    <       0.01850885 Ry

     iteration # 87     ecut=    30.00 Ry     beta= 0.50
     Davidson diagonalization with overlap
     c_bands:  1 eigenvalues not converged
     ethr =  4.19E-07,  avg # of iterations = 20.0

     total cpu time spent up to now is       14.0 secs

     total energy              =    -501.45788691 Ry
     estimated scf accuracy    <       0.03091061 Ry

     iteration # 88     ecut=    30.00 Ry     beta= 0.50
     Davidson diagonalization with overlap
     c_bands:  1 eigenvalues not converged
     ethr =  4.19E-07,  avg # of iterations = 20.0

     total cpu time spent up to now is       14.2 secs

     total energy              =    -501.45842742 Ry
     estimated scf accuracy    <       0.03361077 Ry

     iteration # 89     ecut=    30.00 Ry     beta= 0.50
     Davidson diagonalization with overlap
     c_bands:  1 eigenvalues not converged
     ethr =  4.19E-07,  avg # of iterations = 20.0

     total cpu time spent up to now is       14.3 secs

     total energy              =    -501.45739747 Ry
     estimated scf accuracy    <       0.03559033 Ry

     iteration # 90     ecut=    30.00 Ry     beta= 0.50
     Davidson diagonalization with overlap
     ethr =  4.19E-07,  avg # of iterations = 18.0

     total cpu time spent up to now is       14.5 secs

     total energy              =    -501.45621117 Ry
     estimated scf accuracy    <       0.02945088 Ry

     iteration # 91     ecut=    30.00 Ry     beta= 0.50
     Davidson diagonalization with overlap
     ethr =  4.19E-07,  avg # of iterations =  2.0

     total cpu time spent up to now is       14.5 secs

     total energy              =    -501.45592410 Ry
     estimated scf accuracy    <       0.02358757 Ry

     iteration # 92     ecut=    30.00 Ry     beta= 0.50
     Davidson diagonalization with overlap
     ethr =  4.19E-07,  avg # of iterations =  1.0

     total cpu time spent up to now is       14.6 secs

     total energy              =    -501.45544079 Ry
     estimated scf accuracy    <       0.02180151 Ry

     iteration # 93     ecut=    30.00 Ry     beta= 0.50
     Davidson diagonalization with overlap
     ethr =  4.19E-07,  avg # of iterations =  1.0

     total cpu time spent up to now is       14.7 secs

     total energy              =    -501.45247181 Ry
     estimated scf accuracy    <       0.01961215 Ry

     iteration # 94     ecut=    30.00 Ry     beta= 0.50
     Davidson diagonalization with overlap
     c_bands:  1 eigenvalues not converged
     ethr =  4.19E-07,  avg # of iterations = 20.0

     total cpu time spent up to now is       14.8 secs

     total energy              =    -501.45967524 Ry
     estimated scf accuracy    <       0.02136206 Ry

     iteration # 95     ecut=    30.00 Ry     beta= 0.50
     Davidson diagonalization with overlap
     ethr =  4.19E-07,  avg # of iterations = 15.0

     total cpu time spent up to now is       15.0 secs

     total energy              =    -501.45799854 Ry
     estimated scf accuracy    <       0.02562283 Ry

     iteration # 96     ecut=    30.00 Ry     beta= 0.50
     Davidson diagonalization with overlap
     ethr =  4.19E-07,  avg # of iterations = 17.0

     total cpu time spent up to now is       15.2 secs

     total energy              =    -501.45755303 Ry
     estimated scf accuracy    <       0.01618981 Ry

     iteration # 97     ecut=    30.00 Ry     beta= 0.50
     Davidson diagonalization with overlap
     ethr =  4.19E-07,  avg # of iterations = 16.0

     total cpu time spent up to now is       15.3 secs

     total energy              =    -501.45709735 Ry
     estimated scf accuracy    <       0.01141589 Ry

     iteration # 98     ecut=    30.00 Ry     beta= 0.50
     Davidson diagonalization with overlap
     ethr =  4.19E-07,  avg # of iterations =  2.0

     total cpu time spent up to now is       15.4 secs

     total energy              =    -501.45692168 Ry
     estimated scf accuracy    <       0.00827405 Ry

     iteration # 99     ecut=    30.00 Ry     beta= 0.50
     Davidson diagonalization with overlap
     ethr =  4.19E-07,  avg # of iterations =  1.0

     total cpu time spent up to now is       15.5 secs

     total energy              =    -501.45671052 Ry
     estimated scf accuracy    <       0.00716336 Ry

     iteration #100     ecut=    30.00 Ry     beta= 0.50
     Davidson diagonalization with overlap
     ethr =  4.19E-07,  avg # of iterations =  1.0

     total cpu time spent up to now is       15.5 secs

     total energy              =    -501.45660221 Ry
     estimated scf accuracy    <       0.00609671 Ry

     End of self-consistent calculation

     convergence NOT achieved after 100 iterations: stopping

     Writing config to output data dir ./pwscf.save/
     Message from routine punch:
     wavefunctions written to file
 
     init_run     :      1.12s CPU      4.15s WALL (       1 calls)
     electrons    :     10.71s CPU     11.32s WALL (       1 calls)

     Called by init_run:
     wfcinit      :      0.60s CPU      3.50s WALL (       1 calls)
                                        3.50s GPU  (       1 calls)
     potinit      :      0.05s CPU      0.12s WALL (       1 calls)
     hinit0       :      0.45s CPU      0.48s WALL (       1 calls)

     Called by electrons:
     c_bands      :      7.53s CPU      7.86s WALL (     101 calls)
     sum_band     :      1.50s CPU      1.70s WALL (     101 calls)
     v_of_rho     :      0.58s CPU      0.68s WALL (     101 calls)
     mix_rho      :      0.88s CPU      0.91s WALL (     101 calls)

     Called by c_bands:
     init_us_2    :      0.24s CPU      0.27s WALL (     203 calls)
     init_us_2:gp :      0.24s CPU      0.27s WALL (     203 calls)
     regterg      :      6.79s CPU      7.08s WALL (     101 calls)

     Called by *egterg:
     rdiaghg      :      3.37s CPU      4.06s WALL (    1087 calls)
                                        3.91s GPU  (    1087 calls)
     h_psi        :      3.09s CPU      5.55s WALL (    1089 calls)
                                        5.53s GPU  (    1089 calls)
     g_psi        :      0.00s CPU      0.02s WALL (     987 calls)
                                        0.02s GPU  (     987 calls)

     Called by h_psi:
     h_psi:calbec :      0.85s CPU      3.14s WALL (    1089 calls)
                                        3.13s GPU  (    1089 calls)
     vloc_psi     :      1.59s CPU      1.75s WALL (    1089 calls)
                                        1.73s GPU  (    1089 calls)
     add_vuspsi   :      0.51s CPU      0.60s WALL (    1089 calls)
                                        0.60s GPU  (    1089 calls)

     General routines
     calbec       :      0.84s CPU      3.12s WALL (    1089 calls)
     fft          :      0.95s CPU      1.08s WALL (     809 calls)
                                        0.17s GPU  (     505 calls)
     ffts         :      0.16s CPU      0.17s WALL (     101 calls)
     fftw         :      1.92s CPU      2.40s WALL (   10036 calls)
                                        2.07s GPU  (   10036 calls)
     davcio       :      0.00s CPU      0.00s WALL (      19 calls)
 
     Parallel routines
 
     PWSCF        :     11.87s CPU     15.57s WALL

 
   This run was terminated on:  15:17:33   9May2023            

=------------------------------------------------------------------------------=
   JOB DONE.
=------------------------------------------------------------------------------=
