An instance of this daemon is already running
An instance of this daemon is already running

     Program PWSCF v.7.1 starts on  9May2023 at 15: 5:31 

     This program is part of the open-source Quantum ESPRESSO suite
     for quantum simulation of materials; please cite
         "P. Giannozzi et al., J. Phys.:Condens. Matter 21 395502 (2009);
         "P. Giannozzi et al., J. Phys.:Condens. Matter 29 465901 (2017);
         "P. Giannozzi et al., J. Chem. Phys. 152 154105 (2020);
          URL http://www.quantum-espresso.org", 
     in publications or presentations arising from this work. More details at
     http://www.quantum-espresso.org/quote

     Parallel version (MPI & OpenMP), running on       4 processor cores
     Number of MPI processes:                 4
     Threads/MPI process:                     1

     MPI processes distributed on     1 nodes
     78222 MiB available memory on the printing compute node when the environment starts
 
     Reading input from pw-si-6.in
Warning: card &CELL ignored
Warning: card / ignored

     Current dimensions of program PWSCF are:
     Max number of different atomic species (ntypx) = 10
     Max number of k-points (npk) =  40000
     Max angular momentum in pseudopotentials (lmaxx) =  4

     IMPORTANT: XC functional enforced from input :
     Exchange-correlation= PBE
                           (   1   4   3   4   0   0   0)
     Any further DFT definition will be discarded
     Please, verify this is what you really want


     gamma-point specific algorithms are used
 
     K-points division:     npool     =       2
     R & G space division:  proc/nbgrp/npool/nimage =       2
     Subspace diagonalization in iterative solution of the eigenvalue problem:
     a serial algorithm will be used

     Message from routine divide_et_impera:
     suboptimal parallelization: some nodes have no k-points
 
     Parallelization info
     --------------------
     sticks:   dense  smooth     PW     G-vecs:    dense   smooth      PW
     Min        1900    1900    501                88452    88452   11935
     Max        1901    1901    504                88457    88457   11936
     Sum        3801    3801   1005               176909   176909   23871
 
     Using Slab Decomposition
 


     bravais-lattice index     =            0
     lattice parameter (alat)  =      19.9725  a.u.
     unit-cell volume          =    7967.0114 (a.u.)^3
     number of atoms/cell      =           64
     number of atomic types    =            1
     number of electrons       =       256.00
     number of Kohn-Sham states=          128
     kinetic-energy cutoff     =      30.0000  Ry
     charge density cutoff     =     120.0000  Ry
     scf convergence threshold =      1.0E-06
     mixing beta               =       0.5000
     number of iterations used =            8  plain     mixing
     Exchange-correlation= PBE
                           (   1   4   3   4   0   0   0)

     GPU acceleration is ACTIVE.
     GPU-aware MPI enabled

     Message from routine print_cuda_info:
     High GPU oversubscription detected. Are you sure this is what you want?

     celldm(1)=  19.972472  celldm(2)=   0.000000  celldm(3)=   0.000000
     celldm(4)=   0.000000  celldm(5)=   0.000000  celldm(6)=   0.000000

     crystal axes: (cart. coord. in units of alat)
               a(1) = (   1.000000   0.000000   0.000000 )  
               a(2) = (   0.000000   1.000000   0.000000 )  
               a(3) = (   0.000000   0.000000   1.000000 )  

     reciprocal axes: (cart. coord. in units 2 pi/alat)
               b(1) = (  1.000000  0.000000  0.000000 )  
               b(2) = (  0.000000  1.000000  0.000000 )  
               b(3) = (  0.000000  0.000000  1.000000 )  


     PseudoPot. # 1 for Si read from file:
     /home/ppiaggi/pseudos/Si_ONCV_PBE_sr.upf
     MD5 check sum: 8553c464762ac42b85b1eed164b4d029
     Pseudo is Norm-conserving, Zval =  4.0
     Generated using ONCVPSP code by D. R. Hamann
     Using radial grid of 1510 points,  4 beta functions with: 
                l(1) =   0
                l(2) =   0
                l(3) =   1
                l(4) =   1

     atomic species   valence    mass     pseudopotential
        Si             4.00    28.08500     Si( 1.00)

     No symmetry found



   Cartesian axes

     site n.     atom                  positions (alat units)
         1           Si  tau(   1) = (   0.4000720   0.0822608   0.5216320  )
         2           Si  tau(   2) = (   0.4901430   0.0785706   0.1732110  )
         3           Si  tau(   3) = (   0.4429350   0.5698460   0.5968970  )
         4           Si  tau(   4) = (   0.1693530   0.7363970   0.5435180  )
         5           Si  tau(   5) = (   0.7851400   0.0788446   0.4689850  )
         6           Si  tau(   6) = (   0.3171760   0.0789816   0.9367580  )
         7           Si  tau(   7) = (   0.2784630   0.3355980   0.3630270  )
         8           Si  tau(   8) = (   0.9544310   0.7273390   0.6040860  )
         9           Si  tau(   9) = (   0.6768210   0.0621843   0.9613680  )
        10           Si  tau(  10) = (   0.1488880   0.7015200   0.9364020  )
        11           Si  tau(  11) = (   0.0050782   0.2621750   0.5959960  )
        12           Si  tau(  12) = (   0.5041530   0.2087650   0.9224010  )
        13           Si  tau(  13) = (   0.6669550   0.4990900   0.2860290  )
        14           Si  tau(  14) = (   0.5715110   0.0413154   0.3809890  )
        15           Si  tau(  15) = (   0.5267460   0.5527970   0.0939490  )
        16           Si  tau(  16) = (   0.6203130   0.6975350   0.9146270  )
        17           Si  tau(  17) = (   0.9444910   0.9980280   0.8635610  )
        18           Si  tau(  18) = (   0.1511350   0.1527030   0.3749550  )
        19           Si  tau(  19) = (   0.4346100   0.9409470   0.7335390  )
        20           Si  tau(  20) = (   0.5023450   0.8027900   0.4474770  )
        21           Si  tau(  21) = (   0.6410730   0.8903790   0.7896050  )
        22           Si  tau(  22) = (   0.1833760   0.1994400   0.0883739  )
        23           Si  tau(  23) = (   0.5530870   0.7473190   0.2408680  )
        24           Si  tau(  24) = (   0.1631890   0.0511737   0.7667930  )
        25           Si  tau(  25) = (   0.0235050   0.5132920   0.0744671  )
        26           Si  tau(  26) = (   0.2795410   0.5814090   0.3826840  )
        27           Si  tau(  27) = (   0.1093550   0.0287104   0.5400990  )
        28           Si  tau(  28) = (   0.5208610   0.8691700   0.0566354  )
        29           Si  tau(  29) = (   0.2891930   0.8764680   0.4152290  )
        30           Si  tau(  30) = (   0.3093970   0.8377070   0.1063910  )
        31           Si  tau(  31) = (   0.8183850   0.6702150   0.4009700  )
        32           Si  tau(  32) = (   0.6297230   0.3986480   0.9469270  )
        33           Si  tau(  33) = (   0.0574858   0.9329660   0.1576850  )
        34           Si  tau(  34) = (   0.9353270   0.2182730   0.3412980  )
        35           Si  tau(  35) = (   0.3094550   0.6135640   0.1538500  )
        36           Si  tau(  36) = (   0.4032330   0.6362940   0.8108740  )
        37           Si  tau(  37) = (   0.2432920   0.4218220   0.0710025  )
        38           Si  tau(  38) = (   0.3610870   0.4128430   0.8779850  )
        39           Si  tau(  39) = (   0.7879830   0.7971610   0.2036470  )
        40           Si  tau(  40) = (   0.7528940   0.5140080   0.7695260  )
        41           Si  tau(  41) = (   0.8159050   0.6515910   0.0239551  )
        42           Si  tau(  42) = (   0.8069970   0.1765760   0.6741890  )
        43           Si  tau(  43) = (   0.5433380   0.1691330   0.6930440  )
        44           Si  tau(  44) = (   0.7977180   0.3971670   0.4561240  )
        45           Si  tau(  45) = (   0.0255363   0.4854840   0.5335000  )
        46           Si  tau(  46) = (   0.6518760   0.7181110   0.6130930  )
        47           Si  tau(  47) = (   0.8210090   0.2546410   0.8910850  )
        48           Si  tau(  48) = (   0.3559830   0.3605580   0.5982030  )
        49           Si  tau(  49) = (   0.2579620   0.8097130   0.7742060  )
        50           Si  tau(  50) = (   0.1834780   0.2725570   0.7593190  )
        51           Si  tau(  51) = (   0.5307200   0.3069210   0.3953890  )
        52           Si  tau(  52) = (   0.4303770   0.3040190   0.1701560  )
        53           Si  tau(  53) = (   0.8093650   0.3938450   0.1199660  )
        54           Si  tau(  54) = (   0.7664410   0.0341552   0.1792430  )
        55           Si  tau(  55) = (   0.2730110   0.0320388   0.2228500  )
        56           Si  tau(  56) = (   0.6367510   0.3777110   0.6172870  )
        57           Si  tau(  57) = (   0.0477592   0.6743830   0.3062520  )
        58           Si  tau(  58) = (   0.9611510   0.8191200   0.9740340  )
        59           Si  tau(  59) = (   0.0582828   0.4267850   0.2983980  )
        60           Si  tau(  60) = (   0.9500940   0.5829200   0.7865340  )
        61           Si  tau(  61) = (   0.9517050   0.1618090   0.0754436  )
        62           Si  tau(  62) = (   0.0193257   0.3905960   0.8801310  )
        63           Si  tau(  63) = (   0.8302100   0.9175990   0.6689960  )
        64           Si  tau(  64) = (   0.9450310   0.9229340   0.3921800  )

     number of k points=     1
                       cart. coord. in units 2pi/alat
        k(    1) = (   0.0000000   0.0000000   0.0000000), wk =   2.0000000

     Dense  grid:    88455 G-vectors     FFT dimensions: (  72,  72,  72)

     Estimated max dynamical RAM per process >     130.59 MB

     Estimated total dynamical RAM >     500.78 MB

     Initial potential from superposition of free atoms

     starting charge     255.9608, renormalised to     256.0000
     Starting wfcs are  256 randomized atomic wfcs

     total cpu time spent up to now is        4.1 secs

     Self-consistent Calculation

     iteration #  1     ecut=    30.00 Ry     beta= 0.50
     Davidson diagonalization with overlap
     ethr =  1.00E-02,  avg # of iterations =  2.0

     Threshold (ethr) on eigenvalues was too large:
     Diagonalizing with lowered threshold

     Davidson diagonalization with overlap
     ethr =  3.51E-04,  avg # of iterations =  6.0

     total cpu time spent up to now is        4.2 secs

     total energy              =    -501.22594401 Ry
     estimated scf accuracy    <       1.14306873 Ry

     iteration #  2     ecut=    30.00 Ry     beta= 0.50
     Davidson diagonalization with overlap
     ethr =  4.47E-04,  avg # of iterations = 14.0

     total cpu time spent up to now is        4.4 secs

     total energy              =    -500.94360366 Ry
     estimated scf accuracy    <       3.14882985 Ry

     iteration #  3     ecut=    30.00 Ry     beta= 0.50
     Davidson diagonalization with overlap
     ethr =  4.47E-04,  avg # of iterations = 14.0

     total cpu time spent up to now is        4.5 secs

     total energy              =    -501.25124455 Ry
     estimated scf accuracy    <       2.24864503 Ry

     iteration #  4     ecut=    30.00 Ry     beta= 0.50
     Davidson diagonalization with overlap
     ethr =  4.47E-04,  avg # of iterations =  8.0

     total cpu time spent up to now is        4.6 secs

     total energy              =    -501.40600798 Ry
     estimated scf accuracy    <       0.39065924 Ry

     iteration #  5     ecut=    30.00 Ry     beta= 0.50
     Davidson diagonalization with overlap
     ethr =  1.53E-04,  avg # of iterations =  8.0

     total cpu time spent up to now is        4.7 secs

     total energy              =    -501.44591870 Ry
     estimated scf accuracy    <       0.16761297 Ry

     iteration #  6     ecut=    30.00 Ry     beta= 0.50
     Davidson diagonalization with overlap
     ethr =  6.55E-05,  avg # of iterations = 14.0

     total cpu time spent up to now is        4.8 secs

     total energy              =    -501.46617573 Ry
     estimated scf accuracy    <       0.08779307 Ry

     iteration #  7     ecut=    30.00 Ry     beta= 0.50
     Davidson diagonalization with overlap
     ethr =  3.43E-05,  avg # of iterations =  9.0

     total cpu time spent up to now is        5.0 secs

     total energy              =    -501.47223961 Ry
     estimated scf accuracy    <       0.01665598 Ry

     iteration #  8     ecut=    30.00 Ry     beta= 0.50
     Davidson diagonalization with overlap
     ethr =  6.51E-06,  avg # of iterations = 13.0

     total cpu time spent up to now is        5.1 secs

     total energy              =    -501.47457831 Ry
     estimated scf accuracy    <       0.01371678 Ry

     iteration #  9     ecut=    30.00 Ry     beta= 0.50
     Davidson diagonalization with overlap
     ethr =  5.36E-06,  avg # of iterations =  6.0

     total cpu time spent up to now is        5.2 secs

     total energy              =    -501.47534843 Ry
     estimated scf accuracy    <       0.00484414 Ry

     iteration # 10     ecut=    30.00 Ry     beta= 0.50
     Davidson diagonalization with overlap
     ethr =  1.89E-06,  avg # of iterations = 12.0

     total cpu time spent up to now is        5.3 secs

     total energy              =    -501.47577426 Ry
     estimated scf accuracy    <       0.00156084 Ry

     iteration # 11     ecut=    30.00 Ry     beta= 0.50
     Davidson diagonalization with overlap
     ethr =  6.10E-07,  avg # of iterations = 12.0

     total cpu time spent up to now is        5.4 secs

     total energy              =    -501.47593335 Ry
     estimated scf accuracy    <       0.00156902 Ry

     iteration # 12     ecut=    30.00 Ry     beta= 0.50
     Davidson diagonalization with overlap
     ethr =  6.10E-07,  avg # of iterations =  2.0

     total cpu time spent up to now is        5.5 secs

     total energy              =    -501.47587746 Ry
     estimated scf accuracy    <       0.00076730 Ry

     iteration # 13     ecut=    30.00 Ry     beta= 0.50
     Davidson diagonalization with overlap
     ethr =  3.00E-07,  avg # of iterations = 11.0

     total cpu time spent up to now is        5.6 secs

     total energy              =    -501.47597883 Ry
     estimated scf accuracy    <       0.00009233 Ry

     iteration # 14     ecut=    30.00 Ry     beta= 0.50
     Davidson diagonalization with overlap
     ethr =  3.61E-08,  avg # of iterations = 14.0

     total cpu time spent up to now is        5.8 secs

     total energy              =    -501.47598806 Ry
     estimated scf accuracy    <       0.00031936 Ry

     iteration # 15     ecut=    30.00 Ry     beta= 0.50
     Davidson diagonalization with overlap
     ethr =  3.61E-08,  avg # of iterations =  9.0

     total cpu time spent up to now is        5.9 secs

     total energy              =    -501.47598761 Ry
     estimated scf accuracy    <       0.00010558 Ry

     iteration # 16     ecut=    30.00 Ry     beta= 0.50
     Davidson diagonalization with overlap
     ethr =  3.61E-08,  avg # of iterations =  3.0

     total cpu time spent up to now is        5.9 secs

     total energy              =    -501.47599365 Ry
     estimated scf accuracy    <       0.00001782 Ry

     iteration # 17     ecut=    30.00 Ry     beta= 0.50
     Davidson diagonalization with overlap
     ethr =  6.96E-09,  avg # of iterations = 18.0

     total cpu time spent up to now is        6.1 secs

     total energy              =    -501.47599798 Ry
     estimated scf accuracy    <       0.00003869 Ry

     iteration # 18     ecut=    30.00 Ry     beta= 0.50
     Davidson diagonalization with overlap
     ethr =  6.96E-09,  avg # of iterations = 11.0

     total cpu time spent up to now is        6.2 secs

     total energy              =    -501.47599850 Ry
     estimated scf accuracy    <       0.00001919 Ry

     iteration # 19     ecut=    30.00 Ry     beta= 0.50
     Davidson diagonalization with overlap
     ethr =  6.96E-09,  avg # of iterations =  2.0

     total cpu time spent up to now is        6.3 secs

     total energy              =    -501.47599812 Ry
     estimated scf accuracy    <       0.00001186 Ry

     iteration # 20     ecut=    30.00 Ry     beta= 0.50
     Davidson diagonalization with overlap
     ethr =  4.63E-09,  avg # of iterations =  2.0

     total cpu time spent up to now is        6.3 secs

     total energy              =    -501.47599795 Ry
     estimated scf accuracy    <       0.00000600 Ry

     iteration # 21     ecut=    30.00 Ry     beta= 0.50
     Davidson diagonalization with overlap
     ethr =  2.34E-09,  avg # of iterations =  8.0

     total cpu time spent up to now is        6.4 secs

     End of self-consistent calculation

          k = 0.0000 0.0000 0.0000 ( 11060 PWs)   bands (ev):

    -5.2397  -4.2404  -4.2228  -4.0646  -3.9671  -3.8146  -3.6617  -3.1684
    -3.0882  -3.0105  -2.9278  -2.8696  -2.8417  -2.7729  -2.7325  -2.5663
    -2.5214  -2.4210  -2.3062  -1.8823  -1.7646  -1.6921  -1.6040  -1.5232
    -1.4924  -1.3729  -1.2465  -0.6256  -0.5718  -0.4877  -0.4486  -0.3245
    -0.0747   0.0763   0.2545   0.2986   0.3388   0.4147   0.5439   0.5526
     0.6364   0.6837   0.7874   0.8262   0.8997   0.9506   1.1056   1.1526
     1.1882   1.3703   1.4229   1.5270   1.5471   1.6193   1.7665   1.8177
     1.9176   2.0265   2.0949   2.1581   2.2832   2.3713   2.4155   2.5821
     2.7252   2.7326   2.8059   2.8368   2.9296   3.0760   3.1339   3.2150
     3.3121   3.3358   3.4544   3.4970   3.5882   3.6465   3.7156   3.8132
     4.0482   4.4148   4.4784   4.6471   4.6926   4.7990   4.9098   4.9577
     4.9761   5.0572   5.1143   5.1681   5.1960   5.3282   5.4014   5.5103
     5.5408   5.5988   5.6827   5.6955   5.7668   5.8335   5.8490   5.8769
     6.0117   6.0811   6.1154   6.1469   6.2570   6.3069   6.3710   6.4072
     6.4738   6.4811   6.5820   6.6119   6.6581   6.7158   6.8308   6.9309
     6.9567   6.9912   7.0262   7.0575   7.0962   7.1753   7.2660   7.3078

     highest occupied level (ev):     7.3078

!    total energy              =    -501.47599799 Ry
     estimated scf accuracy    <       0.00000064 Ry

     The total energy is the sum of the following terms:
     one-electron contribution =     197.59746737 Ry
     hartree contribution      =      21.62450862 Ry
     xc contribution           =    -151.29162605 Ry
     ewald contribution        =    -569.40634792 Ry

     convergence has been achieved in  21 iterations

     Forces acting on atoms (cartesian axes, Ry/au):

     atom    1 type  1   force =    -0.00047985   -0.02010390    0.05527270
     atom    2 type  1   force =    -0.00005974   -0.01224498    0.00031844
     atom    3 type  1   force =     0.00390848   -0.00089180   -0.01754078
     atom    4 type  1   force =     0.00859303    0.01138252    0.00128179
     atom    5 type  1   force =     0.00053906   -0.02681536   -0.01348266
     atom    6 type  1   force =     0.00943224   -0.01263261   -0.01138085
     atom    7 type  1   force =     0.00503853    0.03160108    0.00147324
     atom    8 type  1   force =    -0.01302070    0.00544765   -0.02699139
     atom    9 type  1   force =     0.00478723   -0.02072539    0.02427054
     atom   10 type  1   force =    -0.00308071   -0.01119989    0.01882887
     atom   11 type  1   force =     0.00644952   -0.02074519   -0.02798945
     atom   12 type  1   force =     0.00454608   -0.00047075   -0.03278826
     atom   13 type  1   force =     0.00623594   -0.00200453    0.00242740
     atom   14 type  1   force =     0.02522893   -0.01344525   -0.00646078
     atom   15 type  1   force =     0.00583840    0.00054144   -0.00243837
     atom   16 type  1   force =    -0.02604905   -0.00964282   -0.00979607
     atom   17 type  1   force =     0.00562599    0.05454668   -0.05889828
     atom   18 type  1   force =    -0.00814265    0.01072949   -0.02940652
     atom   19 type  1   force =    -0.01235845    0.03262848   -0.01058660
     atom   20 type  1   force =    -0.00622359    0.02650966   -0.00215894
     atom   21 type  1   force =     0.01156088   -0.02043437    0.01417086
     atom   22 type  1   force =    -0.02594346    0.00201008    0.00214331
     atom   23 type  1   force =     0.03535413   -0.01818762    0.00199847
     atom   24 type  1   force =    -0.04023191   -0.03529281    0.00565704
     atom   25 type  1   force =    -0.00866620    0.01247719    0.01801253
     atom   26 type  1   force =    -0.02535667   -0.00800834    0.00349522
     atom   27 type  1   force =    -0.02366265   -0.03127311    0.02988490
     atom   28 type  1   force =     0.00839893    0.04195483   -0.01485263
     atom   29 type  1   force =     0.00947233    0.02161394    0.01264133
     atom   30 type  1   force =    -0.00987593   -0.02040051   -0.03684810
     atom   31 type  1   force =     0.00841709   -0.01159509    0.01774387
     atom   32 type  1   force =     0.03487395    0.01295782   -0.01206431
     atom   33 type  1   force =    -0.01496899   -0.00575952    0.02924177
     atom   34 type  1   force =    -0.00495920    0.03018856    0.01439313
     atom   35 type  1   force =     0.01373603    0.02695226    0.02956546
     atom   36 type  1   force =     0.02346551   -0.02422126    0.01225196
     atom   37 type  1   force =    -0.02205096   -0.02966598   -0.01055967
     atom   38 type  1   force =    -0.00425760    0.01697688    0.00971228
     atom   39 type  1   force =    -0.02226921    0.01038252    0.01931296
     atom   40 type  1   force =    -0.08286545   -0.00884959    0.00689267
     atom   41 type  1   force =     0.01066267    0.00333312    0.00362998
     atom   42 type  1   force =    -0.02466377    0.00766887    0.00864333
     atom   43 type  1   force =     0.01915619    0.02846600    0.00169155
     atom   44 type  1   force =     0.04248844    0.00432844    0.00867888
     atom   45 type  1   force =    -0.03980103   -0.00128735   -0.00605931
     atom   46 type  1   force =     0.00018410   -0.00754314   -0.01457474
     atom   47 type  1   force =    -0.00159585   -0.00399065    0.01164541
     atom   48 type  1   force =     0.00343428   -0.03250770   -0.02144858
     atom   49 type  1   force =     0.00651100   -0.00376209   -0.03176758
     atom   50 type  1   force =     0.00335792    0.03549876   -0.00607067
     atom   51 type  1   force =     0.00824258    0.01515088   -0.02218508
     atom   52 type  1   force =     0.00608383    0.01205784    0.03299215
     atom   53 type  1   force =    -0.00254628    0.02062852    0.00028352
     atom   54 type  1   force =     0.00827084   -0.01032295   -0.01830229
     atom   55 type  1   force =    -0.02333989   -0.00319018    0.03208063
     atom   56 type  1   force =    -0.00794448   -0.01129511    0.00140440
     atom   57 type  1   force =     0.00716254   -0.02033738    0.00596442
     atom   58 type  1   force =     0.01867611   -0.02946853    0.03932714
     atom   59 type  1   force =     0.01633142    0.01712700   -0.00669772
     atom   60 type  1   force =     0.06687126    0.02708421   -0.00697000
     atom   61 type  1   force =    -0.01276307   -0.00644335   -0.00619859
     atom   62 type  1   force =    -0.00202970   -0.02299278   -0.00556488
     atom   63 type  1   force =     0.01774820    0.00535934    0.00732182
     atom   64 type  1   force =     0.00252340   -0.00785216   -0.01457088

     Total force =     0.281870     Total SCF correction =     0.001596


     Computing stress (Cartesian axis) and pressure

          total   stress  (Ry/bohr**3)                   (kbar)     P=      -30.45
  -0.00021366   0.00001074  -0.00001908          -31.43        1.58       -2.81
   0.00001074  -0.00018072  -0.00002766            1.58      -26.58       -4.07
  -0.00001908  -0.00002766  -0.00022657           -2.81       -4.07      -33.33

 
     init_run     :      0.91s CPU      4.01s WALL (       1 calls)
     electrons    :      2.22s CPU      2.36s WALL (       1 calls)
     forces       :      0.03s CPU      0.03s WALL (       1 calls)
     stress       :      0.12s CPU      0.12s WALL (       1 calls)

     Called by init_run:
     wfcinit      :      0.40s CPU      3.36s WALL (       1 calls)
                                        3.36s GPU  (       1 calls)
     potinit      :      0.04s CPU      0.12s WALL (       1 calls)
     hinit0       :      0.45s CPU      0.47s WALL (       1 calls)

     Called by electrons:
     c_bands      :      1.63s CPU      1.69s WALL (      22 calls)
     sum_band     :      0.29s CPU      0.34s WALL (      22 calls)
     v_of_rho     :      0.14s CPU      0.22s WALL (      22 calls)
     mix_rho      :      0.15s CPU      0.16s WALL (      22 calls)

     Called by c_bands:
     init_us_2    :      0.05s CPU      0.06s WALL (      45 calls)
     init_us_2:gp :      0.05s CPU      0.06s WALL (      45 calls)
     regterg      :      1.47s CPU      1.53s WALL (      22 calls)

     Called by *egterg:
     rdiaghg      :      0.76s CPU      1.36s WALL (     219 calls)
                                        1.32s GPU  (     219 calls)
     h_psi        :      0.89s CPU      3.29s WALL (     221 calls)
                                        3.29s GPU  (     221 calls)
     g_psi        :      0.00s CPU      0.00s WALL (     198 calls)
                                        0.00s GPU  (     198 calls)

     Called by h_psi:
     h_psi:calbec :      0.41s CPU      2.73s WALL (     221 calls)
                                        2.73s GPU  (     221 calls)
     vloc_psi     :      0.38s CPU      0.44s WALL (     221 calls)
                                        0.44s GPU  (     221 calls)
     add_vuspsi   :      0.08s CPU      0.11s WALL (     221 calls)
                                        0.10s GPU  (     221 calls)

     General routines
     calbec       :      0.41s CPU      2.73s WALL (     226 calls)
     fft          :      0.55s CPU      0.66s WALL (     183 calls)
                                        0.11s GPU  (     116 calls)
     ffts         :      0.03s CPU      0.03s WALL (      22 calls)
     fftw         :      0.44s CPU      0.58s WALL (    2192 calls)
                                        0.50s GPU  (    2192 calls)
 
     Parallel routines
 
     PWSCF        :      3.31s CPU      6.59s WALL

 
   This run was terminated on:  15: 5:38   9May2023            

=------------------------------------------------------------------------------=
   JOB DONE.
=------------------------------------------------------------------------------=
