An instance of this daemon is already running
An instance of this daemon is already running

     Program PWSCF v.7.1 starts on  9May2023 at 15: 6:57 

     This program is part of the open-source Quantum ESPRESSO suite
     for quantum simulation of materials; please cite
         "P. Giannozzi et al., J. Phys.:Condens. Matter 21 395502 (2009);
         "P. Giannozzi et al., J. Phys.:Condens. Matter 29 465901 (2017);
         "P. Giannozzi et al., J. Chem. Phys. 152 154105 (2020);
          URL http://www.quantum-espresso.org", 
     in publications or presentations arising from this work. More details at
     http://www.quantum-espresso.org/quote

     Parallel version (MPI & OpenMP), running on       4 processor cores
     Number of MPI processes:                 4
     Threads/MPI process:                     1

     MPI processes distributed on     1 nodes
     75986 MiB available memory on the printing compute node when the environment starts
 
     Reading input from pw-si-13.in
Warning: card &CELL ignored
Warning: card / ignored

     Current dimensions of program PWSCF are:
     Max number of different atomic species (ntypx) = 10
     Max number of k-points (npk) =  40000
     Max angular momentum in pseudopotentials (lmaxx) =  4

     IMPORTANT: XC functional enforced from input :
     Exchange-correlation= PBE
                           (   1   4   3   4   0   0   0)
     Any further DFT definition will be discarded
     Please, verify this is what you really want


     gamma-point specific algorithms are used
 
     K-points division:     npool     =       2
     R & G space division:  proc/nbgrp/npool/nimage =       2
     Subspace diagonalization in iterative solution of the eigenvalue problem:
     a serial algorithm will be used

     Message from routine divide_et_impera:
     suboptimal parallelization: some nodes have no k-points
 
     Parallelization info
     --------------------
     sticks:   dense  smooth     PW     G-vecs:    dense   smooth      PW
     Min        1954    1954    520                92150    92150   12584
     Max        1955    1955    521                92157    92157   12589
     Sum        3909    3909   1041               184307   184307   25173
 
     Using Slab Decomposition
 


     bravais-lattice index     =            0
     lattice parameter (alat)  =      20.2482  a.u.
     unit-cell volume          =    8301.5552 (a.u.)^3
     number of atoms/cell      =           64
     number of atomic types    =            1
     number of electrons       =       256.00
     number of Kohn-Sham states=          128
     kinetic-energy cutoff     =      30.0000  Ry
     charge density cutoff     =     120.0000  Ry
     scf convergence threshold =      1.0E-06
     mixing beta               =       0.5000
     number of iterations used =            8  plain     mixing
     Exchange-correlation= PBE
                           (   1   4   3   4   0   0   0)

     GPU acceleration is ACTIVE.
     GPU-aware MPI enabled

     Message from routine print_cuda_info:
     High GPU oversubscription detected. Are you sure this is what you want?

     celldm(1)=  20.248203  celldm(2)=   0.000000  celldm(3)=   0.000000
     celldm(4)=   0.000000  celldm(5)=   0.000000  celldm(6)=   0.000000

     crystal axes: (cart. coord. in units of alat)
               a(1) = (   1.000000   0.000000   0.000000 )  
               a(2) = (   0.000000   1.000000   0.000000 )  
               a(3) = (   0.000000   0.000000   1.000000 )  

     reciprocal axes: (cart. coord. in units 2 pi/alat)
               b(1) = (  1.000000  0.000000  0.000000 )  
               b(2) = (  0.000000  1.000000  0.000000 )  
               b(3) = (  0.000000  0.000000  1.000000 )  


     PseudoPot. # 1 for Si read from file:
     /home/ppiaggi/pseudos/Si_ONCV_PBE_sr.upf
     MD5 check sum: 8553c464762ac42b85b1eed164b4d029
     Pseudo is Norm-conserving, Zval =  4.0
     Generated using ONCVPSP code by D. R. Hamann
     Using radial grid of 1510 points,  4 beta functions with: 
                l(1) =   0
                l(2) =   0
                l(3) =   1
                l(4) =   1

     atomic species   valence    mass     pseudopotential
        Si             4.00    28.08500     Si( 1.00)

     No symmetry found



   Cartesian axes

     site n.     atom                  positions (alat units)
         1           Si  tau(   1) = (   0.9100890   0.6135690   0.8667750  )
         2           Si  tau(   2) = (   0.7619750   0.2614600   0.9960590  )
         3           Si  tau(   3) = (   0.9679060   0.4129410   0.7554390  )
         4           Si  tau(   4) = (   0.6518100   0.3514940   0.1516010  )
         5           Si  tau(   5) = (   0.5171540   0.8266060   0.7954350  )
         6           Si  tau(   6) = (   0.3175100   0.0131985   0.4481640  )
         7           Si  tau(   7) = (   0.9643290   0.1594250   0.8225290  )
         8           Si  tau(   8) = (   0.5738740   0.0530162   0.9705300  )
         9           Si  tau(   9) = (   0.0070718   0.9731950   0.6353940  )
        10           Si  tau(  10) = (   0.0933442   0.6833780   0.7500820  )
        11           Si  tau(  11) = (   0.3634840   0.2230690   0.9672730  )
        12           Si  tau(  12) = (   0.2922080   0.2304840   0.3567450  )
        13           Si  tau(  13) = (   0.7294130   0.8577900   0.6727270  )
        14           Si  tau(  14) = (   0.2115880   0.3764930   0.8892810  )
        15           Si  tau(  15) = (   0.8051180   0.5500940   0.1632480  )
        16           Si  tau(  16) = (   0.8859090   0.4524510   0.4252400  )
        17           Si  tau(  17) = (   0.0140507   0.3257640   0.0145043  )
        18           Si  tau(  18) = (   0.2017810   0.8851680   0.6355890  )
        19           Si  tau(  19) = (   0.6597760   0.4563070   0.3472930  )
        20           Si  tau(  20) = (   0.9641220   0.9203250   0.4410430  )
        21           Si  tau(  21) = (   0.5524000   0.6474070   0.3290080  )
        22           Si  tau(  22) = (   0.9354210   0.1929870   0.1832420  )
        23           Si  tau(  23) = (   0.0390839   0.2298660   0.5807000  )
        24           Si  tau(  24) = (   0.3002480   0.1197190   0.1334430  )
        25           Si  tau(  25) = (   0.5697460   0.4263070   0.5739660  )
        26           Si  tau(  26) = (   0.7463340   0.1057500   0.7572180  )
        27           Si  tau(  27) = (   0.3759180   0.4274720   0.2984700  )
        28           Si  tau(  28) = (   0.7208410   0.6236620   0.6832750  )
        29           Si  tau(  29) = (   0.1624670   0.9493020   0.3200630  )
        30           Si  tau(  30) = (   0.7887730   0.7324410   0.3048540  )
        31           Si  tau(  31) = (   0.2906770   0.5822370   0.9355840  )
        32           Si  tau(  32) = (   0.3318970   0.9534990   0.8063720  )
        33           Si  tau(  33) = (   0.7677410   0.0465086   0.2910640  )
        34           Si  tau(  34) = (   0.2694090   0.7636180   0.2481410  )
        35           Si  tau(  35) = (   0.1015480   0.9389010   0.9141340  )
        36           Si  tau(  36) = (   0.6907060   0.5889300   0.9679080  )
        37           Si  tau(  37) = (   0.2801850   0.7278550   0.4828770  )
        38           Si  tau(  38) = (   0.3350790   0.4660960   0.5522590  )
        39           Si  tau(  39) = (   0.0781371   0.0393383   0.1077100  )
        40           Si  tau(  40) = (   0.5058690   0.7301530   0.5390980  )
        41           Si  tau(  41) = (   0.5151980   0.9107950   0.4190150  )
        42           Si  tau(  42) = (   0.4540890   0.9395410   0.1984880  )
        43           Si  tau(  43) = (   0.8055460   0.0119499   0.0108820  )
        44           Si  tau(  44) = (   0.5311610   0.2269620   0.7919370  )
        45           Si  tau(  45) = (   0.4392090   0.6394640   0.1380940  )
        46           Si  tau(  46) = (   0.4222840   0.6115360   0.7600890  )
        47           Si  tau(  47) = (   0.2367920   0.2975390   0.6782420  )
        48           Si  tau(  48) = (   0.5292440   0.2059570   0.4764240  )
        49           Si  tau(  49) = (   0.0409797   0.2980440   0.3601400  )
        50           Si  tau(  50) = (   0.8178480   0.2720140   0.5548240  )
        51           Si  tau(  51) = (   0.1782940   0.5359550   0.2773820  )
        52           Si  tau(  52) = (   0.3785430   0.1353310   0.6624410  )
        53           Si  tau(  53) = (   0.0284415   0.5156820   0.0870302  )
        54           Si  tau(  54) = (   0.8898920   0.6822560   0.5111610  )
        55           Si  tau(  55) = (   0.7147150   0.8753080   0.1494380  )
        56           Si  tau(  56) = (   0.1213680   0.5888080   0.5002660  )
        57           Si  tau(  57) = (   0.5553720   0.7633900   0.0021277  )
        58           Si  tau(  58) = (   0.8952610   0.8633100   0.8339990  )
        59           Si  tau(  59) = (   0.7573560   0.3704500   0.7643760  )
        60           Si  tau(  60) = (   0.5566010   0.1631080   0.2373860  )
        61           Si  tau(  61) = (   0.4418580   0.4217520   0.0840950  )
        62           Si  tau(  62) = (   0.1321470   0.7295020   0.0322113  )
        63           Si  tau(  63) = (   0.7127560   0.0415779   0.5042800  )
        64           Si  tau(  64) = (   0.5422800   0.4404120   0.8692240  )

     number of k points=     1
                       cart. coord. in units 2pi/alat
        k(    1) = (   0.0000000   0.0000000   0.0000000), wk =   2.0000000

     Dense  grid:    92154 G-vectors     FFT dimensions: (  72,  72,  72)

     Estimated max dynamical RAM per process >     135.46 MB

     Estimated total dynamical RAM >     519.33 MB

     Initial potential from superposition of free atoms

     starting charge     255.9608, renormalised to     256.0000
     Starting wfcs are  256 randomized atomic wfcs

     total cpu time spent up to now is        4.1 secs

     Self-consistent Calculation

     iteration #  1     ecut=    30.00 Ry     beta= 0.50
     Davidson diagonalization with overlap
     ethr =  1.00E-02,  avg # of iterations =  2.0

     Threshold (ethr) on eigenvalues was too large:
     Diagonalizing with lowered threshold

     Davidson diagonalization with overlap
     ethr =  4.37E-04,  avg # of iterations =  6.0

     total cpu time spent up to now is        4.3 secs

     total energy              =    -501.14766149 Ry
     estimated scf accuracy    <       1.37140772 Ry

     iteration #  2     ecut=    30.00 Ry     beta= 0.50
     Davidson diagonalization with overlap
     ethr =  5.36E-04,  avg # of iterations = 10.0

     total cpu time spent up to now is        4.4 secs

     total energy              =    -500.30835082 Ry
     estimated scf accuracy    <      12.24575645 Ry

     iteration #  3     ecut=    30.00 Ry     beta= 0.50
     Davidson diagonalization with overlap
     ethr =  5.36E-04,  avg # of iterations = 10.0

     total cpu time spent up to now is        4.5 secs

     total energy              =    -501.31747103 Ry
     estimated scf accuracy    <       1.67103390 Ry

     iteration #  4     ecut=    30.00 Ry     beta= 0.50
     Davidson diagonalization with overlap
     ethr =  5.36E-04,  avg # of iterations =  3.0

     total cpu time spent up to now is        4.6 secs

     total energy              =    -501.43912766 Ry
     estimated scf accuracy    <       0.43209322 Ry

     iteration #  5     ecut=    30.00 Ry     beta= 0.50
     Davidson diagonalization with overlap
     c_bands:  1 eigenvalues not converged
     ethr =  1.69E-04,  avg # of iterations = 20.0

     total cpu time spent up to now is        4.8 secs

     total energy              =    -501.47080466 Ry
     estimated scf accuracy    <       0.23693513 Ry

     iteration #  6     ecut=    30.00 Ry     beta= 0.50
     Davidson diagonalization with overlap
     ethr =  9.26E-05,  avg # of iterations = 14.0

     total cpu time spent up to now is        4.9 secs

     total energy              =    -501.49576948 Ry
     estimated scf accuracy    <       0.10107704 Ry

     iteration #  7     ecut=    30.00 Ry     beta= 0.50
     Davidson diagonalization with overlap
     ethr =  3.95E-05,  avg # of iterations =  6.0

     total cpu time spent up to now is        5.0 secs

     total energy              =    -501.49751770 Ry
     estimated scf accuracy    <       0.03925673 Ry

     iteration #  8     ecut=    30.00 Ry     beta= 0.50
     Davidson diagonalization with overlap
     ethr =  1.53E-05,  avg # of iterations = 11.0

     total cpu time spent up to now is        5.1 secs

     total energy              =    -501.50086117 Ry
     estimated scf accuracy    <       0.01343784 Ry

     iteration #  9     ecut=    30.00 Ry     beta= 0.50
     Davidson diagonalization with overlap
     ethr =  5.25E-06,  avg # of iterations = 10.0

     total cpu time spent up to now is        5.2 secs

     total energy              =    -501.50263017 Ry
     estimated scf accuracy    <       0.00824011 Ry

     iteration # 10     ecut=    30.00 Ry     beta= 0.50
     Davidson diagonalization with overlap
     c_bands:  1 eigenvalues not converged
     ethr =  3.22E-06,  avg # of iterations = 20.0

     total cpu time spent up to now is        5.4 secs

     total energy              =    -501.50617035 Ry
     estimated scf accuracy    <       0.03072416 Ry

     iteration # 11     ecut=    30.00 Ry     beta= 0.50
     Davidson diagonalization with overlap
     ethr =  3.22E-06,  avg # of iterations = 12.0

     total cpu time spent up to now is        5.5 secs

     total energy              =    -501.50584439 Ry
     estimated scf accuracy    <       0.02296653 Ry

     iteration # 12     ecut=    30.00 Ry     beta= 0.50
     Davidson diagonalization with overlap
     ethr =  3.22E-06,  avg # of iterations =  1.0

     total cpu time spent up to now is        5.6 secs

     total energy              =    -501.50458678 Ry
     estimated scf accuracy    <       0.02015253 Ry

     iteration # 13     ecut=    30.00 Ry     beta= 0.50
     Davidson diagonalization with overlap
     ethr =  3.22E-06,  avg # of iterations =  1.0

     total cpu time spent up to now is        5.7 secs

     total energy              =    -501.50415391 Ry
     estimated scf accuracy    <       0.01436605 Ry

     iteration # 14     ecut=    30.00 Ry     beta= 0.50
     Davidson diagonalization with overlap
     ethr =  3.22E-06,  avg # of iterations =  1.0

     total cpu time spent up to now is        5.7 secs

     total energy              =    -501.50324554 Ry
     estimated scf accuracy    <       0.01121871 Ry

     iteration # 15     ecut=    30.00 Ry     beta= 0.50
     Davidson diagonalization with overlap
     ethr =  3.22E-06,  avg # of iterations =  2.0

     total cpu time spent up to now is        5.8 secs

     total energy              =    -501.50215040 Ry
     estimated scf accuracy    <       0.00698656 Ry

     iteration # 16     ecut=    30.00 Ry     beta= 0.50
     Davidson diagonalization with overlap
     ethr =  2.73E-06,  avg # of iterations =  8.0

     total cpu time spent up to now is        5.9 secs

     total energy              =    -501.50238413 Ry
     estimated scf accuracy    <       0.00161892 Ry

     iteration # 17     ecut=    30.00 Ry     beta= 0.50
     Davidson diagonalization with overlap
     c_bands:  1 eigenvalues not converged
     ethr =  6.32E-07,  avg # of iterations = 20.0

     total cpu time spent up to now is        6.1 secs

     total energy              =    -501.50946696 Ry
     estimated scf accuracy    <       0.03154938 Ry

     iteration # 18     ecut=    30.00 Ry     beta= 0.50
     Davidson diagonalization with overlap
     c_bands:  1 eigenvalues not converged
     ethr =  6.32E-07,  avg # of iterations = 20.0

     total cpu time spent up to now is        6.2 secs

     total energy              =    -501.50762088 Ry
     estimated scf accuracy    <       0.03473491 Ry

     iteration # 19     ecut=    30.00 Ry     beta= 0.50
     Davidson diagonalization with overlap
     ethr =  6.32E-07,  avg # of iterations =  8.0

     total cpu time spent up to now is        6.3 secs

     total energy              =    -501.50487912 Ry
     estimated scf accuracy    <       0.02790337 Ry

     iteration # 20     ecut=    30.00 Ry     beta= 0.50
     Davidson diagonalization with overlap
     c_bands:  1 eigenvalues not converged
     ethr =  6.32E-07,  avg # of iterations = 20.0

     total cpu time spent up to now is        6.5 secs

     total energy              =    -501.50515464 Ry
     estimated scf accuracy    <       0.01191846 Ry

     iteration # 21     ecut=    30.00 Ry     beta= 0.50
     Davidson diagonalization with overlap
     ethr =  6.32E-07,  avg # of iterations =  3.0

     total cpu time spent up to now is        6.6 secs

     total energy              =    -501.50448163 Ry
     estimated scf accuracy    <       0.01121964 Ry

     iteration # 22     ecut=    30.00 Ry     beta= 0.50
     Davidson diagonalization with overlap
     ethr =  6.32E-07,  avg # of iterations =  2.0

     total cpu time spent up to now is        6.6 secs

     total energy              =    -501.50382574 Ry
     estimated scf accuracy    <       0.00830177 Ry

     iteration # 23     ecut=    30.00 Ry     beta= 0.50
     Davidson diagonalization with overlap
     ethr =  6.32E-07,  avg # of iterations =  2.0

     total cpu time spent up to now is        6.7 secs

     total energy              =    -501.50329312 Ry
     estimated scf accuracy    <       0.00542405 Ry

     iteration # 24     ecut=    30.00 Ry     beta= 0.50
     Davidson diagonalization with overlap
     ethr =  6.32E-07,  avg # of iterations =  5.0

     total cpu time spent up to now is        6.8 secs

     total energy              =    -501.50300148 Ry
     estimated scf accuracy    <       0.00262750 Ry

     iteration # 25     ecut=    30.00 Ry     beta= 0.50
     Davidson diagonalization with overlap
     c_bands:  1 eigenvalues not converged
     ethr =  6.32E-07,  avg # of iterations = 20.0

     total cpu time spent up to now is        7.0 secs

     total energy              =    -501.50731979 Ry
     estimated scf accuracy    <       0.02178813 Ry

     iteration # 26     ecut=    30.00 Ry     beta= 0.50
     Davidson diagonalization with overlap
     c_bands:  1 eigenvalues not converged
     ethr =  6.32E-07,  avg # of iterations = 20.0

     total cpu time spent up to now is        7.1 secs

     total energy              =    -501.50525906 Ry
     estimated scf accuracy    <       0.02469656 Ry

     iteration # 27     ecut=    30.00 Ry     beta= 0.50
     Davidson diagonalization with overlap
     ethr =  6.32E-07,  avg # of iterations = 10.0

     total cpu time spent up to now is        7.2 secs

     total energy              =    -501.50513477 Ry
     estimated scf accuracy    <       0.01615179 Ry

     iteration # 28     ecut=    30.00 Ry     beta= 0.50
     Davidson diagonalization with overlap
     ethr =  6.32E-07,  avg # of iterations =  1.0

     total cpu time spent up to now is        7.3 secs

     total energy              =    -501.50469115 Ry
     estimated scf accuracy    <       0.01454997 Ry

     iteration # 29     ecut=    30.00 Ry     beta= 0.50
     Davidson diagonalization with overlap
     ethr =  6.32E-07,  avg # of iterations =  1.0

     total cpu time spent up to now is        7.4 secs

     total energy              =    -501.50422011 Ry
     estimated scf accuracy    <       0.01252039 Ry

     iteration # 30     ecut=    30.00 Ry     beta= 0.50
     Davidson diagonalization with overlap
     ethr =  6.32E-07,  avg # of iterations =  2.0

     total cpu time spent up to now is        7.4 secs

     total energy              =    -501.50393590 Ry
     estimated scf accuracy    <       0.01022976 Ry

     iteration # 31     ecut=    30.00 Ry     beta= 0.50
     Davidson diagonalization with overlap
     ethr =  6.32E-07,  avg # of iterations =  2.0

     total cpu time spent up to now is        7.5 secs

     total energy              =    -501.50396125 Ry
     estimated scf accuracy    <       0.00863906 Ry

     iteration # 32     ecut=    30.00 Ry     beta= 0.50
     Davidson diagonalization with overlap
     ethr =  6.32E-07,  avg # of iterations =  1.0

     total cpu time spent up to now is        7.6 secs

     total energy              =    -501.50392834 Ry
     estimated scf accuracy    <       0.00815180 Ry

     iteration # 33     ecut=    30.00 Ry     beta= 0.50
     Davidson diagonalization with overlap
     ethr =  6.32E-07,  avg # of iterations =  1.0

     total cpu time spent up to now is        7.6 secs

     total energy              =    -501.50137525 Ry
     estimated scf accuracy    <       0.00766278 Ry

     iteration # 34     ecut=    30.00 Ry     beta= 0.50
     Davidson diagonalization with overlap
     c_bands:  1 eigenvalues not converged
     ethr =  6.32E-07,  avg # of iterations = 20.0

     total cpu time spent up to now is        7.8 secs

     total energy              =    -501.50833364 Ry
     estimated scf accuracy    <       0.04838207 Ry

     iteration # 35     ecut=    30.00 Ry     beta= 0.50
     Davidson diagonalization with overlap
     c_bands:  1 eigenvalues not converged
     ethr =  6.32E-07,  avg # of iterations = 20.0

     total cpu time spent up to now is        8.0 secs

     total energy              =    -501.50635757 Ry
     estimated scf accuracy    <       0.03762280 Ry

     iteration # 36     ecut=    30.00 Ry     beta= 0.50
     Davidson diagonalization with overlap
     c_bands:  1 eigenvalues not converged
     ethr =  6.32E-07,  avg # of iterations = 20.0

     total cpu time spent up to now is        8.2 secs

     total energy              =    -501.50579045 Ry
     estimated scf accuracy    <       0.02120598 Ry

     iteration # 37     ecut=    30.00 Ry     beta= 0.50
     Davidson diagonalization with overlap
     ethr =  6.32E-07,  avg # of iterations = 11.0

     total cpu time spent up to now is        8.3 secs

     total energy              =    -501.50452176 Ry
     estimated scf accuracy    <       0.01700518 Ry

     iteration # 38     ecut=    30.00 Ry     beta= 0.50
     Davidson diagonalization with overlap
     ethr =  6.32E-07,  avg # of iterations =  3.0

     total cpu time spent up to now is        8.4 secs

     total energy              =    -501.50437929 Ry
     estimated scf accuracy    <       0.01071660 Ry

     iteration # 39     ecut=    30.00 Ry     beta= 0.50
     Davidson diagonalization with overlap
     ethr =  6.32E-07,  avg # of iterations =  1.0

     total cpu time spent up to now is        8.4 secs

     total energy              =    -501.50354033 Ry
     estimated scf accuracy    <       0.00925708 Ry

     iteration # 40     ecut=    30.00 Ry     beta= 0.50
     Davidson diagonalization with overlap
     ethr =  6.32E-07,  avg # of iterations =  7.0

     total cpu time spent up to now is        8.5 secs

     total energy              =    -501.50326900 Ry
     estimated scf accuracy    <       0.00506644 Ry

     iteration # 41     ecut=    30.00 Ry     beta= 0.50
     Davidson diagonalization with overlap
     c_bands:  1 eigenvalues not converged
     ethr =  6.32E-07,  avg # of iterations = 20.0

     total cpu time spent up to now is        8.7 secs

     total energy              =    -501.50562866 Ry
     estimated scf accuracy    <       0.01545366 Ry

     iteration # 42     ecut=    30.00 Ry     beta= 0.50
     Davidson diagonalization with overlap
     ethr =  6.32E-07,  avg # of iterations = 19.0

     total cpu time spent up to now is        8.8 secs

     total energy              =    -501.50730484 Ry
     estimated scf accuracy    <       0.01817524 Ry

     iteration # 43     ecut=    30.00 Ry     beta= 0.50
     Davidson diagonalization with overlap
     ethr =  6.32E-07,  avg # of iterations =  6.0

     total cpu time spent up to now is        8.9 secs

     total energy              =    -501.50659619 Ry
     estimated scf accuracy    <       0.02327490 Ry

     iteration # 44     ecut=    30.00 Ry     beta= 0.50
     Davidson diagonalization with overlap
     ethr =  6.32E-07,  avg # of iterations =  1.0

     total cpu time spent up to now is        9.0 secs

     total energy              =    -501.50574110 Ry
     estimated scf accuracy    <       0.02149108 Ry

     iteration # 45     ecut=    30.00 Ry     beta= 0.50
     Davidson diagonalization with overlap
     ethr =  6.32E-07,  avg # of iterations =  2.0

     total cpu time spent up to now is        9.1 secs

     total energy              =    -501.50567543 Ry
     estimated scf accuracy    <       0.01823449 Ry

     iteration # 46     ecut=    30.00 Ry     beta= 0.50
     Davidson diagonalization with overlap
     ethr =  6.32E-07,  avg # of iterations =  1.0

     total cpu time spent up to now is        9.1 secs

     total energy              =    -501.50529685 Ry
     estimated scf accuracy    <       0.01764592 Ry

     iteration # 47     ecut=    30.00 Ry     beta= 0.50
     Davidson diagonalization with overlap
     ethr =  6.32E-07,  avg # of iterations =  1.0

     total cpu time spent up to now is        9.2 secs

     total energy              =    -501.50523867 Ry
     estimated scf accuracy    <       0.01570706 Ry

     iteration # 48     ecut=    30.00 Ry     beta= 0.50
     Davidson diagonalization with overlap
     ethr =  6.32E-07,  avg # of iterations =  1.0

     total cpu time spent up to now is        9.3 secs

     total energy              =    -501.50531069 Ry
     estimated scf accuracy    <       0.01512929 Ry

     iteration # 49     ecut=    30.00 Ry     beta= 0.50
     Davidson diagonalization with overlap
     ethr =  6.32E-07,  avg # of iterations =  2.0

     total cpu time spent up to now is        9.3 secs

     total energy              =    -501.49971569 Ry
     estimated scf accuracy    <       0.01500855 Ry

     iteration # 50     ecut=    30.00 Ry     beta= 0.50
     Davidson diagonalization with overlap
     c_bands:  2 eigenvalues not converged
     ethr =  6.32E-07,  avg # of iterations = 20.0

     total cpu time spent up to now is        9.5 secs

     total energy              =    -501.50564916 Ry
     estimated scf accuracy    <       0.08623286 Ry

     iteration # 51     ecut=    30.00 Ry     beta= 0.50
     Davidson diagonalization with overlap
     c_bands:  1 eigenvalues not converged
     ethr =  6.32E-07,  avg # of iterations = 20.0

     total cpu time spent up to now is        9.7 secs

     total energy              =    -501.50667605 Ry
     estimated scf accuracy    <       0.04489348 Ry

     iteration # 52     ecut=    30.00 Ry     beta= 0.50
     Davidson diagonalization with overlap
     ethr =  6.32E-07,  avg # of iterations = 20.0

     total cpu time spent up to now is        9.9 secs

     total energy              =    -501.50453226 Ry
     estimated scf accuracy    <       0.02923054 Ry

     iteration # 53     ecut=    30.00 Ry     beta= 0.50
     Davidson diagonalization with overlap
     ethr =  6.32E-07,  avg # of iterations = 14.0

     total cpu time spent up to now is       10.0 secs

     total energy              =    -501.50375380 Ry
     estimated scf accuracy    <       0.01348082 Ry

     iteration # 54     ecut=    30.00 Ry     beta= 0.50
     Davidson diagonalization with overlap
     ethr =  6.32E-07,  avg # of iterations =  3.0

     total cpu time spent up to now is       10.1 secs

     total energy              =    -501.50379854 Ry
     estimated scf accuracy    <       0.00808078 Ry

     iteration # 55     ecut=    30.00 Ry     beta= 0.50
     Davidson diagonalization with overlap
     ethr =  6.32E-07,  avg # of iterations =  1.0

     total cpu time spent up to now is       10.2 secs

     total energy              =    -501.50370537 Ry
     estimated scf accuracy    <       0.00715776 Ry

     iteration # 56     ecut=    30.00 Ry     beta= 0.50
     Davidson diagonalization with overlap
     ethr =  6.32E-07,  avg # of iterations =  1.0

     total cpu time spent up to now is       10.2 secs

     total energy              =    -501.50337878 Ry
     estimated scf accuracy    <       0.00658482 Ry

     iteration # 57     ecut=    30.00 Ry     beta= 0.50
     Davidson diagonalization with overlap
     ethr =  6.32E-07,  avg # of iterations =  2.0

     total cpu time spent up to now is       10.3 secs

     total energy              =    -501.50294310 Ry
     estimated scf accuracy    <       0.00513036 Ry

     iteration # 58     ecut=    30.00 Ry     beta= 0.50
     Davidson diagonalization with overlap
     c_bands:  1 eigenvalues not converged
     ethr =  6.32E-07,  avg # of iterations = 20.0

     total cpu time spent up to now is       10.5 secs

     total energy              =    -501.50822123 Ry
     estimated scf accuracy    <       0.02021246 Ry

     iteration # 59     ecut=    30.00 Ry     beta= 0.50
     Davidson diagonalization with overlap
     c_bands:  1 eigenvalues not converged
     ethr =  6.32E-07,  avg # of iterations = 20.0

     total cpu time spent up to now is       10.6 secs

     total energy              =    -501.50736811 Ry
     estimated scf accuracy    <       0.03161603 Ry

     iteration # 60     ecut=    30.00 Ry     beta= 0.50
     Davidson diagonalization with overlap
     ethr =  6.32E-07,  avg # of iterations =  2.0

     total cpu time spent up to now is       10.7 secs

     total energy              =    -501.50680238 Ry
     estimated scf accuracy    <       0.02736955 Ry

     iteration # 61     ecut=    30.00 Ry     beta= 0.50
     Davidson diagonalization with overlap
     ethr =  6.32E-07,  avg # of iterations =  2.0

     total cpu time spent up to now is       10.8 secs

     total energy              =    -501.50651974 Ry
     estimated scf accuracy    <       0.02488883 Ry

     iteration # 62     ecut=    30.00 Ry     beta= 0.50
     Davidson diagonalization with overlap
     ethr =  6.32E-07,  avg # of iterations =  1.0

     total cpu time spent up to now is       10.8 secs

     total energy              =    -501.50509160 Ry
     estimated scf accuracy    <       0.02329534 Ry

     iteration # 63     ecut=    30.00 Ry     beta= 0.50
     Davidson diagonalization with overlap
     ethr =  6.32E-07,  avg # of iterations =  8.0

     total cpu time spent up to now is       10.9 secs

     total energy              =    -501.50503835 Ry
     estimated scf accuracy    <       0.01512952 Ry

     iteration # 64     ecut=    30.00 Ry     beta= 0.50
     Davidson diagonalization with overlap
     ethr =  6.32E-07,  avg # of iterations =  1.0

     total cpu time spent up to now is       11.0 secs

     total energy              =    -501.50487553 Ry
     estimated scf accuracy    <       0.01394124 Ry

     iteration # 65     ecut=    30.00 Ry     beta= 0.50
     Davidson diagonalization with overlap
     ethr =  6.32E-07,  avg # of iterations =  1.0

     total cpu time spent up to now is       11.1 secs

     total energy              =    -501.50489179 Ry
     estimated scf accuracy    <       0.01313544 Ry

     iteration # 66     ecut=    30.00 Ry     beta= 0.50
     Davidson diagonalization with overlap
     ethr =  6.32E-07,  avg # of iterations =  1.0

     total cpu time spent up to now is       11.1 secs

     total energy              =    -501.50038197 Ry
     estimated scf accuracy    <       0.01322089 Ry

     iteration # 67     ecut=    30.00 Ry     beta= 0.50
     Davidson diagonalization with overlap
     c_bands:  1 eigenvalues not converged
     ethr =  6.32E-07,  avg # of iterations = 20.0

     total cpu time spent up to now is       11.3 secs

     total energy              =    -501.50627028 Ry
     estimated scf accuracy    <       0.05068361 Ry

     iteration # 68     ecut=    30.00 Ry     beta= 0.50
     Davidson diagonalization with overlap
     c_bands:  1 eigenvalues not converged
     ethr =  6.32E-07,  avg # of iterations = 20.0

     total cpu time spent up to now is       11.5 secs

     total energy              =    -501.50402468 Ry
     estimated scf accuracy    <       0.05246384 Ry

     iteration # 69     ecut=    30.00 Ry     beta= 0.50
     Davidson diagonalization with overlap
     c_bands:  1 eigenvalues not converged
     ethr =  6.32E-07,  avg # of iterations = 20.0

     total cpu time spent up to now is       11.7 secs

     total energy              =    -501.50440195 Ry
     estimated scf accuracy    <       0.01587653 Ry

     iteration # 70     ecut=    30.00 Ry     beta= 0.50
     Davidson diagonalization with overlap
     ethr =  6.32E-07,  avg # of iterations =  3.0

     total cpu time spent up to now is       11.8 secs

     total energy              =    -501.50399934 Ry
     estimated scf accuracy    <       0.01169848 Ry

     iteration # 71     ecut=    30.00 Ry     beta= 0.50
     Davidson diagonalization with overlap
     ethr =  6.32E-07,  avg # of iterations =  1.0

     total cpu time spent up to now is       11.9 secs

     total energy              =    -501.50380009 Ry
     estimated scf accuracy    <       0.00931309 Ry

     iteration # 72     ecut=    30.00 Ry     beta= 0.50
     Davidson diagonalization with overlap
     ethr =  6.32E-07,  avg # of iterations =  6.0

     total cpu time spent up to now is       11.9 secs

     total energy              =    -501.50350799 Ry
     estimated scf accuracy    <       0.00758936 Ry

     iteration # 73     ecut=    30.00 Ry     beta= 0.50
     Davidson diagonalization with overlap
     ethr =  6.32E-07,  avg # of iterations =  1.0

     total cpu time spent up to now is       12.0 secs

     total energy              =    -501.50331795 Ry
     estimated scf accuracy    <       0.00611660 Ry

     iteration # 74     ecut=    30.00 Ry     beta= 0.50
     Davidson diagonalization with overlap
     ethr =  6.32E-07,  avg # of iterations =  2.0

     total cpu time spent up to now is       12.1 secs

     total energy              =    -501.50352103 Ry
     estimated scf accuracy    <       0.00507030 Ry

     iteration # 75     ecut=    30.00 Ry     beta= 0.50
     Davidson diagonalization with overlap
     ethr =  6.32E-07,  avg # of iterations =  1.0

     total cpu time spent up to now is       12.1 secs

     total energy              =    -501.50177543 Ry
     estimated scf accuracy    <       0.00541113 Ry

     iteration # 76     ecut=    30.00 Ry     beta= 0.50
     Davidson diagonalization with overlap
     c_bands:  1 eigenvalues not converged
     ethr =  6.32E-07,  avg # of iterations = 20.0

     total cpu time spent up to now is       12.3 secs

     total energy              =    -501.50693262 Ry
     estimated scf accuracy    <       0.04032859 Ry

     iteration # 77     ecut=    30.00 Ry     beta= 0.50
     Davidson diagonalization with overlap
     ethr =  6.32E-07,  avg # of iterations = 17.0

     total cpu time spent up to now is       12.5 secs

     total energy              =    -501.50553477 Ry
     estimated scf accuracy    <       0.02798523 Ry

     iteration # 78     ecut=    30.00 Ry     beta= 0.50
     Davidson diagonalization with overlap
     ethr =  6.32E-07,  avg # of iterations =  2.0

     total cpu time spent up to now is       12.6 secs

     total energy              =    -501.50519894 Ry
     estimated scf accuracy    <       0.02057629 Ry

     iteration # 79     ecut=    30.00 Ry     beta= 0.50
     Davidson diagonalization with overlap
     ethr =  6.32E-07,  avg # of iterations =  1.0

     total cpu time spent up to now is       12.6 secs

     total energy              =    -501.50515325 Ry
     estimated scf accuracy    <       0.01797763 Ry

     iteration # 80     ecut=    30.00 Ry     beta= 0.50
     Davidson diagonalization with overlap
     ethr =  6.32E-07,  avg # of iterations =  1.0

     total cpu time spent up to now is       12.7 secs

     total energy              =    -501.50628391 Ry
     estimated scf accuracy    <       0.01738769 Ry

     iteration # 81     ecut=    30.00 Ry     beta= 0.50
     Davidson diagonalization with overlap
     ethr =  6.32E-07,  avg # of iterations =  1.0

     total cpu time spent up to now is       12.8 secs

     total energy              =    -501.50573458 Ry
     estimated scf accuracy    <       0.02056690 Ry

     iteration # 82     ecut=    30.00 Ry     beta= 0.50
     Davidson diagonalization with overlap
     ethr =  6.32E-07,  avg # of iterations =  1.0

     total cpu time spent up to now is       12.8 secs

     total energy              =    -501.50545366 Ry
     estimated scf accuracy    <       0.01893793 Ry

     iteration # 83     ecut=    30.00 Ry     beta= 0.50
     Davidson diagonalization with overlap
     ethr =  6.32E-07,  avg # of iterations =  1.0

     total cpu time spent up to now is       12.9 secs

     total energy              =    -501.50485239 Ry
     estimated scf accuracy    <       0.01744177 Ry

     iteration # 84     ecut=    30.00 Ry     beta= 0.50
     Davidson diagonalization with overlap
     ethr =  6.32E-07,  avg # of iterations =  2.0

     total cpu time spent up to now is       13.0 secs

     total energy              =    -501.50006763 Ry
     estimated scf accuracy    <       0.01482555 Ry

     iteration # 85     ecut=    30.00 Ry     beta= 0.50
     Davidson diagonalization with overlap
     c_bands:  1 eigenvalues not converged
     ethr =  6.32E-07,  avg # of iterations = 20.0

     total cpu time spent up to now is       13.1 secs

     total energy              =    -501.50601060 Ry
     estimated scf accuracy    <       0.05604195 Ry

     iteration # 86     ecut=    30.00 Ry     beta= 0.50
     Davidson diagonalization with overlap
     c_bands:  1 eigenvalues not converged
     ethr =  6.32E-07,  avg # of iterations = 20.0

     total cpu time spent up to now is       13.3 secs

     total energy              =    -501.50579482 Ry
     estimated scf accuracy    <       0.02982058 Ry

     iteration # 87     ecut=    30.00 Ry     beta= 0.50
     Davidson diagonalization with overlap
     ethr =  6.32E-07,  avg # of iterations = 12.0

     total cpu time spent up to now is       13.4 secs

     total energy              =    -501.50533124 Ry
     estimated scf accuracy    <       0.02254422 Ry

     iteration # 88     ecut=    30.00 Ry     beta= 0.50
     Davidson diagonalization with overlap
     ethr =  6.32E-07,  avg # of iterations =  2.0

     total cpu time spent up to now is       13.5 secs

     total energy              =    -501.50446582 Ry
     estimated scf accuracy    <       0.01933017 Ry

     iteration # 89     ecut=    30.00 Ry     beta= 0.50
     Davidson diagonalization with overlap
     ethr =  6.32E-07,  avg # of iterations =  2.0

     total cpu time spent up to now is       13.6 secs

     total energy              =    -501.50392734 Ry
     estimated scf accuracy    <       0.01557729 Ry

     iteration # 90     ecut=    30.00 Ry     beta= 0.50
     Davidson diagonalization with overlap
     ethr =  6.32E-07,  avg # of iterations =  2.0

     total cpu time spent up to now is       13.6 secs

     total energy              =    -501.50357999 Ry
     estimated scf accuracy    <       0.01290128 Ry

     iteration # 91     ecut=    30.00 Ry     beta= 0.50
     Davidson diagonalization with overlap
     ethr =  6.32E-07,  avg # of iterations =  2.0

     total cpu time spent up to now is       13.7 secs

     total energy              =    -501.50306575 Ry
     estimated scf accuracy    <       0.01067797 Ry

     iteration # 92     ecut=    30.00 Ry     beta= 0.50
     Davidson diagonalization with overlap
     c_bands:  1 eigenvalues not converged
     ethr =  6.32E-07,  avg # of iterations = 20.0

     total cpu time spent up to now is       13.9 secs

     total energy              =    -501.50630656 Ry
     estimated scf accuracy    <       0.01651481 Ry

     iteration # 93     ecut=    30.00 Ry     beta= 0.50
     Davidson diagonalization with overlap
     c_bands:  1 eigenvalues not converged
     ethr =  6.32E-07,  avg # of iterations = 20.0

     total cpu time spent up to now is       14.0 secs

     total energy              =    -501.50887569 Ry
     estimated scf accuracy    <       0.02503934 Ry

     iteration # 94     ecut=    30.00 Ry     beta= 0.50
     Davidson diagonalization with overlap
     ethr =  6.32E-07,  avg # of iterations = 20.0

     total cpu time spent up to now is       14.2 secs

     total energy              =    -501.50594871 Ry
     estimated scf accuracy    <       0.03533628 Ry

     iteration # 95     ecut=    30.00 Ry     beta= 0.50
     Davidson diagonalization with overlap
     ethr =  6.32E-07,  avg # of iterations =  7.0

     total cpu time spent up to now is       14.3 secs

     total energy              =    -501.50554567 Ry
     estimated scf accuracy    <       0.02418321 Ry

     iteration # 96     ecut=    30.00 Ry     beta= 0.50
     Davidson diagonalization with overlap
     ethr =  6.32E-07,  avg # of iterations =  2.0

     total cpu time spent up to now is       14.4 secs

     total energy              =    -501.50461867 Ry
     estimated scf accuracy    <       0.02064743 Ry

     iteration # 97     ecut=    30.00 Ry     beta= 0.50
     Davidson diagonalization with overlap
     ethr =  6.32E-07,  avg # of iterations =  5.0

     total cpu time spent up to now is       14.5 secs

     total energy              =    -501.50435839 Ry
     estimated scf accuracy    <       0.01584882 Ry

     iteration # 98     ecut=    30.00 Ry     beta= 0.50
     Davidson diagonalization with overlap
     ethr =  6.32E-07,  avg # of iterations =  1.0

     total cpu time spent up to now is       14.5 secs

     total energy              =    -501.50549484 Ry
     estimated scf accuracy    <       0.01395515 Ry

     iteration # 99     ecut=    30.00 Ry     beta= 0.50
     Davidson diagonalization with overlap
     ethr =  6.32E-07,  avg # of iterations =  1.0

     total cpu time spent up to now is       14.6 secs

     total energy              =    -501.50559482 Ry
     estimated scf accuracy    <       0.01674188 Ry

     iteration #100     ecut=    30.00 Ry     beta= 0.50
     Davidson diagonalization with overlap
     ethr =  6.32E-07,  avg # of iterations =  1.0

     total cpu time spent up to now is       14.7 secs

     total energy              =    -501.49924606 Ry
     estimated scf accuracy    <       0.01717993 Ry

     End of self-consistent calculation

     convergence NOT achieved after 100 iterations: stopping

     Writing config to output data dir ./pwscf.save/
     Message from routine punch:
     wavefunctions written to file
 
     init_run     :      0.91s CPU      4.03s WALL (       1 calls)
     electrons    :     10.02s CPU     10.58s WALL (       1 calls)

     Called by init_run:
     wfcinit      :      0.42s CPU      3.38s WALL (       1 calls)
                                        3.38s GPU  (       1 calls)
     potinit      :      0.03s CPU      0.12s WALL (       1 calls)
     hinit0       :      0.44s CPU      0.47s WALL (       1 calls)

     Called by electrons:
     c_bands      :      6.91s CPU      7.19s WALL (     101 calls)
     sum_band     :      1.46s CPU      1.66s WALL (     101 calls)
     v_of_rho     :      0.56s CPU      0.66s WALL (     101 calls)
     mix_rho      :      0.89s CPU      0.91s WALL (     101 calls)

     Called by c_bands:
     init_us_2    :      0.25s CPU      0.27s WALL (     203 calls)
     init_us_2:gp :      0.24s CPU      0.27s WALL (     203 calls)
     regterg      :      6.17s CPU      6.41s WALL (     101 calls)

     Called by *egterg:
     rdiaghg      :      2.98s CPU      3.65s WALL (     904 calls)
                                        3.53s GPU  (     904 calls)
     h_psi        :      2.78s CPU      5.27s WALL (     906 calls)
                                        5.25s GPU  (     906 calls)
     g_psi        :      0.00s CPU      0.02s WALL (     804 calls)
                                        0.02s GPU  (     804 calls)

     Called by h_psi:
     h_psi:calbec :      0.66s CPU      3.00s WALL (     906 calls)
                                        3.00s GPU  (     906 calls)
     vloc_psi     :      1.58s CPU      1.72s WALL (     906 calls)
                                        1.70s GPU  (     906 calls)
     add_vuspsi   :      0.42s CPU      0.50s WALL (     906 calls)
                                        0.49s GPU  (     906 calls)

     General routines
     calbec       :      0.65s CPU      2.99s WALL (     906 calls)
     fft          :      0.89s CPU      1.05s WALL (     809 calls)
                                        0.17s GPU  (     505 calls)
     ffts         :      0.15s CPU      0.17s WALL (     101 calls)
     fftw         :      1.92s CPU      2.39s WALL (    9666 calls)
                                        2.07s GPU  (    9666 calls)
     davcio       :      0.00s CPU      0.00s WALL (      19 calls)
 
     Parallel routines
 
     PWSCF        :     10.98s CPU     14.70s WALL

 
   This run was terminated on:  15: 7:11   9May2023            

=------------------------------------------------------------------------------=
   JOB DONE.
=------------------------------------------------------------------------------=
