An instance of this daemon is already running

     Program PWSCF v.7.1 starts on  9May2023 at 15:17:35 

     This program is part of the open-source Quantum ESPRESSO suite
     for quantum simulation of materials; please cite
         "P. Giannozzi et al., J. Phys.:Condens. Matter 21 395502 (2009);
         "P. Giannozzi et al., J. Phys.:Condens. Matter 29 465901 (2017);
         "P. Giannozzi et al., J. Chem. Phys. 152 154105 (2020);
          URL http://www.quantum-espresso.org", 
     in publications or presentations arising from this work. More details at
     http://www.quantum-espresso.org/quote

     Parallel version (MPI & OpenMP), running on       4 processor cores
     Number of MPI processes:                 4
     Threads/MPI process:                     1

     MPI processes distributed on     1 nodes
     58102 MiB available memory on the printing compute node when the environment starts
 
     Reading input from pw-si-61.in
Warning: card &CELL ignored
Warning: card / ignored

     Current dimensions of program PWSCF are:
     Max number of different atomic species (ntypx) = 10
     Max number of k-points (npk) =  40000
     Max angular momentum in pseudopotentials (lmaxx) =  4

     IMPORTANT: XC functional enforced from input :
     Exchange-correlation= PBE
                           (   1   4   3   4   0   0   0)
     Any further DFT definition will be discarded
     Please, verify this is what you really want


     gamma-point specific algorithms are used
 
     K-points division:     npool     =       2
     R & G space division:  proc/nbgrp/npool/nimage =       2
     Subspace diagonalization in iterative solution of the eigenvalue problem:
     a serial algorithm will be used

     Message from routine divide_et_impera:
     suboptimal parallelization: some nodes have no k-points
 
     Parallelization info
     --------------------
     sticks:   dense  smooth     PW     G-vecs:    dense   smooth      PW
     Min        1933    1933    515                90495    90495   12286
     Max        1936    1936    518                90500    90500   12287
     Sum        3869    3869   1033               180995   180995   24573
 
     Using Slab Decomposition
 


     bravais-lattice index     =            0
     lattice parameter (alat)  =      20.1204  a.u.
     unit-cell volume          =    8145.3572 (a.u.)^3
     number of atoms/cell      =           64
     number of atomic types    =            1
     number of electrons       =       256.00
     number of Kohn-Sham states=          128
     kinetic-energy cutoff     =      30.0000  Ry
     charge density cutoff     =     120.0000  Ry
     scf convergence threshold =      1.0E-06
     mixing beta               =       0.5000
     number of iterations used =            8  plain     mixing
     Exchange-correlation= PBE
                           (   1   4   3   4   0   0   0)

     GPU acceleration is ACTIVE.
     GPU-aware MPI enabled

     Message from routine print_cuda_info:
     High GPU oversubscription detected. Are you sure this is what you want?

     celldm(1)=  20.120405  celldm(2)=   0.000000  celldm(3)=   0.000000
     celldm(4)=   0.000000  celldm(5)=   0.000000  celldm(6)=   0.000000

     crystal axes: (cart. coord. in units of alat)
               a(1) = (   1.000000   0.000000   0.000000 )  
               a(2) = (   0.000000   1.000000   0.000000 )  
               a(3) = (   0.000000   0.000000   1.000000 )  

     reciprocal axes: (cart. coord. in units 2 pi/alat)
               b(1) = (  1.000000  0.000000  0.000000 )  
               b(2) = (  0.000000  1.000000  0.000000 )  
               b(3) = (  0.000000  0.000000  1.000000 )  


     PseudoPot. # 1 for Si read from file:
     /home/ppiaggi/pseudos/Si_ONCV_PBE_sr.upf
     MD5 check sum: 8553c464762ac42b85b1eed164b4d029
     Pseudo is Norm-conserving, Zval =  4.0
     Generated using ONCVPSP code by D. R. Hamann
     Using radial grid of 1510 points,  4 beta functions with: 
                l(1) =   0
                l(2) =   0
                l(3) =   1
                l(4) =   1

     atomic species   valence    mass     pseudopotential
        Si             4.00    28.08500     Si( 1.00)

     No symmetry found



   Cartesian axes

     site n.     atom                  positions (alat units)
         1           Si  tau(   1) = (   0.2840800   0.2120580   0.1316630  )
         2           Si  tau(   2) = (   0.9805830   0.1328340   0.1677440  )
         3           Si  tau(   3) = (   0.5904150   0.1473100   0.6776720  )
         4           Si  tau(   4) = (   0.4491960   0.5249310   0.8023380  )
         5           Si  tau(   5) = (   0.9779630   0.4607770   0.8519970  )
         6           Si  tau(   6) = (   0.8801780   0.0382871   0.5211940  )
         7           Si  tau(   7) = (   0.9938440   0.2455250   0.6967370  )
         8           Si  tau(   8) = (   0.9194580   0.9596800   0.0045619  )
         9           Si  tau(   9) = (   0.7624520   0.3392220   0.2406470  )
        10           Si  tau(  10) = (   0.2615930   0.5126480   0.6567050  )
        11           Si  tau(  11) = (   0.7010660   0.9177660   0.5574460  )
        12           Si  tau(  12) = (   0.1832150   0.4821710   0.2632840  )
        13           Si  tau(  13) = (   0.4163700   0.4238260   0.1278990  )
        14           Si  tau(  14) = (   0.8178730   0.5523270   0.2649290  )
        15           Si  tau(  15) = (   0.3005200   0.7879370   0.3075440  )
        16           Si  tau(  16) = (   0.1941410   0.9545080   0.9197570  )
        17           Si  tau(  17) = (   0.7897470   0.5062320   0.7182610  )
        18           Si  tau(  18) = (   0.8685620   0.5887920   0.0103452  )
        19           Si  tau(  19) = (   0.0679774   0.1505180   0.9169660  )
        20           Si  tau(  20) = (   0.5587640   0.0459116   0.3962310  )
        21           Si  tau(  21) = (   0.0591362   0.3868050   0.4857150  )
        22           Si  tau(  22) = (   0.4125030   0.9700300   0.9233680  )
        23           Si  tau(  23) = (   0.7622620   0.3181970   0.5807600  )
        24           Si  tau(  24) = (   0.0106529   0.7408960   0.0914698  )
        25           Si  tau(  25) = (   0.1620730   0.0590548   0.4075300  )
        26           Si  tau(  26) = (   0.5787680   0.5430650   0.6078950  )
        27           Si  tau(  27) = (   0.8650700   0.2842220   0.0274814  )
        28           Si  tau(  28) = (   0.2492920   0.5427510   0.9493710  )
        29           Si  tau(  29) = (   0.5411860   0.2747480   0.4770530  )
        30           Si  tau(  30) = (   0.5208930   0.7204290   0.8647880  )
        31           Si  tau(  31) = (   0.1016830   0.0645221   0.6023010  )
        32           Si  tau(  32) = (   0.0270698   0.6413510   0.3184180  )
        33           Si  tau(  33) = (   0.1265580   0.3669600   0.0510066  )
        34           Si  tau(  34) = (   0.2207670   0.9088810   0.6969620  )
        35           Si  tau(  35) = (   0.0155036   0.5798910   0.6011530  )
        36           Si  tau(  36) = (   0.3312860   0.1630440   0.6334260  )
        37           Si  tau(  37) = (   0.8402350   0.0787558   0.7589860  )
        38           Si  tau(  38) = (   0.6823930   0.8923710   0.2724370  )
        39           Si  tau(  39) = (   0.1221410   0.6983850   0.8171150  )
        40           Si  tau(  40) = (   0.2662380   0.2943010   0.3806680  )
        41           Si  tau(  41) = (   0.7165720   0.1317780   0.9259900  )
        42           Si  tau(  42) = (   0.3792030   0.9606090   0.4518550  )
        43           Si  tau(  43) = (   0.5125660   0.7564790   0.6144070  )
        44           Si  tau(  44) = (   0.7999760   0.7323020   0.6129600  )
        45           Si  tau(  45) = (   0.5639350   0.5743680   0.0955959  )
        46           Si  tau(  46) = (   0.8796670   0.2430720   0.4143380  )
        47           Si  tau(  47) = (   0.4597550   0.9615130   0.7023900  )
        48           Si  tau(  48) = (   0.4644640   0.2798450   0.8203120  )
        49           Si  tau(  49) = (   0.4653670   0.1609950   0.0128404  )
        50           Si  tau(  50) = (   0.1716270   0.9805030   0.1718180  )
        51           Si  tau(  51) = (   0.2523700   0.7488490   0.0511163  )
        52           Si  tau(  52) = (   0.5506090   0.2908740   0.2498120  )
        53           Si  tau(  53) = (   0.4742630   0.8139100   0.1217040  )
        54           Si  tau(  54) = (   0.6272800   0.6416190   0.3575730  )
        55           Si  tau(  55) = (   0.9197030   0.8984990   0.2730190  )
        56           Si  tau(  56) = (   0.8845540   0.8471880   0.7770240  )
        57           Si  tau(  57) = (   0.6729890   0.4363670   0.9261900  )
        58           Si  tau(  58) = (   0.0349071   0.7869830   0.5095230  )
        59           Si  tau(  59) = (   0.6733090   0.9394900   0.0589983  )
        60           Si  tau(  60) = (   0.7277000   0.7400910   0.9176520  )
        61           Si  tau(  61) = (   0.2226970   0.2878610   0.7860440  )
        62           Si  tau(  62) = (   0.3958190   0.4376830   0.4917700  )
        63           Si  tau(  63) = (   0.2913100   0.7144370   0.5709290  )
        64           Si  tau(  64) = (   0.3978820   0.5816820   0.3222110  )

     number of k points=     1
                       cart. coord. in units 2pi/alat
        k(    1) = (   0.0000000   0.0000000   0.0000000), wk =   2.0000000

     Dense  grid:    90498 G-vectors     FFT dimensions: (  72,  72,  72)

     Estimated max dynamical RAM per process >     133.20 MB

     Estimated total dynamical RAM >     510.69 MB

     Initial potential from superposition of free atoms

     starting charge     255.9608, renormalised to     256.0000
     Starting wfcs are  256 randomized atomic wfcs

     total cpu time spent up to now is        4.3 secs

     Self-consistent Calculation

     iteration #  1     ecut=    30.00 Ry     beta= 0.50
     Davidson diagonalization with overlap
     ethr =  1.00E-02,  avg # of iterations =  2.0

     Threshold (ethr) on eigenvalues was too large:
     Diagonalizing with lowered threshold

     Davidson diagonalization with overlap
     ethr =  3.96E-04,  avg # of iterations =  6.0

     total cpu time spent up to now is        4.4 secs

     total energy              =    -500.98523881 Ry
     estimated scf accuracy    <       1.31215762 Ry

     iteration #  2     ecut=    30.00 Ry     beta= 0.50
     Davidson diagonalization with overlap
     ethr =  5.13E-04,  avg # of iterations = 13.0

     total cpu time spent up to now is        4.6 secs

     total energy              =    -500.37551807 Ry
     estimated scf accuracy    <       7.71594717 Ry

     iteration #  3     ecut=    30.00 Ry     beta= 0.50
     Davidson diagonalization with overlap
     ethr =  5.13E-04,  avg # of iterations = 12.0

     total cpu time spent up to now is        4.7 secs

     total energy              =    -501.09423220 Ry
     estimated scf accuracy    <       2.15337334 Ry

     iteration #  4     ecut=    30.00 Ry     beta= 0.50
     Davidson diagonalization with overlap
     ethr =  5.13E-04,  avg # of iterations =  8.0

     total cpu time spent up to now is        4.8 secs

     total energy              =    -501.22427127 Ry
     estimated scf accuracy    <       0.54065762 Ry

     iteration #  5     ecut=    30.00 Ry     beta= 0.50
     Davidson diagonalization with overlap
     ethr =  2.11E-04,  avg # of iterations = 13.0

     total cpu time spent up to now is        5.0 secs

     total energy              =    -501.26607512 Ry
     estimated scf accuracy    <       0.43638614 Ry

     iteration #  6     ecut=    30.00 Ry     beta= 0.50
     Davidson diagonalization with overlap
     ethr =  1.70E-04,  avg # of iterations =  7.0

     total cpu time spent up to now is        5.1 secs

     total energy              =    -501.30391379 Ry
     estimated scf accuracy    <       0.04216058 Ry

     iteration #  7     ecut=    30.00 Ry     beta= 0.50
     Davidson diagonalization with overlap
     ethr =  1.65E-05,  avg # of iterations = 18.0

     total cpu time spent up to now is        5.2 secs

     total energy              =    -501.31424710 Ry
     estimated scf accuracy    <       0.07825721 Ry

     iteration #  8     ecut=    30.00 Ry     beta= 0.50
     Davidson diagonalization with overlap
     ethr =  1.65E-05,  avg # of iterations = 11.0

     total cpu time spent up to now is        5.4 secs

     total energy              =    -501.31526868 Ry
     estimated scf accuracy    <       0.03080601 Ry

     iteration #  9     ecut=    30.00 Ry     beta= 0.50
     Davidson diagonalization with overlap
     ethr =  1.20E-05,  avg # of iterations =  3.0

     total cpu time spent up to now is        5.4 secs

     total energy              =    -501.31526567 Ry
     estimated scf accuracy    <       0.00807648 Ry

     iteration # 10     ecut=    30.00 Ry     beta= 0.50
     Davidson diagonalization with overlap
     c_bands:  1 eigenvalues not converged
     ethr =  3.15E-06,  avg # of iterations = 20.0

     total cpu time spent up to now is        5.6 secs

     total energy              =    -501.31849089 Ry
     estimated scf accuracy    <       0.02506886 Ry

     iteration # 11     ecut=    30.00 Ry     beta= 0.50
     Davidson diagonalization with overlap
     ethr =  3.15E-06,  avg # of iterations = 11.0

     total cpu time spent up to now is        5.7 secs

     total energy              =    -501.31771266 Ry
     estimated scf accuracy    <       0.01539865 Ry

     iteration # 12     ecut=    30.00 Ry     beta= 0.50
     Davidson diagonalization with overlap
     ethr =  3.15E-06,  avg # of iterations =  3.0

     total cpu time spent up to now is        5.8 secs

     total energy              =    -501.31758318 Ry
     estimated scf accuracy    <       0.00762573 Ry

     iteration # 13     ecut=    30.00 Ry     beta= 0.50
     Davidson diagonalization with overlap
     ethr =  2.98E-06,  avg # of iterations =  7.0

     total cpu time spent up to now is        5.9 secs

     total energy              =    -501.31768268 Ry
     estimated scf accuracy    <       0.00258623 Ry

     iteration # 14     ecut=    30.00 Ry     beta= 0.50
     Davidson diagonalization with overlap
     c_bands:  1 eigenvalues not converged
     ethr =  1.01E-06,  avg # of iterations = 20.0

     total cpu time spent up to now is        6.1 secs

     total energy              =    -501.31815130 Ry
     estimated scf accuracy    <       0.00227287 Ry

     iteration # 15     ecut=    30.00 Ry     beta= 0.50
     Davidson diagonalization with overlap
     ethr =  8.88E-07,  avg # of iterations = 13.0

     total cpu time spent up to now is        6.2 secs

     total energy              =    -501.31821302 Ry
     estimated scf accuracy    <       0.00135730 Ry

     iteration # 16     ecut=    30.00 Ry     beta= 0.50
     Davidson diagonalization with overlap
     ethr =  5.30E-07,  avg # of iterations =  3.0

     total cpu time spent up to now is        6.3 secs

     total energy              =    -501.31819370 Ry
     estimated scf accuracy    <       0.00126759 Ry

     iteration # 17     ecut=    30.00 Ry     beta= 0.50
     Davidson diagonalization with overlap
     ethr =  4.95E-07,  avg # of iterations =  2.0

     total cpu time spent up to now is        6.3 secs

     total energy              =    -501.31813626 Ry
     estimated scf accuracy    <       0.00097201 Ry

     iteration # 18     ecut=    30.00 Ry     beta= 0.50
     Davidson diagonalization with overlap
     c_bands:  1 eigenvalues not converged
     ethr =  3.80E-07,  avg # of iterations = 20.0

     total cpu time spent up to now is        6.5 secs

     total energy              =    -501.31822833 Ry
     estimated scf accuracy    <       0.00036523 Ry

     iteration # 19     ecut=    30.00 Ry     beta= 0.50
     Davidson diagonalization with overlap
     ethr =  1.43E-07,  avg # of iterations = 14.0

     total cpu time spent up to now is        6.6 secs

     total energy              =    -501.31825117 Ry
     estimated scf accuracy    <       0.00022490 Ry

     iteration # 20     ecut=    30.00 Ry     beta= 0.50
     Davidson diagonalization with overlap
     ethr =  8.79E-08,  avg # of iterations =  7.0

     total cpu time spent up to now is        6.7 secs

     total energy              =    -501.31824584 Ry
     estimated scf accuracy    <       0.00017501 Ry

     iteration # 21     ecut=    30.00 Ry     beta= 0.50
     Davidson diagonalization with overlap
     ethr =  6.84E-08,  avg # of iterations =  2.0

     total cpu time spent up to now is        6.8 secs

     total energy              =    -501.31823392 Ry
     estimated scf accuracy    <       0.00011531 Ry

     iteration # 22     ecut=    30.00 Ry     beta= 0.50
     Davidson diagonalization with overlap
     c_bands:  1 eigenvalues not converged
     ethr =  4.50E-08,  avg # of iterations = 20.0

     total cpu time spent up to now is        6.9 secs

     total energy              =    -501.31824274 Ry
     estimated scf accuracy    <       0.00005353 Ry

     iteration # 23     ecut=    30.00 Ry     beta= 0.50
     Davidson diagonalization with overlap
     c_bands:  2 eigenvalues not converged
     ethr =  2.09E-08,  avg # of iterations = 20.0

     total cpu time spent up to now is        7.1 secs

     total energy              =    -501.31824642 Ry
     estimated scf accuracy    <       0.00001500 Ry

     iteration # 24     ecut=    30.00 Ry     beta= 0.50
     Davidson diagonalization with overlap
     ethr =  5.86E-09,  avg # of iterations = 12.0

     total cpu time spent up to now is        7.2 secs

     total energy              =    -501.31824800 Ry
     estimated scf accuracy    <       0.00002359 Ry

     iteration # 25     ecut=    30.00 Ry     beta= 0.50
     Davidson diagonalization with overlap
     ethr =  5.86E-09,  avg # of iterations =  6.0

     total cpu time spent up to now is        7.3 secs

     total energy              =    -501.31824887 Ry
     estimated scf accuracy    <       0.00000652 Ry

     iteration # 26     ecut=    30.00 Ry     beta= 0.50
     Davidson diagonalization with overlap
     ethr =  2.55E-09,  avg # of iterations =  8.0

     total cpu time spent up to now is        7.4 secs

     total energy              =    -501.31824909 Ry
     estimated scf accuracy    <       0.00000260 Ry

     iteration # 27     ecut=    30.00 Ry     beta= 0.50
     Davidson diagonalization with overlap
     c_bands:  1 eigenvalues not converged
     ethr =  1.02E-09,  avg # of iterations = 20.0

     total cpu time spent up to now is        7.6 secs

     total energy              =    -501.31824939 Ry
     estimated scf accuracy    <       0.00000183 Ry

     iteration # 28     ecut=    30.00 Ry     beta= 0.50
     Davidson diagonalization with overlap
     ethr =  7.14E-10,  avg # of iterations = 16.0

     total cpu time spent up to now is        7.7 secs

     total energy              =    -501.31824949 Ry
     estimated scf accuracy    <       0.00000102 Ry

     iteration # 29     ecut=    30.00 Ry     beta= 0.50
     Davidson diagonalization with overlap
     c_bands:  1 eigenvalues not converged
     ethr =  3.99E-10,  avg # of iterations = 20.0

     total cpu time spent up to now is        7.9 secs

     End of self-consistent calculation

          k = 0.0000 0.0000 0.0000 ( 11324 PWs)   bands (ev):

    -5.3928  -4.4922  -4.3469  -4.1936  -4.1689  -4.0260  -3.8743  -3.3924
    -3.3199  -3.2536  -3.1221  -3.0578  -2.9426  -2.8833  -2.8610  -2.7422
    -2.6998  -2.5621  -2.5332  -2.1404  -1.9928  -1.8836  -1.8666  -1.7925
    -1.6492  -1.4433  -1.3686  -0.8718  -0.7844  -0.6202  -0.4922  -0.3809
    -0.2258  -0.1300  -0.0090   0.0481   0.0652   0.1480   0.2500   0.3664
     0.4225   0.4759   0.5197   0.5654   0.5906   0.6623   0.7501   0.8298
     0.9930   1.0950   1.2218   1.2595   1.3379   1.5346   1.5584   1.6461
     1.7340   1.7933   1.9503   2.0314   2.2195   2.2950   2.3250   2.3804
     2.4504   2.6295   2.6882   2.7439   2.8456   2.8842   2.9587   3.0941
     3.1333   3.2514   3.3149   3.3904   3.5541   3.5688   3.5878   3.7137
     3.8158   4.0809   4.2701   4.3075   4.4369   4.5427   4.5944   4.6703
     4.7223   4.8284   4.8688   4.9483   5.0073   5.1254   5.1943   5.2730
     5.3393   5.3665   5.4067   5.4478   5.5687   5.5884   5.6397   5.6972
     5.7799   5.8474   5.8870   5.9072   5.9178   5.9975   6.0452   6.0827
     6.1753   6.2641   6.3236   6.3491   6.4226   6.5275   6.5482   6.6053
     6.7102   6.7432   6.7590   6.8252   6.9075   7.0303   7.0628   7.0830

     highest occupied level (ev):     7.0830

!    total energy              =    -501.31824880 Ry
     estimated scf accuracy    <       0.00000086 Ry

     The total energy is the sum of the following terms:
     one-electron contribution =     185.83230234 Ry
     hartree contribution      =      25.23314479 Ry
     xc contribution           =    -150.79193568 Ry
     ewald contribution        =    -561.59176025 Ry

     convergence has been achieved in  29 iterations

     Forces acting on atoms (cartesian axes, Ry/au):

     atom    1 type  1   force =    -0.01934977    0.00194154    0.02259134
     atom    2 type  1   force =     0.01993239   -0.05058819   -0.01025339
     atom    3 type  1   force =     0.02016579    0.01638708    0.00183105
     atom    4 type  1   force =    -0.03549693   -0.04315313    0.00893218
     atom    5 type  1   force =    -0.00092234   -0.01445658    0.00315262
     atom    6 type  1   force =     0.04203508    0.01402547   -0.00959758
     atom    7 type  1   force =     0.03581837    0.02228098    0.01815768
     atom    8 type  1   force =     0.00865947   -0.00549075    0.01416258
     atom    9 type  1   force =     0.03228604   -0.00793204   -0.01483144
     atom   10 type  1   force =    -0.00980625   -0.04221427    0.02287443
     atom   11 type  1   force =    -0.04519964    0.02371433   -0.01206747
     atom   12 type  1   force =    -0.00638571   -0.03633293   -0.00727423
     atom   13 type  1   force =    -0.04863663   -0.00296067    0.02768705
     atom   14 type  1   force =    -0.02280889   -0.00437100   -0.03622817
     atom   15 type  1   force =     0.01855238    0.00893547    0.00046503
     atom   16 type  1   force =    -0.00425293   -0.03164820   -0.00478304
     atom   17 type  1   force =    -0.01781747   -0.00277976   -0.00777207
     atom   18 type  1   force =    -0.02423364   -0.00147082    0.02937448
     atom   19 type  1   force =    -0.01405792   -0.00034427    0.00090841
     atom   20 type  1   force =     0.07132186    0.00610791   -0.01546970
     atom   21 type  1   force =    -0.00359258   -0.02137058    0.00257248
     atom   22 type  1   force =     0.02575614   -0.02345833    0.01292795
     atom   23 type  1   force =    -0.04334020    0.01038437    0.04057946
     atom   24 type  1   force =     0.03386249    0.03913116    0.02532375
     atom   25 type  1   force =     0.07671813    0.03528541   -0.08188740
     atom   26 type  1   force =     0.02263767   -0.00813129   -0.01192427
     atom   27 type  1   force =    -0.00977114    0.01461879    0.01047455
     atom   28 type  1   force =     0.00800356   -0.00350082   -0.00645514
     atom   29 type  1   force =     0.03075287   -0.03317318    0.02033503
     atom   30 type  1   force =    -0.02901516    0.03277558   -0.01341448
     atom   31 type  1   force =    -0.05571398    0.00848546    0.05137600
     atom   32 type  1   force =    -0.01014092    0.01040841    0.00020329
     atom   33 type  1   force =    -0.00043917    0.01682175    0.00226956
     atom   34 type  1   force =     0.00738896   -0.02756592    0.03643296
     atom   35 type  1   force =     0.00126522   -0.00750249    0.02147718
     atom   36 type  1   force =     0.00291595   -0.02315402   -0.02308530
     atom   37 type  1   force =     0.02741810   -0.02339221   -0.03729824
     atom   38 type  1   force =    -0.02391588   -0.01527231    0.03264366
     atom   39 type  1   force =    -0.00927125    0.01086545   -0.01235705
     atom   40 type  1   force =    -0.04938375   -0.02728904   -0.02166152
     atom   41 type  1   force =    -0.02821174    0.00052694    0.02897712
     atom   42 type  1   force =    -0.06512358   -0.03969987    0.02382726
     atom   43 type  1   force =    -0.01101746    0.04341426    0.01395439
     atom   44 type  1   force =     0.03577095   -0.04672398   -0.01898707
     atom   45 type  1   force =     0.03972640    0.03603086    0.00490485
     atom   46 type  1   force =     0.01499425    0.00257108   -0.02590627
     atom   47 type  1   force =    -0.02013649   -0.00703301   -0.02711493
     atom   48 type  1   force =    -0.00886879    0.01722446    0.01331388
     atom   49 type  1   force =     0.01091955    0.02683506    0.01233319
     atom   50 type  1   force =    -0.03121776    0.01410485    0.01173353
     atom   51 type  1   force =    -0.04360226    0.01554760   -0.00237549
     atom   52 type  1   force =    -0.00578564   -0.00979537   -0.01398821
     atom   53 type  1   force =    -0.00467594   -0.03050835   -0.00881348
     atom   54 type  1   force =     0.01322195    0.03205657   -0.00050293
     atom   55 type  1   force =     0.02956347    0.00982153   -0.01044464
     atom   56 type  1   force =     0.01543278   -0.00269171    0.04501270
     atom   57 type  1   force =     0.01256245    0.01143253   -0.00499527
     atom   58 type  1   force =    -0.00564255   -0.02670914   -0.03223257
     atom   59 type  1   force =     0.02408101   -0.00916504   -0.04014466
     atom   60 type  1   force =     0.03936798    0.03752721    0.00590226
     atom   61 type  1   force =    -0.01810354    0.02520856   -0.01984651
     atom   62 type  1   force =    -0.00852649    0.02303771    0.01534321
     atom   63 type  1   force =     0.00223130    0.04613900   -0.03089086
     atom   64 type  1   force =     0.01110184    0.01623191   -0.01945175

     Total force =     0.353158     Total SCF correction =     0.001729


     Computing stress (Cartesian axis) and pressure

          total   stress  (Ry/bohr**3)                   (kbar)     P=      -31.45
  -0.00013604  -0.00004232  -0.00002607          -20.01       -6.23       -3.83
  -0.00004232  -0.00026029  -0.00000497           -6.23      -38.29       -0.73
  -0.00002607  -0.00000497  -0.00024513           -3.83       -0.73      -36.06

 
     init_run     :      0.93s CPU      4.20s WALL (       1 calls)
     electrons    :      3.38s CPU      3.63s WALL (       1 calls)
     forces       :      0.03s CPU      0.03s WALL (       1 calls)
     stress       :      0.12s CPU      0.12s WALL (       1 calls)

     Called by init_run:
     wfcinit      :      0.43s CPU      3.53s WALL (       1 calls)
                                        3.53s GPU  (       1 calls)
     potinit      :      0.03s CPU      0.12s WALL (       1 calls)
     hinit0       :      0.45s CPU      0.48s WALL (       1 calls)

     Called by electrons:
     c_bands      :      2.46s CPU      2.61s WALL (      30 calls)
     sum_band     :      0.45s CPU      0.52s WALL (      30 calls)
     v_of_rho     :      0.19s CPU      0.29s WALL (      30 calls)
     mix_rho      :      0.23s CPU      0.25s WALL (      30 calls)

     Called by c_bands:
     init_us_2    :      0.07s CPU      0.08s WALL (      61 calls)
     init_us_2:gp :      0.07s CPU      0.08s WALL (      61 calls)
     regterg      :      2.25s CPU      2.38s WALL (      30 calls)

     Called by *egterg:
     rdiaghg      :      1.18s CPU      1.84s WALL (     366 calls)
                                        1.79s GPU  (     366 calls)
     h_psi        :      1.17s CPU      3.72s WALL (     368 calls)
                                        3.71s GPU  (     368 calls)
     g_psi        :      0.00s CPU      0.01s WALL (     337 calls)
                                        0.01s GPU  (     337 calls)

     Called by h_psi:
     h_psi:calbec :      0.46s CPU      2.92s WALL (     368 calls)
                                        2.92s GPU  (     368 calls)
     vloc_psi     :      0.49s CPU      0.58s WALL (     368 calls)
                                        0.57s GPU  (     368 calls)
     add_vuspsi   :      0.17s CPU      0.20s WALL (     368 calls)
                                        0.20s GPU  (     368 calls)

     General routines
     calbec       :      0.46s CPU      2.92s WALL (     373 calls)
     fft          :      0.60s CPU      0.72s WALL (     247 calls)
                                        0.12s GPU  (     156 calls)
     ffts         :      0.05s CPU      0.06s WALL (      30 calls)
     fftw         :      0.58s CPU      0.77s WALL (    3086 calls)
                                        0.67s GPU  (    3086 calls)
 
     Parallel routines
 
     PWSCF        :      4.50s CPU      8.06s WALL

 
   This run was terminated on:  15:17:43   9May2023            

=------------------------------------------------------------------------------=
   JOB DONE.
=------------------------------------------------------------------------------=
