An instance of this daemon is already running

     Program PWSCF v.7.1 starts on  9May2023 at 15: 4:23 

     This program is part of the open-source Quantum ESPRESSO suite
     for quantum simulation of materials; please cite
         "P. Giannozzi et al., J. Phys.:Condens. Matter 21 395502 (2009);
         "P. Giannozzi et al., J. Phys.:Condens. Matter 29 465901 (2017);
         "P. Giannozzi et al., J. Chem. Phys. 152 154105 (2020);
          URL http://www.quantum-espresso.org", 
     in publications or presentations arising from this work. More details at
     http://www.quantum-espresso.org/quote

     Parallel version (MPI & OpenMP), running on       4 processor cores
     Number of MPI processes:                 4
     Threads/MPI process:                     1

     MPI processes distributed on     1 nodes
     81091 MiB available memory on the printing compute node when the environment starts
 
     Reading input from pw-si-1.in
Warning: card &CELL ignored
Warning: card / ignored

     Current dimensions of program PWSCF are:
     Max number of different atomic species (ntypx) = 10
     Max number of k-points (npk) =  40000
     Max angular momentum in pseudopotentials (lmaxx) =  4

     IMPORTANT: XC functional enforced from input :
     Exchange-correlation= PBE
                           (   1   4   3   4   0   0   0)
     Any further DFT definition will be discarded
     Please, verify this is what you really want


     gamma-point specific algorithms are used
 
     K-points division:     npool     =       2
     R & G space division:  proc/nbgrp/npool/nimage =       2
     Subspace diagonalization in iterative solution of the eigenvalue problem:
     a serial algorithm will be used

     Message from routine divide_et_impera:
     suboptimal parallelization: some nodes have no k-points
 
     Parallelization info
     --------------------
     sticks:   dense  smooth     PW     G-vecs:    dense   smooth      PW
     Min        1984    1984    519                93503    93503   12703
     Max        1985    1985    522                93504    93504   12710
     Sum        3969    3969   1041               187007   187007   25413
 
     Using Slab Decomposition
 


     bravais-lattice index     =            0
     lattice parameter (alat)  =      20.3445  a.u.
     unit-cell volume          =    8420.5210 (a.u.)^3
     number of atoms/cell      =           64
     number of atomic types    =            1
     number of electrons       =       256.00
     number of Kohn-Sham states=          128
     kinetic-energy cutoff     =      30.0000  Ry
     charge density cutoff     =     120.0000  Ry
     scf convergence threshold =      1.0E-06
     mixing beta               =       0.5000
     number of iterations used =            8  plain     mixing
     Exchange-correlation= PBE
                           (   1   4   3   4   0   0   0)

     GPU acceleration is ACTIVE.
     GPU-aware MPI enabled

     Message from routine print_cuda_info:
     High GPU oversubscription detected. Are you sure this is what you want?

     celldm(1)=  20.344467  celldm(2)=   0.000000  celldm(3)=   0.000000
     celldm(4)=   0.000000  celldm(5)=   0.000000  celldm(6)=   0.000000

     crystal axes: (cart. coord. in units of alat)
               a(1) = (   1.000000   0.000000   0.000000 )  
               a(2) = (   0.000000   1.000000   0.000000 )  
               a(3) = (   0.000000   0.000000   1.000000 )  

     reciprocal axes: (cart. coord. in units 2 pi/alat)
               b(1) = (  1.000000  0.000000  0.000000 )  
               b(2) = (  0.000000  1.000000  0.000000 )  
               b(3) = (  0.000000  0.000000  1.000000 )  


     PseudoPot. # 1 for Si read from file:
     /home/ppiaggi/pseudos/Si_ONCV_PBE_sr.upf
     MD5 check sum: 8553c464762ac42b85b1eed164b4d029
     Pseudo is Norm-conserving, Zval =  4.0
     Generated using ONCVPSP code by D. R. Hamann
     Using radial grid of 1510 points,  4 beta functions with: 
                l(1) =   0
                l(2) =   0
                l(3) =   1
                l(4) =   1

     atomic species   valence    mass     pseudopotential
        Si             4.00    28.08500     Si( 1.00)

     No symmetry found



   Cartesian axes

     site n.     atom                  positions (alat units)
         1           Si  tau(   1) = (   0.2878320   0.9607680   0.5300580  )
         2           Si  tau(   2) = (   0.2122730   0.5632940   0.3222040  )
         3           Si  tau(   3) = (   0.1479370   0.4060690   0.8196310  )
         4           Si  tau(   4) = (   0.8696220   0.9512450   0.0703781  )
         5           Si  tau(   5) = (   0.7886480   0.5168490   0.3509320  )
         6           Si  tau(   6) = (   0.4783830   0.0626400   0.6680950  )
         7           Si  tau(   7) = (   0.7171420   0.9672620   0.7314800  )
         8           Si  tau(   8) = (   0.1721200   0.9553960   0.2590160  )
         9           Si  tau(   9) = (   0.7228640   0.3241790   0.2434740  )
        10           Si  tau(  10) = (   0.9773290   0.7559060   0.1442780  )
        11           Si  tau(  11) = (   0.3425320   0.7510150   0.9116590  )
        12           Si  tau(  12) = (   0.6665840   0.5955790   0.0518869  )
        13           Si  tau(  13) = (   0.3282530   0.2140040   0.1112560  )
        14           Si  tau(  14) = (   0.5178150   0.4378230   0.1511630  )
        15           Si  tau(  15) = (   0.5481050   0.0685204   0.4243350  )
        16           Si  tau(  16) = (   0.0319474   0.0662954   0.4228590  )
        17           Si  tau(  17) = (   0.8241770   0.1909100   0.7426390  )
        18           Si  tau(  18) = (   0.5729970   0.0789260   0.1912190  )
        19           Si  tau(  19) = (   0.8869820   0.9516540   0.5741130  )
        20           Si  tau(  20) = (   0.9897390   0.2653160   0.3691330  )
        21           Si  tau(  21) = (   0.5951310   0.7745640   0.6333960  )
        22           Si  tau(  22) = (   0.3367310   0.0931147   0.3221510  )
        23           Si  tau(  23) = (   0.8384660   0.8189350   0.8691890  )
        24           Si  tau(  24) = (   0.5396300   0.6990070   0.3058710  )
        25           Si  tau(  25) = (   0.3030200   0.7187020   0.4874630  )
        26           Si  tau(  26) = (   0.0450337   0.3304580   0.1378590  )
        27           Si  tau(  27) = (   0.4904420   0.2556610   0.9885900  )
        28           Si  tau(  28) = (   0.4180630   0.2724550   0.6050900  )
        29           Si  tau(  29) = (   0.9163550   0.4560750   0.5205440  )
        30           Si  tau(  30) = (   0.0775441   0.6210160   0.8384690  )
        31           Si  tau(  31) = (   0.4986410   0.8581190   0.4467340  )
        32           Si  tau(  32) = (   0.2361130   0.4435160   0.0699487  )
        33           Si  tau(  33) = (   0.7589230   0.1910840   0.9635250  )
        34           Si  tau(  34) = (   0.0129808   0.8075430   0.3546420  )
        35           Si  tau(  35) = (   0.1413140   0.4640250   0.5945900  )
        36           Si  tau(  36) = (   0.6451730   0.9413810   0.0309848  )
        37           Si  tau(  37) = (   0.2406050   0.2650100   0.4487070  )
        38           Si  tau(  38) = (   0.5103580   0.0386911   0.8884200  )
        39           Si  tau(  39) = (   0.5319990   0.4909220   0.4131910  )
        40           Si  tau(  40) = (   0.3054030   0.7570250   0.2125800  )
        41           Si  tau(  41) = (   0.8390920   0.7098470   0.5323070  )
        42           Si  tau(  42) = (   0.3633810   0.4105240   0.3215670  )
        43           Si  tau(  43) = (   0.7677580   0.9449420   0.3759140  )
        44           Si  tau(  44) = (   0.7538500   0.7303290   0.2505900  )
        45           Si  tau(  45) = (   0.2112630   0.0472617   0.0583416  )
        46           Si  tau(  46) = (   0.4711480   0.6376700   0.7783090  )
        47           Si  tau(  47) = (   0.0674102   0.1939210   0.8028900  )
        48           Si  tau(  48) = (   0.1869890   0.6613610   0.0259117  )
        49           Si  tau(  49) = (   0.0208260   0.8344330   0.7288110  )
        50           Si  tau(  50) = (   0.8854180   0.6069240   0.9730290  )
        51           Si  tau(  51) = (   0.0934869   0.6950530   0.5680100  )
        52           Si  tau(  52) = (   0.5161640   0.7771660   0.0445014  )
        53           Si  tau(  53) = (   0.7791720   0.6179190   0.7489000  )
        54           Si  tau(  54) = (   0.7339730   0.3736670   0.6627640  )
        55           Si  tau(  55) = (   0.1749720   0.0102139   0.7305280  )
        56           Si  tau(  56) = (   0.8216420   0.1196430   0.2292320  )
        57           Si  tau(  57) = (   0.6095400   0.4777290   0.8644960  )
        58           Si  tau(  58) = (   0.0113318   0.5372600   0.2465850  )
        59           Si  tau(  59) = (   0.6308840   0.3006600   0.4641760  )
        60           Si  tau(  60) = (   0.3915490   0.5337130   0.5964570  )
        61           Si  tau(  61) = (   0.3905580   0.3650170   0.8241590  )
        62           Si  tau(  62) = (   0.3154250   0.9570600   0.8868260  )
        63           Si  tau(  63) = (   0.8641930   0.3897500   0.0792582  )
        64           Si  tau(  64) = (   0.0069947   0.1458980   0.0025758  )

     number of k points=     1
                       cart. coord. in units 2pi/alat
        k(    1) = (   0.0000000   0.0000000   0.0000000), wk =   2.0000000

     Dense  grid:    93504 G-vectors     FFT dimensions: (  72,  72,  72)

     Estimated max dynamical RAM per process >     137.18 MB

     Estimated total dynamical RAM >     525.89 MB

     Initial potential from superposition of free atoms

     starting charge     255.9608, renormalised to     256.0000
     Starting wfcs are  256 randomized atomic wfcs

     total cpu time spent up to now is        4.1 secs

     Self-consistent Calculation

     iteration #  1     ecut=    30.00 Ry     beta= 0.50
     Davidson diagonalization with overlap
     ethr =  1.00E-02,  avg # of iterations =  2.0

     Threshold (ethr) on eigenvalues was too large:
     Diagonalizing with lowered threshold

     Davidson diagonalization with overlap
     ethr =  4.45E-04,  avg # of iterations =  4.0

     total cpu time spent up to now is        4.2 secs

     total energy              =    -501.29512550 Ry
     estimated scf accuracy    <       1.39322805 Ry

     iteration #  2     ecut=    30.00 Ry     beta= 0.50
     Davidson diagonalization with overlap
     ethr =  5.44E-04,  avg # of iterations = 13.0

     total cpu time spent up to now is        4.4 secs

     total energy              =    -500.82796655 Ry
     estimated scf accuracy    <       5.35341812 Ry

     iteration #  3     ecut=    30.00 Ry     beta= 0.50
     Davidson diagonalization with overlap
     ethr =  5.44E-04,  avg # of iterations = 11.0

     total cpu time spent up to now is        4.5 secs

     total energy              =    -501.39627753 Ry
     estimated scf accuracy    <       1.74021141 Ry

     iteration #  4     ecut=    30.00 Ry     beta= 0.50
     Davidson diagonalization with overlap
     ethr =  5.44E-04,  avg # of iterations =  6.0

     total cpu time spent up to now is        4.6 secs

     total energy              =    -501.54515791 Ry
     estimated scf accuracy    <       0.34029720 Ry

     iteration #  5     ecut=    30.00 Ry     beta= 0.50
     Davidson diagonalization with overlap
     ethr =  1.33E-04,  avg # of iterations =  8.0

     total cpu time spent up to now is        4.7 secs

     total energy              =    -501.57290729 Ry
     estimated scf accuracy    <       0.17831173 Ry

     iteration #  6     ecut=    30.00 Ry     beta= 0.50
     Davidson diagonalization with overlap
     ethr =  6.97E-05,  avg # of iterations = 11.0

     total cpu time spent up to now is        4.8 secs

     total energy              =    -501.59679060 Ry
     estimated scf accuracy    <       0.05352557 Ry

     iteration #  7     ecut=    30.00 Ry     beta= 0.50
     Davidson diagonalization with overlap
     ethr =  2.09E-05,  avg # of iterations =  7.0

     total cpu time spent up to now is        4.9 secs

     total energy              =    -501.60055636 Ry
     estimated scf accuracy    <       0.01234883 Ry

     iteration #  8     ecut=    30.00 Ry     beta= 0.50
     Davidson diagonalization with overlap
     ethr =  4.82E-06,  avg # of iterations =  9.0

     total cpu time spent up to now is        5.0 secs

     total energy              =    -501.60180163 Ry
     estimated scf accuracy    <       0.01125046 Ry

     iteration #  9     ecut=    30.00 Ry     beta= 0.50
     Davidson diagonalization with overlap
     ethr =  4.39E-06,  avg # of iterations =  6.0

     total cpu time spent up to now is        5.1 secs

     total energy              =    -501.60301828 Ry
     estimated scf accuracy    <       0.00156172 Ry

     iteration # 10     ecut=    30.00 Ry     beta= 0.50
     Davidson diagonalization with overlap
     ethr =  6.10E-07,  avg # of iterations =  8.0

     total cpu time spent up to now is        5.2 secs

     total energy              =    -501.60315260 Ry
     estimated scf accuracy    <       0.00176015 Ry

     iteration # 11     ecut=    30.00 Ry     beta= 0.50
     Davidson diagonalization with overlap
     ethr =  6.10E-07,  avg # of iterations =  3.0

     total cpu time spent up to now is        5.3 secs

     total energy              =    -501.60324190 Ry
     estimated scf accuracy    <       0.00081818 Ry

     iteration # 12     ecut=    30.00 Ry     beta= 0.50
     Davidson diagonalization with overlap
     ethr =  3.20E-07,  avg # of iterations =  3.0

     total cpu time spent up to now is        5.4 secs

     total energy              =    -501.60329597 Ry
     estimated scf accuracy    <       0.00021750 Ry

     iteration # 13     ecut=    30.00 Ry     beta= 0.50
     Davidson diagonalization with overlap
     ethr =  8.50E-08,  avg # of iterations =  8.0

     total cpu time spent up to now is        5.5 secs

     total energy              =    -501.60331498 Ry
     estimated scf accuracy    <       0.00021727 Ry

     iteration # 14     ecut=    30.00 Ry     beta= 0.50
     Davidson diagonalization with overlap
     ethr =  8.49E-08,  avg # of iterations =  2.0

     total cpu time spent up to now is        5.6 secs

     total energy              =    -501.60331619 Ry
     estimated scf accuracy    <       0.00007072 Ry

     iteration # 15     ecut=    30.00 Ry     beta= 0.50
     Davidson diagonalization with overlap
     ethr =  2.76E-08,  avg # of iterations = 10.0

     total cpu time spent up to now is        5.7 secs

     total energy              =    -501.60332701 Ry
     estimated scf accuracy    <       0.00001626 Ry

     iteration # 16     ecut=    30.00 Ry     beta= 0.50
     Davidson diagonalization with overlap
     ethr =  6.35E-09,  avg # of iterations =  9.0

     total cpu time spent up to now is        5.8 secs

     total energy              =    -501.60332702 Ry
     estimated scf accuracy    <       0.00003446 Ry

     iteration # 17     ecut=    30.00 Ry     beta= 0.50
     Davidson diagonalization with overlap
     ethr =  6.35E-09,  avg # of iterations =  8.0

     total cpu time spent up to now is        5.9 secs

     total energy              =    -501.60332763 Ry
     estimated scf accuracy    <       0.00000900 Ry

     iteration # 18     ecut=    30.00 Ry     beta= 0.50
     Davidson diagonalization with overlap
     ethr =  3.51E-09,  avg # of iterations =  7.0

     total cpu time spent up to now is        6.0 secs

     total energy              =    -501.60332843 Ry
     estimated scf accuracy    <       0.00000101 Ry

     iteration # 19     ecut=    30.00 Ry     beta= 0.50
     Davidson diagonalization with overlap
     ethr =  3.96E-10,  avg # of iterations = 13.0

     total cpu time spent up to now is        6.1 secs

     total energy              =    -501.60332876 Ry
     estimated scf accuracy    <       0.00000255 Ry

     iteration # 20     ecut=    30.00 Ry     beta= 0.50
     Davidson diagonalization with overlap
     ethr =  3.96E-10,  avg # of iterations =  3.0

     total cpu time spent up to now is        6.2 secs

     total energy              =    -501.60332876 Ry
     estimated scf accuracy    <       0.00000126 Ry

     iteration # 21     ecut=    30.00 Ry     beta= 0.50
     Davidson diagonalization with overlap
     ethr =  3.96E-10,  avg # of iterations =  7.0

     total cpu time spent up to now is        6.3 secs

     End of self-consistent calculation

          k = 0.0000 0.0000 0.0000 ( 11720 PWs)   bands (ev):

    -5.6034  -4.7224  -4.6290  -4.5267  -4.4477  -4.3422  -4.0965  -3.7354
    -3.7147  -3.6077  -3.4184  -3.3990  -3.3617  -3.2312  -3.2064  -3.1240
    -2.9994  -2.8618  -2.7639  -2.4667  -2.3113  -2.1503  -2.0112  -1.8832
    -1.8439  -1.8405  -1.6804  -1.3869  -1.2618  -1.1786  -1.0913  -0.9369
    -0.7171  -0.5645  -0.4098  -0.3459  -0.2856  -0.2113  -0.0823  -0.0554
     0.0073   0.0551   0.1505   0.2279   0.2479   0.3012   0.4563   0.6914
     0.7814   0.8711   0.8910   0.9663   1.0487   1.1728   1.2314   1.3259
     1.4988   1.5143   1.5642   1.6968   1.7889   1.8383   1.9216   2.1096
     2.2065   2.3264   2.4379   2.4728   2.5256   2.5706   2.7001   2.7773
     2.7987   2.9008   2.9423   3.1146   3.1343   3.2333   3.3028   3.4293
     3.5810   3.6504   3.8442   3.9531   4.0375   4.0849   4.2653   4.3190
     4.3487   4.4534   4.5016   4.5119   4.5878   4.6593   4.7402   4.7645
     4.8232   4.8873   4.9860   5.0383   5.0819   5.1326   5.1737   5.2574
     5.2808   5.3148   5.4066   5.4309   5.4910   5.5750   5.6227   5.6910
     5.7684   5.8074   5.8501   5.9227   5.9910   6.0915   6.1013   6.1720
     6.2189   6.2299   6.3307   6.4453   6.4919   6.5327   6.6257   6.6828

     highest occupied level (ev):     6.6828

!    total energy              =    -501.60332832 Ry
     estimated scf accuracy    <       0.00000051 Ry

     The total energy is the sum of the following terms:
     one-electron contribution =     167.98570294 Ry
     hartree contribution      =      30.55837299 Ry
     xc contribution           =    -150.64633546 Ry
     ewald contribution        =    -549.50106880 Ry

     convergence has been achieved in  21 iterations

     Forces acting on atoms (cartesian axes, Ry/au):

     atom    1 type  1   force =     0.01662085   -0.00177359    0.02197855
     atom    2 type  1   force =     0.02123919    0.06179068   -0.00374942
     atom    3 type  1   force =     0.03577359   -0.01074316   -0.01586106
     atom    4 type  1   force =     0.01249319    0.01891889   -0.02422275
     atom    5 type  1   force =     0.03589376    0.03581578   -0.01825391
     atom    6 type  1   force =    -0.00529495    0.00576842   -0.02520698
     atom    7 type  1   force =    -0.01421661   -0.01625376   -0.00940638
     atom    8 type  1   force =     0.02311407   -0.04118220    0.00149974
     atom    9 type  1   force =    -0.04537700    0.00594744    0.00784833
     atom   10 type  1   force =     0.00304061   -0.02817477   -0.00532930
     atom   11 type  1   force =     0.01280252   -0.01897212    0.00626105
     atom   12 type  1   force =    -0.02979211    0.00309132    0.00884147
     atom   13 type  1   force =     0.00865046    0.01620243    0.06902324
     atom   14 type  1   force =     0.04506241   -0.02965247   -0.00582865
     atom   15 type  1   force =    -0.01325006    0.01302715   -0.03126983
     atom   16 type  1   force =    -0.00122873   -0.05148727    0.02163950
     atom   17 type  1   force =     0.02686843   -0.02447241    0.02904079
     atom   18 type  1   force =     0.00915479    0.03673563    0.02182711
     atom   19 type  1   force =    -0.00497044   -0.01247585   -0.01568032
     atom   20 type  1   force =     0.00314193    0.04048334   -0.03288000
     atom   21 type  1   force =     0.04454330    0.01934342    0.03203740
     atom   22 type  1   force =     0.01087873    0.03469700    0.01790005
     atom   23 type  1   force =    -0.00155045    0.03310372   -0.01399995
     atom   24 type  1   force =    -0.00691479   -0.00836849   -0.02470221
     atom   25 type  1   force =    -0.00417923    0.01358720   -0.01873896
     atom   26 type  1   force =     0.09046721   -0.03387667    0.05638812
     atom   27 type  1   force =     0.04215614    0.00245163   -0.00912962
     atom   28 type  1   force =    -0.00334543    0.00253151    0.02169958
     atom   29 type  1   force =    -0.00280614   -0.01590350    0.02052163
     atom   30 type  1   force =    -0.03524967   -0.01388148    0.00809081
     atom   31 type  1   force =    -0.01793203   -0.02215343    0.02146506
     atom   32 type  1   force =    -0.01351423   -0.02187620   -0.00470587
     atom   33 type  1   force =     0.00634214    0.00536095    0.01093581
     atom   34 type  1   force =    -0.00350983    0.01633895    0.01765093
     atom   35 type  1   force =     0.01127013    0.02351166    0.01042895
     atom   36 type  1   force =     0.04198985    0.01758419    0.00435091
     atom   37 type  1   force =     0.01812251   -0.01844469    0.00749825
     atom   38 type  1   force =     0.03269480    0.05505574   -0.03057252
     atom   39 type  1   force =     0.00316876    0.04720343    0.03300480
     atom   40 type  1   force =     0.00943785   -0.01050098    0.02473653
     atom   41 type  1   force =     0.00185410   -0.00857381    0.01360849
     atom   42 type  1   force =    -0.04095080   -0.02640315   -0.03304789
     atom   43 type  1   force =     0.02064060    0.00528686   -0.00620091
     atom   44 type  1   force =    -0.01173260   -0.01591304    0.00805749
     atom   45 type  1   force =    -0.06096502   -0.01227137   -0.00997785
     atom   46 type  1   force =     0.02682791   -0.01939820   -0.04735257
     atom   47 type  1   force =    -0.04271678    0.00904385   -0.01816788
     atom   48 type  1   force =    -0.02935245   -0.00702184    0.04002559
     atom   49 type  1   force =     0.00081634    0.01495731   -0.01250052
     atom   50 type  1   force =     0.00086993   -0.02259888   -0.00146079
     atom   51 type  1   force =     0.00041937   -0.01203377   -0.02573096
     atom   52 type  1   force =     0.00033928   -0.05163228    0.03822842
     atom   53 type  1   force =    -0.00670233    0.01850076   -0.00497546
     atom   54 type  1   force =     0.00554194   -0.00114924   -0.03838257
     atom   55 type  1   force =    -0.02293027   -0.02919235   -0.01516204
     atom   56 type  1   force =    -0.00155042   -0.02999876    0.01352909
     atom   57 type  1   force =    -0.00313769    0.01953098   -0.02522125
     atom   58 type  1   force =    -0.03683814    0.02007850   -0.01613411
     atom   59 type  1   force =    -0.00967840   -0.00064597    0.03485588
     atom   60 type  1   force =    -0.00478031   -0.00248462   -0.01001360
     atom   61 type  1   force =    -0.02101766    0.00220792   -0.04177473
     atom   62 type  1   force =    -0.03439311    0.00844416    0.00510667
     atom   63 type  1   force =    -0.09788623    0.03939576   -0.04734910
     atom   64 type  1   force =     0.00552722   -0.02648625    0.01490970

     Total force =     0.357843     Total SCF correction =     0.001440


     Computing stress (Cartesian axis) and pressure

          total   stress  (Ry/bohr**3)                   (kbar)     P=      -32.88
  -0.00020537  -0.00000833   0.00005845          -30.21       -1.23        8.60
  -0.00000833  -0.00025193  -0.00004529           -1.23      -37.06       -6.66
   0.00005845  -0.00004529  -0.00021329            8.60       -6.66      -31.38

 
     init_run     :      0.94s CPU      4.00s WALL (       1 calls)
     electrons    :      2.12s CPU      2.25s WALL (       1 calls)
     forces       :      0.03s CPU      0.03s WALL (       1 calls)
     stress       :      0.13s CPU      0.13s WALL (       1 calls)

     Called by init_run:
     wfcinit      :      0.44s CPU      3.36s WALL (       1 calls)
                                        3.36s GPU  (       1 calls)
     potinit      :      0.04s CPU      0.12s WALL (       1 calls)
     hinit0       :      0.45s CPU      0.47s WALL (       1 calls)

     Called by electrons:
     c_bands      :      1.49s CPU      1.55s WALL (      22 calls)
     sum_band     :      0.31s CPU      0.35s WALL (      22 calls)
     v_of_rho     :      0.14s CPU      0.22s WALL (      22 calls)
     mix_rho      :      0.16s CPU      0.17s WALL (      22 calls)

     Called by c_bands:
     init_us_2    :      0.05s CPU      0.06s WALL (      45 calls)
     init_us_2:gp :      0.05s CPU      0.06s WALL (      45 calls)
     regterg      :      1.32s CPU      1.37s WALL (      22 calls)

     Called by *egterg:
     rdiaghg      :      0.64s CPU      1.24s WALL (     179 calls)
                                        1.21s GPU  (     179 calls)
     h_psi        :      0.91s CPU      3.27s WALL (     181 calls)
                                        3.26s GPU  (     181 calls)
     g_psi        :      0.00s CPU      0.00s WALL (     158 calls)
                                        0.00s GPU  (     158 calls)

     Called by h_psi:
     h_psi:calbec :      0.43s CPU      2.73s WALL (     181 calls)
                                        2.73s GPU  (     181 calls)
     vloc_psi     :      0.38s CPU      0.44s WALL (     181 calls)
                                        0.44s GPU  (     181 calls)
     add_vuspsi   :      0.07s CPU      0.09s WALL (     181 calls)
                                        0.09s GPU  (     181 calls)

     General routines
     calbec       :      0.43s CPU      2.73s WALL (     186 calls)
     fft          :      0.56s CPU      0.66s WALL (     183 calls)
                                        0.11s GPU  (     116 calls)
     ffts         :      0.03s CPU      0.04s WALL (      22 calls)
     fftw         :      0.45s CPU      0.59s WALL (    2112 calls)
                                        0.51s GPU  (    2112 calls)
 
     Parallel routines
 
     PWSCF        :      3.26s CPU      6.48s WALL

 
   This run was terminated on:  15: 4:29   9May2023            

=------------------------------------------------------------------------------=
   JOB DONE.
=------------------------------------------------------------------------------=
