An instance of this daemon is already running
An instance of this daemon is already running

     Program PWSCF v.7.1 starts on  9May2023 at 15:22:47 

     This program is part of the open-source Quantum ESPRESSO suite
     for quantum simulation of materials; please cite
         "P. Giannozzi et al., J. Phys.:Condens. Matter 21 395502 (2009);
         "P. Giannozzi et al., J. Phys.:Condens. Matter 29 465901 (2017);
         "P. Giannozzi et al., J. Chem. Phys. 152 154105 (2020);
          URL http://www.quantum-espresso.org", 
     in publications or presentations arising from this work. More details at
     http://www.quantum-espresso.org/quote

     Parallel version (MPI & OpenMP), running on       4 processor cores
     Number of MPI processes:                 4
     Threads/MPI process:                     1

     MPI processes distributed on     1 nodes
     48031 MiB available memory on the printing compute node when the environment starts
 
     Reading input from pw-si-86.in
Warning: card &CELL ignored
Warning: card / ignored

     Current dimensions of program PWSCF are:
     Max number of different atomic species (ntypx) = 10
     Max number of k-points (npk) =  40000
     Max angular momentum in pseudopotentials (lmaxx) =  4

     IMPORTANT: XC functional enforced from input :
     Exchange-correlation= PBE
                           (   1   4   3   4   0   0   0)
     Any further DFT definition will be discarded
     Please, verify this is what you really want


     gamma-point specific algorithms are used
 
     K-points division:     npool     =       2
     R & G space division:  proc/nbgrp/npool/nimage =       2
     Subspace diagonalization in iterative solution of the eigenvalue problem:
     a serial algorithm will be used

     Message from routine divide_et_impera:
     suboptimal parallelization: some nodes have no k-points
 
     Parallelization info
     --------------------
     sticks:   dense  smooth     PW     G-vecs:    dense   smooth      PW
     Min        1941    1941    516                91047    91047   12416
     Max        1944    1944    517                91052    91052   12421
     Sum        3885    3885   1033               182099   182099   24837
 
     Using Slab Decomposition
 


     bravais-lattice index     =            0
     lattice parameter (alat)  =      20.1728  a.u.
     unit-cell volume          =    8209.1923 (a.u.)^3
     number of atoms/cell      =           64
     number of atomic types    =            1
     number of electrons       =       256.00
     number of Kohn-Sham states=          128
     kinetic-energy cutoff     =      30.0000  Ry
     charge density cutoff     =     120.0000  Ry
     scf convergence threshold =      1.0E-06
     mixing beta               =       0.5000
     number of iterations used =            8  plain     mixing
     Exchange-correlation= PBE
                           (   1   4   3   4   0   0   0)

     GPU acceleration is ACTIVE.
     GPU-aware MPI enabled

     Message from routine print_cuda_info:
     High GPU oversubscription detected. Are you sure this is what you want?

     celldm(1)=  20.172829  celldm(2)=   0.000000  celldm(3)=   0.000000
     celldm(4)=   0.000000  celldm(5)=   0.000000  celldm(6)=   0.000000

     crystal axes: (cart. coord. in units of alat)
               a(1) = (   1.000000   0.000000   0.000000 )  
               a(2) = (   0.000000   1.000000   0.000000 )  
               a(3) = (   0.000000   0.000000   1.000000 )  

     reciprocal axes: (cart. coord. in units 2 pi/alat)
               b(1) = (  1.000000  0.000000  0.000000 )  
               b(2) = (  0.000000  1.000000  0.000000 )  
               b(3) = (  0.000000  0.000000  1.000000 )  


     PseudoPot. # 1 for Si read from file:
     /home/ppiaggi/pseudos/Si_ONCV_PBE_sr.upf
     MD5 check sum: 8553c464762ac42b85b1eed164b4d029
     Pseudo is Norm-conserving, Zval =  4.0
     Generated using ONCVPSP code by D. R. Hamann
     Using radial grid of 1510 points,  4 beta functions with: 
                l(1) =   0
                l(2) =   0
                l(3) =   1
                l(4) =   1

     atomic species   valence    mass     pseudopotential
        Si             4.00    28.08500     Si( 1.00)

     No symmetry found



   Cartesian axes

     site n.     atom                  positions (alat units)
         1           Si  tau(   1) = (   0.4106770   0.7664520   0.4620280  )
         2           Si  tau(   2) = (   0.8882660   0.9041330   0.6547860  )
         3           Si  tau(   3) = (   0.1959850   0.6617840   0.3610250  )
         4           Si  tau(   4) = (   0.1248470   0.8996850   0.5990250  )
         5           Si  tau(   5) = (   0.4239390   0.5476440   0.7537090  )
         6           Si  tau(   6) = (   0.3554200   0.3797690   0.3707950  )
         7           Si  tau(   7) = (   0.8974500   0.6198300   0.5575080  )
         8           Si  tau(   8) = (   0.6358630   0.6203030   0.6941090  )
         9           Si  tau(   9) = (   0.9936040   0.1171390   0.9345920  )
        10           Si  tau(  10) = (   0.8286520   0.4519050   0.9945460  )
        11           Si  tau(  11) = (   0.0112115   0.3897130   0.1336940  )
        12           Si  tau(  12) = (   0.4117400   0.9234880   0.6562990  )
        13           Si  tau(  13) = (   0.3203230   0.8374850   0.2348230  )
        14           Si  tau(  14) = (   0.6698550   0.8066750   0.5734150  )
        15           Si  tau(  15) = (   0.7650570   0.7220300   0.3555800  )
        16           Si  tau(  16) = (   0.1697060   0.0220777   0.7934890  )
        17           Si  tau(  17) = (   0.6243440   0.5234950   0.0480770  )
        18           Si  tau(  18) = (   0.1075060   0.7648750   0.9460200  )
        19           Si  tau(  19) = (   0.8572840   0.1209190   0.5919760  )
        20           Si  tau(  20) = (   0.6671040   0.9336170   0.2857640  )
        21           Si  tau(  21) = (   0.1486800   0.4462040   0.3053800  )
        22           Si  tau(  22) = (   0.9704840   0.8240500   0.4263010  )
        23           Si  tau(  23) = (   0.0296789   0.2793590   0.4823230  )
        24           Si  tau(  24) = (   0.3845300   0.0477735   0.3686700  )
        25           Si  tau(  25) = (   0.4660030   0.9514530   0.0030555  )
        26           Si  tau(  26) = (   0.0656247   0.4943890   0.5631110  )
        27           Si  tau(  27) = (   0.2974490   0.7403520   0.8082700  )
        28           Si  tau(  28) = (   0.8185080   0.9224220   0.0467756  )
        29           Si  tau(  29) = (   0.0466018   0.0652677   0.2426860  )
        30           Si  tau(  30) = (   0.0406949   0.2476710   0.7413370  )
        31           Si  tau(  31) = (   0.6671740   0.0527363   0.7522300  )
        32           Si  tau(  32) = (   0.6942200   0.7116090   0.9194870  )
        33           Si  tau(  33) = (   0.9056310   0.5891860   0.8046940  )
        34           Si  tau(  34) = (   0.8340700   0.3598420   0.7351710  )
        35           Si  tau(  35) = (   0.2855210   0.5067150   0.0985382  )
        36           Si  tau(  36) = (   0.5226550   0.3878960   0.9420550  )
        37           Si  tau(  37) = (   0.6866110   0.2477170   0.8488390  )
        38           Si  tau(  38) = (   0.0899070   0.8177130   0.1820950  )
        39           Si  tau(  39) = (   0.5678860   0.0114658   0.4742870  )
        40           Si  tau(  40) = (   0.7954150   0.1929310   0.0485461  )
        41           Si  tau(  41) = (   0.3906960   0.1339210   0.8481800  )
        42           Si  tau(  42) = (   0.1223150   0.2031720   0.0556148  )
        43           Si  tau(  43) = (   0.4766800   0.2851250   0.6944710  )
        44           Si  tau(  44) = (   0.6447780   0.3595390   0.3364610  )
        45           Si  tau(  45) = (   0.6088080   0.5887750   0.2744930  )
        46           Si  tau(  46) = (   0.2040810   0.4290480   0.7482660  )
        47           Si  tau(  47) = (   0.5468250   0.8605010   0.8351400  )
        48           Si  tau(  48) = (   0.8748400   0.2679480   0.2976910  )
        49           Si  tau(  49) = (   0.3435750   0.2950850   0.0247703  )
        50           Si  tau(  50) = (   0.4625140   0.5485920   0.4828200  )
        51           Si  tau(  51) = (   0.9140120   0.8303890   0.8611560  )
        52           Si  tau(  52) = (   0.8729580   0.6970750   0.1379460  )
        53           Si  tau(  53) = (   0.7446370   0.4579470   0.5716230  )
        54           Si  tau(  54) = (   0.2131940   0.6773930   0.6132470  )
        55           Si  tau(  55) = (   0.4572950   0.2381020   0.2102130  )
        56           Si  tau(  56) = (   0.4249110   0.6473560   0.0056897  )
        57           Si  tau(  57) = (   0.2924840   0.2709980   0.5498010  )
        58           Si  tau(  58) = (   0.6364230   0.2395620   0.5333320  )
        59           Si  tau(  59) = (   0.5228240   0.7777320   0.1724890  )
        60           Si  tau(  60) = (   0.1779450   0.0869477   0.4580920  )
        61           Si  tau(  61) = (   0.6154210   0.1083740   0.1523510  )
        62           Si  tau(  62) = (   0.1037610   0.5276070   0.9459970  )
        63           Si  tau(  63) = (   0.2521490   0.0039757   0.0384915  )
        64           Si  tau(  64) = (   0.8529220   0.0139810   0.3744460  )

     number of k points=     1
                       cart. coord. in units 2pi/alat
        k(    1) = (   0.0000000   0.0000000   0.0000000), wk =   2.0000000

     Dense  grid:    91050 G-vectors     FFT dimensions: (  72,  72,  72)

     Estimated max dynamical RAM per process >     134.08 MB

     Estimated total dynamical RAM >     514.11 MB

     Initial potential from superposition of free atoms

     starting charge     255.9608, renormalised to     256.0000
     Starting wfcs are  256 randomized atomic wfcs

     total cpu time spent up to now is        4.1 secs

     Self-consistent Calculation

     iteration #  1     ecut=    30.00 Ry     beta= 0.50
     Davidson diagonalization with overlap
     ethr =  1.00E-02,  avg # of iterations =  2.0

     Threshold (ethr) on eigenvalues was too large:
     Diagonalizing with lowered threshold

     Davidson diagonalization with overlap
     ethr =  3.72E-04,  avg # of iterations =  6.0

     total cpu time spent up to now is        4.3 secs

     total energy              =    -501.31738190 Ry
     estimated scf accuracy    <       1.18884270 Ry

     iteration #  2     ecut=    30.00 Ry     beta= 0.50
     Davidson diagonalization with overlap
     ethr =  4.64E-04,  avg # of iterations = 10.0

     total cpu time spent up to now is        4.4 secs

     total energy              =    -501.10558999 Ry
     estimated scf accuracy    <       2.43497255 Ry

     iteration #  3     ecut=    30.00 Ry     beta= 0.50
     Davidson diagonalization with overlap
     ethr =  4.64E-04,  avg # of iterations = 19.0

     total cpu time spent up to now is        4.6 secs

     total energy              =    -501.31586477 Ry
     estimated scf accuracy    <       2.21505598 Ry

     iteration #  4     ecut=    30.00 Ry     beta= 0.50
     Davidson diagonalization with overlap
     ethr =  4.64E-04,  avg # of iterations = 10.0

     total cpu time spent up to now is        4.7 secs

     total energy              =    -501.48383226 Ry
     estimated scf accuracy    <       0.34592203 Ry

     iteration #  5     ecut=    30.00 Ry     beta= 0.50
     Davidson diagonalization with overlap
     ethr =  1.35E-04,  avg # of iterations = 19.0

     total cpu time spent up to now is        4.9 secs

     total energy              =    -501.51995710 Ry
     estimated scf accuracy    <       0.22556277 Ry

     iteration #  6     ecut=    30.00 Ry     beta= 0.50
     Davidson diagonalization with overlap
     ethr =  8.81E-05,  avg # of iterations =  9.0

     total cpu time spent up to now is        5.0 secs

     total energy              =    -501.53701021 Ry
     estimated scf accuracy    <       0.07435167 Ry

     iteration #  7     ecut=    30.00 Ry     beta= 0.50
     Davidson diagonalization with overlap
     ethr =  2.90E-05,  avg # of iterations =  6.0

     total cpu time spent up to now is        5.1 secs

     total energy              =    -501.54071598 Ry
     estimated scf accuracy    <       0.02070746 Ry

     iteration #  8     ecut=    30.00 Ry     beta= 0.50
     Davidson diagonalization with overlap
     ethr =  8.09E-06,  avg # of iterations = 20.0

     total cpu time spent up to now is        5.2 secs

     total energy              =    -501.54874584 Ry
     estimated scf accuracy    <       0.04159383 Ry

     iteration #  9     ecut=    30.00 Ry     beta= 0.50
     Davidson diagonalization with overlap
     ethr =  8.09E-06,  avg # of iterations =  2.0

     total cpu time spent up to now is        5.3 secs

     total energy              =    -501.54747696 Ry
     estimated scf accuracy    <       0.02416242 Ry

     iteration # 10     ecut=    30.00 Ry     beta= 0.50
     Davidson diagonalization with overlap
     ethr =  8.09E-06,  avg # of iterations =  1.0

     total cpu time spent up to now is        5.4 secs

     total energy              =    -501.54537026 Ry
     estimated scf accuracy    <       0.01489379 Ry

     iteration # 11     ecut=    30.00 Ry     beta= 0.50
     Davidson diagonalization with overlap
     c_bands:  1 eigenvalues not converged
     ethr =  5.82E-06,  avg # of iterations = 20.0

     total cpu time spent up to now is        5.5 secs

     total energy              =    -501.54713371 Ry
     estimated scf accuracy    <       0.03401722 Ry

     iteration # 12     ecut=    30.00 Ry     beta= 0.50
     Davidson diagonalization with overlap
     c_bands:  1 eigenvalues not converged
     ethr =  5.82E-06,  avg # of iterations = 20.0

     total cpu time spent up to now is        5.7 secs

     total energy              =    -501.54765808 Ry
     estimated scf accuracy    <       0.02304626 Ry

     iteration # 13     ecut=    30.00 Ry     beta= 0.50
     Davidson diagonalization with overlap
     ethr =  5.82E-06,  avg # of iterations =  2.0

     total cpu time spent up to now is        5.7 secs

     total energy              =    -501.54579699 Ry
     estimated scf accuracy    <       0.01834149 Ry

     iteration # 14     ecut=    30.00 Ry     beta= 0.50
     Davidson diagonalization with overlap
     ethr =  5.82E-06,  avg # of iterations =  2.0

     total cpu time spent up to now is        5.8 secs

     total energy              =    -501.54551007 Ry
     estimated scf accuracy    <       0.00951409 Ry

     iteration # 15     ecut=    30.00 Ry     beta= 0.50
     Davidson diagonalization with overlap
     ethr =  3.72E-06,  avg # of iterations =  2.0

     total cpu time spent up to now is        5.9 secs

     total energy              =    -501.54531734 Ry
     estimated scf accuracy    <       0.00626084 Ry

     iteration # 16     ecut=    30.00 Ry     beta= 0.50
     Davidson diagonalization with overlap
     ethr =  2.45E-06,  avg # of iterations =  2.0

     total cpu time spent up to now is        6.0 secs

     total energy              =    -501.54498413 Ry
     estimated scf accuracy    <       0.00414562 Ry

     iteration # 17     ecut=    30.00 Ry     beta= 0.50
     Davidson diagonalization with overlap
     c_bands:  1 eigenvalues not converged
     ethr =  1.62E-06,  avg # of iterations = 20.0

     total cpu time spent up to now is        6.1 secs

     total energy              =    -501.54985472 Ry
     estimated scf accuracy    <       0.02770949 Ry

     iteration # 18     ecut=    30.00 Ry     beta= 0.50
     Davidson diagonalization with overlap
     c_bands:  1 eigenvalues not converged
     ethr =  1.62E-06,  avg # of iterations = 20.0

     total cpu time spent up to now is        6.2 secs

     total energy              =    -501.55089777 Ry
     estimated scf accuracy    <       0.02834382 Ry

     iteration # 19     ecut=    30.00 Ry     beta= 0.50
     Davidson diagonalization with overlap
     ethr =  1.62E-06,  avg # of iterations =  7.0

     total cpu time spent up to now is        6.3 secs

     total energy              =    -501.55099796 Ry
     estimated scf accuracy    <       0.02713336 Ry

     iteration # 20     ecut=    30.00 Ry     beta= 0.50
     Davidson diagonalization with overlap
     ethr =  1.62E-06,  avg # of iterations =  1.0

     total cpu time spent up to now is        6.4 secs

     total energy              =    -501.54863665 Ry
     estimated scf accuracy    <       0.02753798 Ry

     iteration # 21     ecut=    30.00 Ry     beta= 0.50
     Davidson diagonalization with overlap
     ethr =  1.62E-06,  avg # of iterations =  2.0

     total cpu time spent up to now is        6.5 secs

     total energy              =    -501.54893478 Ry
     estimated scf accuracy    <       0.01884893 Ry

     iteration # 22     ecut=    30.00 Ry     beta= 0.50
     Davidson diagonalization with overlap
     ethr =  1.62E-06,  avg # of iterations =  1.0

     total cpu time spent up to now is        6.5 secs

     total energy              =    -501.54913946 Ry
     estimated scf accuracy    <       0.01851003 Ry

     iteration # 23     ecut=    30.00 Ry     beta= 0.50
     Davidson diagonalization with overlap
     ethr =  1.62E-06,  avg # of iterations =  1.0

     total cpu time spent up to now is        6.6 secs

     total energy              =    -501.54870247 Ry
     estimated scf accuracy    <       0.01832809 Ry

     iteration # 24     ecut=    30.00 Ry     beta= 0.50
     Davidson diagonalization with overlap
     ethr =  1.62E-06,  avg # of iterations =  1.0

     total cpu time spent up to now is        6.7 secs

     total energy              =    -501.54826013 Ry
     estimated scf accuracy    <       0.01627571 Ry

     iteration # 25     ecut=    30.00 Ry     beta= 0.50
     Davidson diagonalization with overlap
     ethr =  1.62E-06,  avg # of iterations =  1.0

     total cpu time spent up to now is        6.7 secs

     total energy              =    -501.54360367 Ry
     estimated scf accuracy    <       0.01381814 Ry

     iteration # 26     ecut=    30.00 Ry     beta= 0.50
     Davidson diagonalization with overlap
     c_bands:  1 eigenvalues not converged
     ethr =  1.62E-06,  avg # of iterations = 20.0

     total cpu time spent up to now is        6.9 secs

     total energy              =    -501.54710474 Ry
     estimated scf accuracy    <       0.06241279 Ry

     iteration # 27     ecut=    30.00 Ry     beta= 0.50
     Davidson diagonalization with overlap
     ethr =  1.62E-06,  avg # of iterations = 12.0

     total cpu time spent up to now is        7.1 secs

     total energy              =    -501.54703037 Ry
     estimated scf accuracy    <       0.02289261 Ry

     iteration # 28     ecut=    30.00 Ry     beta= 0.50
     Davidson diagonalization with overlap
     ethr =  1.62E-06,  avg # of iterations =  2.0

     total cpu time spent up to now is        7.1 secs

     total energy              =    -501.54648142 Ry
     estimated scf accuracy    <       0.01577977 Ry

     iteration # 29     ecut=    30.00 Ry     beta= 0.50
     Davidson diagonalization with overlap
     ethr =  1.62E-06,  avg # of iterations =  1.0

     total cpu time spent up to now is        7.2 secs

     total energy              =    -501.54601617 Ry
     estimated scf accuracy    <       0.01194598 Ry

     iteration # 30     ecut=    30.00 Ry     beta= 0.50
     Davidson diagonalization with overlap
     ethr =  1.62E-06,  avg # of iterations =  1.0

     total cpu time spent up to now is        7.3 secs

     total energy              =    -501.54557897 Ry
     estimated scf accuracy    <       0.00924485 Ry

     iteration # 31     ecut=    30.00 Ry     beta= 0.50
     Davidson diagonalization with overlap
     ethr =  1.62E-06,  avg # of iterations =  2.0

     total cpu time spent up to now is        7.3 secs

     total energy              =    -501.54538938 Ry
     estimated scf accuracy    <       0.00642852 Ry

     iteration # 32     ecut=    30.00 Ry     beta= 0.50
     Davidson diagonalization with overlap
     ethr =  1.62E-06,  avg # of iterations =  1.0

     total cpu time spent up to now is        7.4 secs

     total energy              =    -501.54538403 Ry
     estimated scf accuracy    <       0.00478108 Ry

     iteration # 33     ecut=    30.00 Ry     beta= 0.50
     Davidson diagonalization with overlap
     ethr =  1.62E-06,  avg # of iterations =  1.0

     total cpu time spent up to now is        7.5 secs

     total energy              =    -501.54551831 Ry
     estimated scf accuracy    <       0.00387667 Ry

     iteration # 34     ecut=    30.00 Ry     beta= 0.50
     Davidson diagonalization with overlap
     ethr =  1.51E-06,  avg # of iterations =  1.0

     total cpu time spent up to now is        7.5 secs

     total energy              =    -501.54430966 Ry
     estimated scf accuracy    <       0.00362800 Ry

     iteration # 35     ecut=    30.00 Ry     beta= 0.50
     Davidson diagonalization with overlap
     c_bands:  1 eigenvalues not converged
     ethr =  1.42E-06,  avg # of iterations = 20.0

     total cpu time spent up to now is        7.7 secs

     total energy              =    -501.54843221 Ry
     estimated scf accuracy    <       0.04023542 Ry

     iteration # 36     ecut=    30.00 Ry     beta= 0.50
     Davidson diagonalization with overlap
     c_bands:  1 eigenvalues not converged
     ethr =  1.42E-06,  avg # of iterations = 20.0

     total cpu time spent up to now is        7.8 secs

     total energy              =    -501.55118254 Ry
     estimated scf accuracy    <       0.04603324 Ry

     iteration # 37     ecut=    30.00 Ry     beta= 0.50
     Davidson diagonalization with overlap
     c_bands:  1 eigenvalues not converged
     ethr =  1.42E-06,  avg # of iterations = 20.0

     total cpu time spent up to now is        8.0 secs

     total energy              =    -501.55046189 Ry
     estimated scf accuracy    <       0.03694477 Ry

     iteration # 38     ecut=    30.00 Ry     beta= 0.50
     Davidson diagonalization with overlap
     ethr =  1.42E-06,  avg # of iterations =  2.0

     total cpu time spent up to now is        8.1 secs

     total energy              =    -501.54917383 Ry
     estimated scf accuracy    <       0.03129751 Ry

     iteration # 39     ecut=    30.00 Ry     beta= 0.50
     Davidson diagonalization with overlap
     ethr =  1.42E-06,  avg # of iterations =  2.0

     total cpu time spent up to now is        8.1 secs

     total energy              =    -501.55040206 Ry
     estimated scf accuracy    <       0.02497735 Ry

     iteration # 40     ecut=    30.00 Ry     beta= 0.50
     Davidson diagonalization with overlap
     ethr =  1.42E-06,  avg # of iterations =  1.0

     total cpu time spent up to now is        8.2 secs

     total energy              =    -501.55125856 Ry
     estimated scf accuracy    <       0.02731474 Ry

     iteration # 41     ecut=    30.00 Ry     beta= 0.50
     Davidson diagonalization with overlap
     ethr =  1.42E-06,  avg # of iterations =  1.0

     total cpu time spent up to now is        8.3 secs

     total energy              =    -501.55081670 Ry
     estimated scf accuracy    <       0.03049807 Ry

     iteration # 42     ecut=    30.00 Ry     beta= 0.50
     Davidson diagonalization with overlap
     ethr =  1.42E-06,  avg # of iterations =  1.0

     total cpu time spent up to now is        8.3 secs

     total energy              =    -501.55068439 Ry
     estimated scf accuracy    <       0.02921215 Ry

     iteration # 43     ecut=    30.00 Ry     beta= 0.50
     Davidson diagonalization with overlap
     ethr =  1.42E-06,  avg # of iterations =  1.0

     total cpu time spent up to now is        8.4 secs

     total energy              =    -501.54115486 Ry
     estimated scf accuracy    <       0.02842083 Ry

     iteration # 44     ecut=    30.00 Ry     beta= 0.50
     Davidson diagonalization with overlap
     c_bands:  2 eigenvalues not converged
     ethr =  1.42E-06,  avg # of iterations = 20.0

     total cpu time spent up to now is        8.6 secs

     total energy              =    -501.55028397 Ry
     estimated scf accuracy    <       0.07698053 Ry

     iteration # 45     ecut=    30.00 Ry     beta= 0.50
     Davidson diagonalization with overlap
     c_bands:  1 eigenvalues not converged
     ethr =  1.42E-06,  avg # of iterations = 20.0

     total cpu time spent up to now is        8.8 secs

     total energy              =    -501.54660427 Ry
     estimated scf accuracy    <       0.04409066 Ry

     iteration # 46     ecut=    30.00 Ry     beta= 0.50
     Davidson diagonalization with overlap
     ethr =  1.42E-06,  avg # of iterations =  7.0

     total cpu time spent up to now is        8.9 secs

     total energy              =    -501.54699979 Ry
     estimated scf accuracy    <       0.01823920 Ry

     iteration # 47     ecut=    30.00 Ry     beta= 0.50
     Davidson diagonalization with overlap
     ethr =  1.42E-06,  avg # of iterations =  1.0

     total cpu time spent up to now is        8.9 secs

     total energy              =    -501.54654012 Ry
     estimated scf accuracy    <       0.01470523 Ry

     iteration # 48     ecut=    30.00 Ry     beta= 0.50
     Davidson diagonalization with overlap
     ethr =  1.42E-06,  avg # of iterations =  1.0

     total cpu time spent up to now is        9.0 secs

     total energy              =    -501.54556980 Ry
     estimated scf accuracy    <       0.01197681 Ry

     iteration # 49     ecut=    30.00 Ry     beta= 0.50
     Davidson diagonalization with overlap
     c_bands:  1 eigenvalues not converged
     ethr =  1.42E-06,  avg # of iterations = 20.0

     total cpu time spent up to now is        9.2 secs

     total energy              =    -501.54788345 Ry
     estimated scf accuracy    <       0.01611277 Ry

     iteration # 50     ecut=    30.00 Ry     beta= 0.50
     Davidson diagonalization with overlap
     c_bands:  1 eigenvalues not converged
     ethr =  1.42E-06,  avg # of iterations = 20.0

     total cpu time spent up to now is        9.3 secs

     total energy              =    -501.54928096 Ry
     estimated scf accuracy    <       0.01388865 Ry

     iteration # 51     ecut=    30.00 Ry     beta= 0.50
     Davidson diagonalization with overlap
     ethr =  1.42E-06,  avg # of iterations = 14.0

     total cpu time spent up to now is        9.4 secs

     total energy              =    -501.54903456 Ry
     estimated scf accuracy    <       0.01538192 Ry

     iteration # 52     ecut=    30.00 Ry     beta= 0.50
     Davidson diagonalization with overlap
     ethr =  1.42E-06,  avg # of iterations =  1.0

     total cpu time spent up to now is        9.5 secs

     total energy              =    -501.54916680 Ry
     estimated scf accuracy    <       0.01469894 Ry

     iteration # 53     ecut=    30.00 Ry     beta= 0.50
     Davidson diagonalization with overlap
     ethr =  1.42E-06,  avg # of iterations =  1.0

     total cpu time spent up to now is        9.6 secs

     total energy              =    -501.54918671 Ry
     estimated scf accuracy    <       0.01582521 Ry

     iteration # 54     ecut=    30.00 Ry     beta= 0.50
     Davidson diagonalization with overlap
     ethr =  1.42E-06,  avg # of iterations =  1.0

     total cpu time spent up to now is        9.6 secs

     total energy              =    -501.54858467 Ry
     estimated scf accuracy    <       0.01595879 Ry

     iteration # 55     ecut=    30.00 Ry     beta= 0.50
     Davidson diagonalization with overlap
     ethr =  1.42E-06,  avg # of iterations =  1.0

     total cpu time spent up to now is        9.7 secs

     total energy              =    -501.54842591 Ry
     estimated scf accuracy    <       0.01355089 Ry

     iteration # 56     ecut=    30.00 Ry     beta= 0.50
     Davidson diagonalization with overlap
     ethr =  1.42E-06,  avg # of iterations =  1.0

     total cpu time spent up to now is        9.8 secs

     total energy              =    -501.54831522 Ry
     estimated scf accuracy    <       0.01262812 Ry

     iteration # 57     ecut=    30.00 Ry     beta= 0.50
     Davidson diagonalization with overlap
     ethr =  1.42E-06,  avg # of iterations =  1.0

     total cpu time spent up to now is        9.8 secs

     total energy              =    -501.54389488 Ry
     estimated scf accuracy    <       0.01192275 Ry

     iteration # 58     ecut=    30.00 Ry     beta= 0.50
     Davidson diagonalization with overlap
     c_bands:  1 eigenvalues not converged
     ethr =  1.42E-06,  avg # of iterations = 20.0

     total cpu time spent up to now is       10.0 secs

     total energy              =    -501.54980283 Ry
     estimated scf accuracy    <       0.08163085 Ry

     iteration # 59     ecut=    30.00 Ry     beta= 0.50
     Davidson diagonalization with overlap
     c_bands:  1 eigenvalues not converged
     ethr =  1.42E-06,  avg # of iterations = 20.0

     total cpu time spent up to now is       10.2 secs

     total energy              =    -501.54967567 Ry
     estimated scf accuracy    <       0.04145070 Ry

     iteration # 60     ecut=    30.00 Ry     beta= 0.50
     Davidson diagonalization with overlap
     ethr =  1.42E-06,  avg # of iterations =  2.0

     total cpu time spent up to now is       10.2 secs

     total energy              =    -501.54857445 Ry
     estimated scf accuracy    <       0.03300188 Ry

     iteration # 61     ecut=    30.00 Ry     beta= 0.50
     Davidson diagonalization with overlap
     ethr =  1.42E-06,  avg # of iterations =  2.0

     total cpu time spent up to now is       10.3 secs

     total energy              =    -501.54733846 Ry
     estimated scf accuracy    <       0.02652717 Ry

     iteration # 62     ecut=    30.00 Ry     beta= 0.50
     Davidson diagonalization with overlap
     ethr =  1.42E-06,  avg # of iterations =  2.0

     total cpu time spent up to now is       10.4 secs

     total energy              =    -501.54651541 Ry
     estimated scf accuracy    <       0.02014584 Ry

     iteration # 63     ecut=    30.00 Ry     beta= 0.50
     Davidson diagonalization with overlap
     ethr =  1.42E-06,  avg # of iterations =  2.0

     total cpu time spent up to now is       10.5 secs

     total energy              =    -501.54602984 Ry
     estimated scf accuracy    <       0.01473708 Ry

     iteration # 64     ecut=    30.00 Ry     beta= 0.50
     Davidson diagonalization with overlap
     c_bands:  1 eigenvalues not converged
     ethr =  1.42E-06,  avg # of iterations = 20.0

     total cpu time spent up to now is       10.6 secs

     total energy              =    -501.54649989 Ry
     estimated scf accuracy    <       0.00718479 Ry

     iteration # 65     ecut=    30.00 Ry     beta= 0.50
     Davidson diagonalization with overlap
     c_bands:  1 eigenvalues not converged
     ethr =  1.42E-06,  avg # of iterations = 20.0

     total cpu time spent up to now is       10.7 secs

     total energy              =    -501.54767503 Ry
     estimated scf accuracy    <       0.00669372 Ry

     iteration # 66     ecut=    30.00 Ry     beta= 0.50
     Davidson diagonalization with overlap
     c_bands:  1 eigenvalues not converged
     ethr =  1.42E-06,  avg # of iterations = 20.0

     total cpu time spent up to now is       10.9 secs

     total energy              =    -501.54902949 Ry
     estimated scf accuracy    <       0.00885824 Ry

     iteration # 67     ecut=    30.00 Ry     beta= 0.50
     Davidson diagonalization with overlap
     c_bands:  1 eigenvalues not converged
     ethr =  1.42E-06,  avg # of iterations = 20.0

     total cpu time spent up to now is       11.0 secs

     total energy              =    -501.54914130 Ry
     estimated scf accuracy    <       0.01759642 Ry

     iteration # 68     ecut=    30.00 Ry     beta= 0.50
     Davidson diagonalization with overlap
     ethr =  1.42E-06,  avg # of iterations = 12.0

     total cpu time spent up to now is       11.1 secs

     total energy              =    -501.54898454 Ry
     estimated scf accuracy    <       0.01688858 Ry

     iteration # 69     ecut=    30.00 Ry     beta= 0.50
     Davidson diagonalization with overlap
     ethr =  1.42E-06,  avg # of iterations =  1.0

     total cpu time spent up to now is       11.2 secs

     total energy              =    -501.54838834 Ry
     estimated scf accuracy    <       0.01575560 Ry

     iteration # 70     ecut=    30.00 Ry     beta= 0.50
     Davidson diagonalization with overlap
     ethr =  1.42E-06,  avg # of iterations =  1.0

     total cpu time spent up to now is       11.3 secs

     total energy              =    -501.54799998 Ry
     estimated scf accuracy    <       0.01313187 Ry

     iteration # 71     ecut=    30.00 Ry     beta= 0.50
     Davidson diagonalization with overlap
     ethr =  1.42E-06,  avg # of iterations =  1.0

     total cpu time spent up to now is       11.4 secs

     total energy              =    -501.54811763 Ry
     estimated scf accuracy    <       0.01110715 Ry

     iteration # 72     ecut=    30.00 Ry     beta= 0.50
     Davidson diagonalization with overlap
     ethr =  1.42E-06,  avg # of iterations =  1.0

     total cpu time spent up to now is       11.4 secs

     total energy              =    -501.54471317 Ry
     estimated scf accuracy    <       0.01101264 Ry

     iteration # 73     ecut=    30.00 Ry     beta= 0.50
     Davidson diagonalization with overlap
     c_bands:  1 eigenvalues not converged
     ethr =  1.42E-06,  avg # of iterations = 20.0

     total cpu time spent up to now is       11.6 secs

     total energy              =    -501.55052935 Ry
     estimated scf accuracy    <       0.04965821 Ry

     iteration # 74     ecut=    30.00 Ry     beta= 0.50
     Davidson diagonalization with overlap
     ethr =  1.42E-06,  avg # of iterations = 11.0

     total cpu time spent up to now is       11.7 secs

     total energy              =    -501.54873862 Ry
     estimated scf accuracy    <       0.03994249 Ry

     iteration # 75     ecut=    30.00 Ry     beta= 0.50
     Davidson diagonalization with overlap
     ethr =  1.42E-06,  avg # of iterations =  2.0

     total cpu time spent up to now is       11.8 secs

     total energy              =    -501.54671946 Ry
     estimated scf accuracy    <       0.03053101 Ry

     iteration # 76     ecut=    30.00 Ry     beta= 0.50
     Davidson diagonalization with overlap
     ethr =  1.42E-06,  avg # of iterations = 17.0

     total cpu time spent up to now is       11.9 secs

     total energy              =    -501.54666925 Ry
     estimated scf accuracy    <       0.01317014 Ry

     iteration # 77     ecut=    30.00 Ry     beta= 0.50
     Davidson diagonalization with overlap
     ethr =  1.42E-06,  avg # of iterations =  1.0

     total cpu time spent up to now is       12.0 secs

     total energy              =    -501.54653286 Ry
     estimated scf accuracy    <       0.01019634 Ry

     iteration # 78     ecut=    30.00 Ry     beta= 0.50
     Davidson diagonalization with overlap
     ethr =  1.42E-06,  avg # of iterations =  1.0

     total cpu time spent up to now is       12.1 secs

     total energy              =    -501.54696888 Ry
     estimated scf accuracy    <       0.00895796 Ry

     iteration # 79     ecut=    30.00 Ry     beta= 0.50
     Davidson diagonalization with overlap
     ethr =  1.42E-06,  avg # of iterations =  1.0

     total cpu time spent up to now is       12.1 secs

     total energy              =    -501.54705231 Ry
     estimated scf accuracy    <       0.00967353 Ry

     iteration # 80     ecut=    30.00 Ry     beta= 0.50
     Davidson diagonalization with overlap
     ethr =  1.42E-06,  avg # of iterations =  1.0

     total cpu time spent up to now is       12.2 secs

     total energy              =    -501.54698258 Ry
     estimated scf accuracy    <       0.00983101 Ry

     iteration # 81     ecut=    30.00 Ry     beta= 0.50
     Davidson diagonalization with overlap
     ethr =  1.42E-06,  avg # of iterations =  1.0

     total cpu time spent up to now is       12.3 secs

     total energy              =    -501.54287296 Ry
     estimated scf accuracy    <       0.00954840 Ry

     iteration # 82     ecut=    30.00 Ry     beta= 0.50
     Davidson diagonalization with overlap
     c_bands:  1 eigenvalues not converged
     ethr =  1.42E-06,  avg # of iterations = 20.0

     total cpu time spent up to now is       12.4 secs

     total energy              =    -501.55039723 Ry
     estimated scf accuracy    <       0.06421685 Ry

     iteration # 83     ecut=    30.00 Ry     beta= 0.50
     Davidson diagonalization with overlap
     ethr =  1.42E-06,  avg # of iterations = 12.0

     total cpu time spent up to now is       12.6 secs

     total energy              =    -501.55045922 Ry
     estimated scf accuracy    <       0.03553289 Ry

     iteration # 84     ecut=    30.00 Ry     beta= 0.50
     Davidson diagonalization with overlap
     ethr =  1.42E-06,  avg # of iterations =  2.0

     total cpu time spent up to now is       12.7 secs

     total energy              =    -501.55074504 Ry
     estimated scf accuracy    <       0.03080998 Ry

     iteration # 85     ecut=    30.00 Ry     beta= 0.50
     Davidson diagonalization with overlap
     ethr =  1.42E-06,  avg # of iterations =  2.0

     total cpu time spent up to now is       12.7 secs

     total energy              =    -501.55002326 Ry
     estimated scf accuracy    <       0.02987000 Ry

     iteration # 86     ecut=    30.00 Ry     beta= 0.50
     Davidson diagonalization with overlap
     ethr =  1.42E-06,  avg # of iterations =  1.0

     total cpu time spent up to now is       12.8 secs

     total energy              =    -501.54968406 Ry
     estimated scf accuracy    <       0.02601621 Ry

     iteration # 87     ecut=    30.00 Ry     beta= 0.50
     Davidson diagonalization with overlap
     ethr =  1.42E-06,  avg # of iterations =  1.0

     total cpu time spent up to now is       12.9 secs

     total energy              =    -501.54775368 Ry
     estimated scf accuracy    <       0.02354790 Ry

     iteration # 88     ecut=    30.00 Ry     beta= 0.50
     Davidson diagonalization with overlap
     ethr =  1.42E-06,  avg # of iterations = 13.0

     total cpu time spent up to now is       13.0 secs

     total energy              =    -501.54789042 Ry
     estimated scf accuracy    <       0.01140844 Ry

     iteration # 89     ecut=    30.00 Ry     beta= 0.50
     Davidson diagonalization with overlap
     ethr =  1.42E-06,  avg # of iterations =  1.0

     total cpu time spent up to now is       13.1 secs

     total energy              =    -501.54762093 Ry
     estimated scf accuracy    <       0.00985154 Ry

     iteration # 90     ecut=    30.00 Ry     beta= 0.50
     Davidson diagonalization with overlap
     ethr =  1.42E-06,  avg # of iterations =  1.0

     total cpu time spent up to now is       13.1 secs

     total energy              =    -501.54550362 Ry
     estimated scf accuracy    <       0.00832057 Ry

     iteration # 91     ecut=    30.00 Ry     beta= 0.50
     Davidson diagonalization with overlap
     c_bands:  1 eigenvalues not converged
     ethr =  1.42E-06,  avg # of iterations = 20.0

     total cpu time spent up to now is       13.3 secs

     total energy              =    -501.54677975 Ry
     estimated scf accuracy    <       0.00655827 Ry

     iteration # 92     ecut=    30.00 Ry     beta= 0.50
     Davidson diagonalization with overlap
     ethr =  1.42E-06,  avg # of iterations =  1.0

     total cpu time spent up to now is       13.4 secs

     total energy              =    -501.54686217 Ry
     estimated scf accuracy    <       0.00614089 Ry

     iteration # 93     ecut=    30.00 Ry     beta= 0.50
     Davidson diagonalization with overlap
     ethr =  1.42E-06,  avg # of iterations =  1.0

     total cpu time spent up to now is       13.4 secs

     total energy              =    -501.54618124 Ry
     estimated scf accuracy    <       0.00631230 Ry

     iteration # 94     ecut=    30.00 Ry     beta= 0.50
     Davidson diagonalization with overlap
     ethr =  1.42E-06,  avg # of iterations =  3.0

     total cpu time spent up to now is       13.5 secs

     total energy              =    -501.54664708 Ry
     estimated scf accuracy    <       0.00213940 Ry

     iteration # 95     ecut=    30.00 Ry     beta= 0.50
     Davidson diagonalization with overlap
     ethr =  8.36E-07,  avg # of iterations =  2.0

     total cpu time spent up to now is       13.6 secs

     total energy              =    -501.54679342 Ry
     estimated scf accuracy    <       0.00357992 Ry

     iteration # 96     ecut=    30.00 Ry     beta= 0.50
     Davidson diagonalization with overlap
     ethr =  8.36E-07,  avg # of iterations =  1.0

     total cpu time spent up to now is       13.6 secs

     total energy              =    -501.54625608 Ry
     estimated scf accuracy    <       0.00424881 Ry

     iteration # 97     ecut=    30.00 Ry     beta= 0.50
     Davidson diagonalization with overlap
     c_bands:  1 eigenvalues not converged
     ethr =  8.36E-07,  avg # of iterations = 20.0

     total cpu time spent up to now is       13.8 secs

     total energy              =    -501.54933358 Ry
     estimated scf accuracy    <       0.03852685 Ry

     iteration # 98     ecut=    30.00 Ry     beta= 0.50
     Davidson diagonalization with overlap
     ethr =  8.36E-07,  avg # of iterations = 12.0

     total cpu time spent up to now is       13.9 secs

     total energy              =    -501.54815959 Ry
     estimated scf accuracy    <       0.02895951 Ry

     iteration # 99     ecut=    30.00 Ry     beta= 0.50
     Davidson diagonalization with overlap
     ethr =  8.36E-07,  avg # of iterations =  9.0

     total cpu time spent up to now is       14.0 secs

     total energy              =    -501.55263863 Ry
     estimated scf accuracy    <       0.02028492 Ry

     iteration #100     ecut=    30.00 Ry     beta= 0.50
     Davidson diagonalization with overlap
     ethr =  8.36E-07,  avg # of iterations = 14.0

     total cpu time spent up to now is       14.2 secs

     total energy              =    -501.55319455 Ry
     estimated scf accuracy    <       0.07152818 Ry

     End of self-consistent calculation

     convergence NOT achieved after 100 iterations: stopping

     Writing config to output data dir ./pwscf.save/
     Message from routine punch:
     wavefunctions written to file
 
     init_run     :      1.15s CPU      4.06s WALL (       1 calls)
     electrons    :      9.42s CPU     10.07s WALL (       1 calls)

     Called by init_run:
     wfcinit      :      0.63s CPU      3.40s WALL (       1 calls)
                                        3.40s GPU  (       1 calls)
     potinit      :      0.05s CPU      0.12s WALL (       1 calls)
     hinit0       :      0.45s CPU      0.47s WALL (       1 calls)

     Called by electrons:
     c_bands      :      6.32s CPU      6.66s WALL (     101 calls)
     sum_band     :      1.43s CPU      1.65s WALL (     101 calls)
     v_of_rho     :      0.58s CPU      0.68s WALL (     101 calls)
     mix_rho      :      0.89s CPU      0.93s WALL (     101 calls)

     Called by c_bands:
     init_us_2    :      0.25s CPU      0.27s WALL (     203 calls)
     init_us_2:gp :      0.24s CPU      0.27s WALL (     203 calls)
     regterg      :      5.62s CPU      5.92s WALL (     101 calls)

     Called by *egterg:
     rdiaghg      :      2.68s CPU      3.34s WALL (     859 calls)
                                        3.21s GPU  (     859 calls)
     h_psi        :      2.78s CPU      5.14s WALL (     861 calls)
                                        5.13s GPU  (     861 calls)
     g_psi        :      0.00s CPU      0.02s WALL (     759 calls)
                                        0.01s GPU  (     759 calls)

     Called by h_psi:
     h_psi:calbec :      0.85s CPU      3.03s WALL (     861 calls)
                                        3.02s GPU  (     861 calls)
     vloc_psi     :      1.47s CPU      1.64s WALL (     861 calls)
                                        1.62s GPU  (     861 calls)
     add_vuspsi   :      0.34s CPU      0.43s WALL (     861 calls)
                                        0.42s GPU  (     861 calls)

     General routines
     calbec       :      0.84s CPU      3.01s WALL (     861 calls)
     fft          :      0.94s CPU      1.08s WALL (     809 calls)
                                        0.17s GPU  (     505 calls)
     ffts         :      0.17s CPU      0.18s WALL (     101 calls)
     fftw         :      1.79s CPU      2.28s WALL (    9538 calls)
                                        1.98s GPU  (    9538 calls)
     davcio       :      0.00s CPU      0.00s WALL (      19 calls)
 
     Parallel routines
 
     PWSCF        :     10.61s CPU     14.22s WALL

 
   This run was terminated on:  15:23: 1   9May2023            

=------------------------------------------------------------------------------=
   JOB DONE.
=------------------------------------------------------------------------------=
