An instance of this daemon is already running
An instance of this daemon is already running
An instance of this daemon is already running

     Program PWSCF v.7.1 starts on  9May2023 at 15:23:47 

     This program is part of the open-source Quantum ESPRESSO suite
     for quantum simulation of materials; please cite
         "P. Giannozzi et al., J. Phys.:Condens. Matter 21 395502 (2009);
         "P. Giannozzi et al., J. Phys.:Condens. Matter 29 465901 (2017);
         "P. Giannozzi et al., J. Chem. Phys. 152 154105 (2020);
          URL http://www.quantum-espresso.org", 
     in publications or presentations arising from this work. More details at
     http://www.quantum-espresso.org/quote

     Parallel version (MPI & OpenMP), running on       4 processor cores
     Number of MPI processes:                 4
     Threads/MPI process:                     1

     MPI processes distributed on     1 nodes
     46362 MiB available memory on the printing compute node when the environment starts
 
     Reading input from pw-si-90.in
Warning: card &CELL ignored
Warning: card / ignored

     Current dimensions of program PWSCF are:
     Max number of different atomic species (ntypx) = 10
     Max number of k-points (npk) =  40000
     Max angular momentum in pseudopotentials (lmaxx) =  4

     IMPORTANT: XC functional enforced from input :
     Exchange-correlation= PBE
                           (   1   4   3   4   0   0   0)
     Any further DFT definition will be discarded
     Please, verify this is what you really want


     gamma-point specific algorithms are used
 
     K-points division:     npool     =       2
     R & G space division:  proc/nbgrp/npool/nimage =       2
     Subspace diagonalization in iterative solution of the eigenvalue problem:
     a serial algorithm will be used

     Message from routine divide_et_impera:
     suboptimal parallelization: some nodes have no k-points
 
     Parallelization info
     --------------------
     sticks:   dense  smooth     PW     G-vecs:    dense   smooth      PW
     Min        1920    1920    502                89653    89653   12150
     Max        1921    1921    503                89656    89656   12153
     Sum        3841    3841   1005               179309   179309   24303
 
     Using Slab Decomposition
 


     bravais-lattice index     =            0
     lattice parameter (alat)  =      20.0739  a.u.
     unit-cell volume          =    8089.0496 (a.u.)^3
     number of atoms/cell      =           64
     number of atomic types    =            1
     number of electrons       =       256.00
     number of Kohn-Sham states=          128
     kinetic-energy cutoff     =      30.0000  Ry
     charge density cutoff     =     120.0000  Ry
     scf convergence threshold =      1.0E-06
     mixing beta               =       0.5000
     number of iterations used =            8  plain     mixing
     Exchange-correlation= PBE
                           (   1   4   3   4   0   0   0)

     GPU acceleration is ACTIVE.
     GPU-aware MPI enabled

     Message from routine print_cuda_info:
     High GPU oversubscription detected. Are you sure this is what you want?

     celldm(1)=  20.073934  celldm(2)=   0.000000  celldm(3)=   0.000000
     celldm(4)=   0.000000  celldm(5)=   0.000000  celldm(6)=   0.000000

     crystal axes: (cart. coord. in units of alat)
               a(1) = (   1.000000   0.000000   0.000000 )  
               a(2) = (   0.000000   1.000000   0.000000 )  
               a(3) = (   0.000000   0.000000   1.000000 )  

     reciprocal axes: (cart. coord. in units 2 pi/alat)
               b(1) = (  1.000000  0.000000  0.000000 )  
               b(2) = (  0.000000  1.000000  0.000000 )  
               b(3) = (  0.000000  0.000000  1.000000 )  


     PseudoPot. # 1 for Si read from file:
     /home/ppiaggi/pseudos/Si_ONCV_PBE_sr.upf
     MD5 check sum: 8553c464762ac42b85b1eed164b4d029
     Pseudo is Norm-conserving, Zval =  4.0
     Generated using ONCVPSP code by D. R. Hamann
     Using radial grid of 1510 points,  4 beta functions with: 
                l(1) =   0
                l(2) =   0
                l(3) =   1
                l(4) =   1

     atomic species   valence    mass     pseudopotential
        Si             4.00    28.08500     Si( 1.00)

     No symmetry found



   Cartesian axes

     site n.     atom                  positions (alat units)
         1           Si  tau(   1) = (   0.0370703   0.5685500   0.6264440  )
         2           Si  tau(   2) = (   0.0927321   0.9610260   0.5611400  )
         3           Si  tau(   3) = (   0.4840960   0.4840090   0.3560640  )
         4           Si  tau(   4) = (   0.0699723   0.4078300   0.8890760  )
         5           Si  tau(   5) = (   0.3845780   0.2165680   0.8873490  )
         6           Si  tau(   6) = (   0.8798510   0.8727940   0.8928610  )
         7           Si  tau(   7) = (   0.8557570   0.4388520   0.4121080  )
         8           Si  tau(   8) = (   0.7791900   0.8240690   0.6755360  )
         9           Si  tau(   9) = (   0.9847110   0.6826830   0.3360680  )
        10           Si  tau(  10) = (   0.1405630   0.8656750   0.3064730  )
        11           Si  tau(  11) = (   0.5381940   0.3261000   0.5814740  )
        12           Si  tau(  12) = (   0.8649840   0.4618310   0.1835130  )
        13           Si  tau(  13) = (   0.6559860   0.2904860   0.3789630  )
        14           Si  tau(  14) = (   0.2499620   0.1506450   0.6980380  )
        15           Si  tau(  15) = (   0.2057110   0.3714430   0.7247660  )
        16           Si  tau(  16) = (   0.0870870   0.9860470   0.8479990  )
        17           Si  tau(  17) = (   0.3560270   0.4613010   0.5900260  )
        18           Si  tau(  18) = (   0.5219340   0.7101780   0.2301900  )
        19           Si  tau(  19) = (   0.2013600   0.6528500   0.7870470  )
        20           Si  tau(  20) = (   0.4379920   0.9388590   0.7574180  )
        21           Si  tau(  21) = (   0.3553420   0.7448290   0.5471920  )
        22           Si  tau(  22) = (   0.9642250   0.1924520   0.8709300  )
        23           Si  tau(  23) = (   0.2427290   0.8578500   0.6992410  )
        24           Si  tau(  24) = (   0.1958290   0.6221040   0.4643970  )
        25           Si  tau(  25) = (   0.0370533   0.6074120   0.0913137  )
        26           Si  tau(  26) = (   0.0813538   0.1170270   0.3719580  )
        27           Si  tau(  27) = (   0.2821090   0.3202580   0.3601800  )
        28           Si  tau(  28) = (   0.6572850   0.3913200   0.8726730  )
        29           Si  tau(  29) = (   0.5683030   0.7140050   0.7219880  )
        30           Si  tau(  30) = (   0.7728650   0.1274150   0.4698050  )
        31           Si  tau(  31) = (   0.5126230   0.9442380   0.2879970  )
        32           Si  tau(  32) = (   0.4392630   0.5453570   0.8043060  )
        33           Si  tau(  33) = (   0.7831060   0.7830140   0.2545800  )
        34           Si  tau(  34) = (   0.2038780   0.7667790   0.9827140  )
        35           Si  tau(  35) = (   0.4304230   0.0392949   0.0698942  )
        36           Si  tau(  36) = (   0.7514220   0.5340820   0.5901450  )
        37           Si  tau(  37) = (   0.6779690   0.8682350   0.4511960  )
        38           Si  tau(  38) = (   0.2570190   0.6024160   0.2269490  )
        39           Si  tau(  39) = (   0.5538430   0.8283180   0.9725060  )
        40           Si  tau(  40) = (   0.9187200   0.2015210   0.6161670  )
        41           Si  tau(  41) = (   0.6877530   0.5676030   0.1302350  )
        42           Si  tau(  42) = (   0.7073590   0.6396190   0.9190060  )
        43           Si  tau(  43) = (   0.1253190   0.1719690   0.1740000  )
        44           Si  tau(  44) = (   0.7814740   0.0635467   0.7916860  )
        45           Si  tau(  45) = (   0.0710764   0.3398770   0.4893270  )
        46           Si  tau(  46) = (   0.3322900   0.9189370   0.4251610  )
        47           Si  tau(  47) = (   0.2278230   0.0071460   0.0410781  )
        48           Si  tau(  48) = (   0.5585230   0.0468806   0.5776980  )
        49           Si  tau(  49) = (   0.1937290   0.3827580   0.1190890  )
        50           Si  tau(  50) = (   0.9063940   0.2643920   0.1040330  )
        51           Si  tau(  51) = (   0.6864120   0.1722540   0.0377018  )
        52           Si  tau(  52) = (   0.7181260   0.9437930   0.0813834  )
        53           Si  tau(  53) = (   0.5923350   0.6774210   0.4743680  )
        54           Si  tau(  54) = (   0.8724380   0.0888674   0.2575280  )
        55           Si  tau(  55) = (   0.8254980   0.4019710   0.7498450  )
        56           Si  tau(  56) = (   0.3630730   0.4004930   0.9896150  )
        57           Si  tau(  57) = (   0.5762650   0.1995240   0.7731310  )
        58           Si  tau(  58) = (   0.3422870   0.1366640   0.4854920  )
        59           Si  tau(  59) = (   0.3945770   0.6762970   0.0421437  )
        60           Si  tau(  60) = (   0.9618110   0.7846680   0.5559200  )
        61           Si  tau(  61) = (   0.0129236   0.8944870   0.1218260  )
        62           Si  tau(  62) = (   0.9415220   0.6284690   0.8680630  )
        63           Si  tau(  63) = (   0.5530570   0.3751330   0.1034250  )
        64           Si  tau(  64) = (   0.4870440   0.1964230   0.2574530  )

     number of k points=     1
                       cart. coord. in units 2pi/alat
        k(    1) = (   0.0000000   0.0000000   0.0000000), wk =   2.0000000

     Dense  grid:    89655 G-vectors     FFT dimensions: (  72,  72,  72)

     Estimated max dynamical RAM per process >     132.34 MB

     Estimated total dynamical RAM >     507.46 MB

     Initial potential from superposition of free atoms

     starting charge     255.9608, renormalised to     256.0000
     Starting wfcs are  256 randomized atomic wfcs

     total cpu time spent up to now is        4.3 secs

     Self-consistent Calculation

     iteration #  1     ecut=    30.00 Ry     beta= 0.50
     Davidson diagonalization with overlap
     ethr =  1.00E-02,  avg # of iterations =  2.0

     Threshold (ethr) on eigenvalues was too large:
     Diagonalizing with lowered threshold

     Davidson diagonalization with overlap
     ethr =  3.62E-04,  avg # of iterations =  6.0

     total cpu time spent up to now is        4.4 secs

     total energy              =    -501.14836631 Ry
     estimated scf accuracy    <       1.18026715 Ry

     iteration #  2     ecut=    30.00 Ry     beta= 0.50
     Davidson diagonalization with overlap
     ethr =  4.61E-04,  avg # of iterations = 17.0

     total cpu time spent up to now is        4.6 secs

     total energy              =    -500.83169353 Ry
     estimated scf accuracy    <       3.52998543 Ry

     iteration #  3     ecut=    30.00 Ry     beta= 0.50
     Davidson diagonalization with overlap
     ethr =  4.61E-04,  avg # of iterations = 19.0

     total cpu time spent up to now is        4.7 secs

     total energy              =    -501.22221363 Ry
     estimated scf accuracy    <       1.57207210 Ry

     iteration #  4     ecut=    30.00 Ry     beta= 0.50
     Davidson diagonalization with overlap
     ethr =  4.61E-04,  avg # of iterations =  6.0

     total cpu time spent up to now is        4.8 secs

     total energy              =    -501.33928030 Ry
     estimated scf accuracy    <       0.27788287 Ry

     iteration #  5     ecut=    30.00 Ry     beta= 0.50
     Davidson diagonalization with overlap
     ethr =  1.09E-04,  avg # of iterations = 14.0

     total cpu time spent up to now is        5.0 secs

     total energy              =    -501.37346366 Ry
     estimated scf accuracy    <       0.12258745 Ry

     iteration #  6     ecut=    30.00 Ry     beta= 0.50
     Davidson diagonalization with overlap
     ethr =  4.79E-05,  avg # of iterations = 10.0

     total cpu time spent up to now is        5.1 secs

     total energy              =    -501.38344046 Ry
     estimated scf accuracy    <       0.12587713 Ry

     iteration #  7     ecut=    30.00 Ry     beta= 0.50
     Davidson diagonalization with overlap
     ethr =  4.79E-05,  avg # of iterations =  3.0

     total cpu time spent up to now is        5.2 secs

     total energy              =    -501.38717377 Ry
     estimated scf accuracy    <       0.02586231 Ry

     iteration #  8     ecut=    30.00 Ry     beta= 0.50
     Davidson diagonalization with overlap
     ethr =  1.01E-05,  avg # of iterations = 16.0

     total cpu time spent up to now is        5.3 secs

     total energy              =    -501.39358365 Ry
     estimated scf accuracy    <       0.02576440 Ry

     iteration #  9     ecut=    30.00 Ry     beta= 0.50
     Davidson diagonalization with overlap
     ethr =  1.01E-05,  avg # of iterations =  2.0

     total cpu time spent up to now is        5.4 secs

     total energy              =    -501.39231570 Ry
     estimated scf accuracy    <       0.01672959 Ry

     iteration # 10     ecut=    30.00 Ry     beta= 0.50
     Davidson diagonalization with overlap
     ethr =  6.53E-06,  avg # of iterations =  8.0

     total cpu time spent up to now is        5.5 secs

     total energy              =    -501.39319942 Ry
     estimated scf accuracy    <       0.00220197 Ry

     iteration # 11     ecut=    30.00 Ry     beta= 0.50
     Davidson diagonalization with overlap
     ethr =  8.60E-07,  avg # of iterations = 19.0

     total cpu time spent up to now is        5.7 secs

     total energy              =    -501.39404403 Ry
     estimated scf accuracy    <       0.00597600 Ry

     iteration # 12     ecut=    30.00 Ry     beta= 0.50
     Davidson diagonalization with overlap
     ethr =  8.60E-07,  avg # of iterations =  2.0

     total cpu time spent up to now is        5.7 secs

     total energy              =    -501.39359356 Ry
     estimated scf accuracy    <       0.00402641 Ry

     iteration # 13     ecut=    30.00 Ry     beta= 0.50
     Davidson diagonalization with overlap
     ethr =  8.60E-07,  avg # of iterations = 17.0

     total cpu time spent up to now is        5.9 secs

     total energy              =    -501.39391542 Ry
     estimated scf accuracy    <       0.00016254 Ry

     iteration # 14     ecut=    30.00 Ry     beta= 0.50
     Davidson diagonalization with overlap
     ethr =  6.35E-08,  avg # of iterations = 16.0

     total cpu time spent up to now is        6.0 secs

     total energy              =    -501.39396011 Ry
     estimated scf accuracy    <       0.00042409 Ry

     iteration # 15     ecut=    30.00 Ry     beta= 0.50
     Davidson diagonalization with overlap
     ethr =  6.35E-08,  avg # of iterations =  8.0

     total cpu time spent up to now is        6.1 secs

     total energy              =    -501.39395947 Ry
     estimated scf accuracy    <       0.00014421 Ry

     iteration # 16     ecut=    30.00 Ry     beta= 0.50
     Davidson diagonalization with overlap
     ethr =  5.63E-08,  avg # of iterations =  8.0

     total cpu time spent up to now is        6.2 secs

     total energy              =    -501.39397361 Ry
     estimated scf accuracy    <       0.00002875 Ry

     iteration # 17     ecut=    30.00 Ry     beta= 0.50
     Davidson diagonalization with overlap
     c_bands:  1 eigenvalues not converged
     ethr =  1.12E-08,  avg # of iterations = 20.0

     total cpu time spent up to now is        6.4 secs

     total energy              =    -501.39397957 Ry
     estimated scf accuracy    <       0.00006041 Ry

     iteration # 18     ecut=    30.00 Ry     beta= 0.50
     Davidson diagonalization with overlap
     ethr =  1.12E-08,  avg # of iterations = 10.0

     total cpu time spent up to now is        6.5 secs

     total energy              =    -501.39398048 Ry
     estimated scf accuracy    <       0.00003033 Ry

     iteration # 19     ecut=    30.00 Ry     beta= 0.50
     Davidson diagonalization with overlap
     ethr =  1.12E-08,  avg # of iterations =  2.0

     total cpu time spent up to now is        6.6 secs

     total energy              =    -501.39397916 Ry
     estimated scf accuracy    <       0.00001626 Ry

     iteration # 20     ecut=    30.00 Ry     beta= 0.50
     Davidson diagonalization with overlap
     ethr =  6.35E-09,  avg # of iterations = 19.0

     total cpu time spent up to now is        6.7 secs

     total energy              =    -501.39398124 Ry
     estimated scf accuracy    <       0.00000289 Ry

     iteration # 21     ecut=    30.00 Ry     beta= 0.50
     Davidson diagonalization with overlap
     ethr =  1.13E-09,  avg # of iterations = 13.0

     total cpu time spent up to now is        6.9 secs

     total energy              =    -501.39398145 Ry
     estimated scf accuracy    <       0.00000280 Ry

     iteration # 22     ecut=    30.00 Ry     beta= 0.50
     Davidson diagonalization with overlap
     ethr =  1.09E-09,  avg # of iterations =  6.0

     total cpu time spent up to now is        7.0 secs

     total energy              =    -501.39398162 Ry
     estimated scf accuracy    <       0.00000145 Ry

     iteration # 23     ecut=    30.00 Ry     beta= 0.50
     Davidson diagonalization with overlap
     ethr =  5.67E-10,  avg # of iterations = 17.0

     total cpu time spent up to now is        7.1 secs

     total energy              =    -501.39398166 Ry
     estimated scf accuracy    <       0.00000125 Ry

     iteration # 24     ecut=    30.00 Ry     beta= 0.50
     Davidson diagonalization with overlap
     ethr =  4.88E-10,  avg # of iterations =  2.0

     total cpu time spent up to now is        7.2 secs

     End of self-consistent calculation

          k = 0.0000 0.0000 0.0000 ( 11288 PWs)   bands (ev):

    -5.2379  -4.3059  -4.1225  -4.0749  -4.0496  -3.8787  -3.8068  -3.2457
    -3.1125  -3.0505  -2.9650  -2.9217  -2.8396  -2.7694  -2.7288  -2.7062
    -2.6800  -2.6247  -2.3853  -2.0697  -1.8927  -1.8550  -1.8105  -1.5762
    -1.5026  -1.4054  -1.2521  -0.8147  -0.6215  -0.5805  -0.5308  -0.4325
    -0.1629  -0.0971   0.0099   0.0864   0.1824   0.2905   0.3766   0.3797
     0.4921   0.5445   0.6209   0.6786   0.7822   0.8338   0.9261   1.0234
     1.1247   1.1550   1.2457   1.3809   1.4365   1.5775   1.7443   1.7687
     1.8151   1.9735   2.0552   2.1453   2.2368   2.2971   2.3133   2.5756
     2.5919   2.6984   2.7439   2.7910   2.9104   2.9217   3.0344   3.0737
     3.1307   3.2170   3.3025   3.3433   3.4145   3.4902   3.5769   3.6617
     3.8636   4.2167   4.3605   4.4755   4.5141   4.6363   4.6984   4.7952
     4.8758   4.9281   4.9997   5.0600   5.1240   5.2445   5.2618   5.2981
     5.3701   5.4551   5.5310   5.6133   5.6590   5.6886   5.6946   5.7961
     5.8492   5.9156   5.9610   5.9814   5.9969   6.0822   6.1013   6.2076
     6.2838   6.3413   6.4273   6.4505   6.5124   6.5999   6.6256   6.6629
     6.7548   6.7652   6.8856   6.9597   6.9796   6.9909   7.1491   7.1609

     highest occupied level (ev):     7.1609

!    total energy              =    -501.39398091 Ry
     estimated scf accuracy    <       0.00000084 Ry

     The total energy is the sum of the following terms:
     one-electron contribution =     197.91982964 Ry
     hartree contribution      =      19.97433921 Ry
     xc contribution           =    -150.78151564 Ry
     ewald contribution        =    -568.50663412 Ry

     convergence has been achieved in  24 iterations

     Forces acting on atoms (cartesian axes, Ry/au):

     atom    1 type  1   force =     0.01057609    0.01741095    0.01059652
     atom    2 type  1   force =     0.01222625    0.03993910    0.00590738
     atom    3 type  1   force =     0.00196793    0.00276379    0.00857548
     atom    4 type  1   force =    -0.03528090    0.01252482    0.03065066
     atom    5 type  1   force =     0.00518274   -0.09065686   -0.03226475
     atom    6 type  1   force =     0.00082530    0.00395102    0.00915386
     atom    7 type  1   force =     0.01134439   -0.01447860   -0.00316699
     atom    8 type  1   force =    -0.02572279    0.00500436   -0.00706168
     atom    9 type  1   force =     0.00034739    0.02648951    0.01354582
     atom   10 type  1   force =     0.01087529   -0.01659381    0.02588083
     atom   11 type  1   force =    -0.00143452   -0.00234398   -0.00204455
     atom   12 type  1   force =     0.03308500    0.02680327    0.03886089
     atom   13 type  1   force =    -0.00146057    0.03385683    0.02720002
     atom   14 type  1   force =     0.01095233    0.00336170    0.01856652
     atom   15 type  1   force =    -0.01115850   -0.03429902   -0.05082618
     atom   16 type  1   force =     0.01734735    0.03922980    0.02187382
     atom   17 type  1   force =     0.02018617    0.00019659   -0.01188928
     atom   18 type  1   force =     0.01289206   -0.00290174    0.01748258
     atom   19 type  1   force =    -0.00276965   -0.01779777    0.00284157
     atom   20 type  1   force =     0.03467723   -0.01783704    0.00463030
     atom   21 type  1   force =     0.05586327   -0.02724774    0.01902976
     atom   22 type  1   force =    -0.00677937    0.00124489   -0.00417017
     atom   23 type  1   force =    -0.00787769    0.00833357    0.01643030
     atom   24 type  1   force =    -0.01218932   -0.02054849   -0.03056162
     atom   25 type  1   force =    -0.00252127    0.00395949   -0.01308340
     atom   26 type  1   force =    -0.01906574   -0.01056287    0.04121479
     atom   27 type  1   force =     0.01684892   -0.00715736   -0.00644860
     atom   28 type  1   force =    -0.07402725    0.00710961    0.04375078
     atom   29 type  1   force =     0.01891809    0.02778878    0.00305303
     atom   30 type  1   force =    -0.02551747   -0.02530671   -0.01730217
     atom   31 type  1   force =     0.00784267   -0.01394094   -0.00528120
     atom   32 type  1   force =    -0.00537784   -0.00485334    0.01166967
     atom   33 type  1   force =    -0.00863030    0.02439222    0.01495846
     atom   34 type  1   force =    -0.02860241   -0.00154633    0.01696541
     atom   35 type  1   force =     0.07669256    0.03121109    0.01156652
     atom   36 type  1   force =    -0.02118460    0.01571549   -0.03547501
     atom   37 type  1   force =     0.03337295    0.06382337   -0.02823432
     atom   38 type  1   force =    -0.01259107   -0.00692486    0.01279346
     atom   39 type  1   force =    -0.01684235    0.01390637   -0.02770435
     atom   40 type  1   force =     0.00685330    0.03645978    0.03587724
     atom   41 type  1   force =    -0.04153983    0.01082339   -0.00873046
     atom   42 type  1   force =    -0.01048380   -0.01685442   -0.01143221
     atom   43 type  1   force =     0.00320060    0.01725524   -0.04762682
     atom   44 type  1   force =     0.00160599    0.02650902    0.00891872
     atom   45 type  1   force =    -0.03777654   -0.02761378    0.01232156
     atom   46 type  1   force =    -0.00388021    0.03510261   -0.05427464
     atom   47 type  1   force =    -0.08959052   -0.00779942   -0.04047847
     atom   48 type  1   force =    -0.02116216    0.01186665   -0.00193904
     atom   49 type  1   force =    -0.02810778    0.02969048    0.00645886
     atom   50 type  1   force =    -0.00235652   -0.06107613   -0.01926517
     atom   51 type  1   force =     0.02013902    0.01862600   -0.01544414
     atom   52 type  1   force =     0.02404070   -0.02080967    0.01051951
     atom   53 type  1   force =    -0.03983890   -0.07047689    0.01642223
     atom   54 type  1   force =     0.01698288   -0.02091593    0.00129612
     atom   55 type  1   force =     0.08080258   -0.02565484   -0.03698417
     atom   56 type  1   force =     0.03124842    0.05455040   -0.00789339
     atom   57 type  1   force =     0.02244754    0.02068017    0.00459531
     atom   58 type  1   force =     0.02288526   -0.00382125    0.03555059
     atom   59 type  1   force =     0.01230359   -0.01431664   -0.01331939
     atom   60 type  1   force =    -0.02888885   -0.04748794   -0.02535676
     atom   61 type  1   force =    -0.01645870   -0.01448379    0.01225896
     atom   62 type  1   force =     0.01533845   -0.02202364    0.03072284
     atom   63 type  1   force =     0.01697821   -0.01816869   -0.00684270
     atom   64 type  1   force =    -0.02773310    0.01592015   -0.03703875

     Total force =     0.368567     Total SCF correction =     0.001808


     Computing stress (Cartesian axis) and pressure

          total   stress  (Ry/bohr**3)                   (kbar)     P=      -32.29
  -0.00017611   0.00002620  -0.00003067          -25.91        3.85       -4.51
   0.00002620  -0.00024444  -0.00007847            3.85      -35.96      -11.54
  -0.00003067  -0.00007847  -0.00023803           -4.51      -11.54      -35.02

 
     init_run     :      1.15s CPU      4.20s WALL (       1 calls)
     electrons    :      2.75s CPU      2.92s WALL (       1 calls)
     forces       :      0.03s CPU      0.03s WALL (       1 calls)
     stress       :      0.12s CPU      0.12s WALL (       1 calls)

     Called by init_run:
     wfcinit      :      0.63s CPU      3.52s WALL (       1 calls)
                                        3.52s GPU  (       1 calls)
     potinit      :      0.04s CPU      0.14s WALL (       1 calls)
     hinit0       :      0.45s CPU      0.48s WALL (       1 calls)

     Called by electrons:
     c_bands      :      2.03s CPU      2.12s WALL (      25 calls)
     sum_band     :      0.35s CPU      0.40s WALL (      25 calls)
     v_of_rho     :      0.16s CPU      0.26s WALL (      25 calls)
     mix_rho      :      0.19s CPU      0.20s WALL (      25 calls)

     Called by c_bands:
     init_us_2    :      0.06s CPU      0.07s WALL (      51 calls)
     init_us_2:gp :      0.06s CPU      0.07s WALL (      51 calls)
     regterg      :      1.85s CPU      1.94s WALL (      25 calls)

     Called by *egterg:
     rdiaghg      :      0.98s CPU      1.60s WALL (     286 calls)
                                        1.56s GPU  (     286 calls)
     h_psi        :      1.22s CPU      3.56s WALL (     288 calls)
                                        3.55s GPU  (     288 calls)
     g_psi        :      0.00s CPU      0.01s WALL (     262 calls)
                                        0.00s GPU  (     262 calls)

     Called by h_psi:
     h_psi:calbec :      0.64s CPU      2.90s WALL (     288 calls)
                                        2.90s GPU  (     288 calls)
     vloc_psi     :      0.43s CPU      0.50s WALL (     288 calls)
                                        0.50s GPU  (     288 calls)
     add_vuspsi   :      0.11s CPU      0.14s WALL (     288 calls)
                                        0.14s GPU  (     288 calls)

     General routines
     calbec       :      0.65s CPU      2.90s WALL (     293 calls)
     fft          :      0.58s CPU      0.70s WALL (     207 calls)
                                        0.13s GPU  (     131 calls)
     ffts         :      0.04s CPU      0.05s WALL (      25 calls)
     fftw         :      0.50s CPU      0.66s WALL (    2554 calls)
                                        0.57s GPU  (    2554 calls)
 
     Parallel routines
 
     PWSCF        :      4.09s CPU      7.34s WALL

 
   This run was terminated on:  15:23:55   9May2023            

=------------------------------------------------------------------------------=
   JOB DONE.
=------------------------------------------------------------------------------=
