An instance of this daemon is already running
An instance of this daemon is already running

     Program PWSCF v.7.1 starts on  9May2023 at 15:16:52 

     This program is part of the open-source Quantum ESPRESSO suite
     for quantum simulation of materials; please cite
         "P. Giannozzi et al., J. Phys.:Condens. Matter 21 395502 (2009);
         "P. Giannozzi et al., J. Phys.:Condens. Matter 29 465901 (2017);
         "P. Giannozzi et al., J. Chem. Phys. 152 154105 (2020);
          URL http://www.quantum-espresso.org", 
     in publications or presentations arising from this work. More details at
     http://www.quantum-espresso.org/quote

     Parallel version (MPI & OpenMP), running on       4 processor cores
     Number of MPI processes:                 4
     Threads/MPI process:                     1

     MPI processes distributed on     1 nodes
     58737 MiB available memory on the printing compute node when the environment starts
 
     Reading input from pw-si-58.in
Warning: card &CELL ignored
Warning: card / ignored

     Current dimensions of program PWSCF are:
     Max number of different atomic species (ntypx) = 10
     Max number of k-points (npk) =  40000
     Max angular momentum in pseudopotentials (lmaxx) =  4

     IMPORTANT: XC functional enforced from input :
     Exchange-correlation= PBE
                           (   1   4   3   4   0   0   0)
     Any further DFT definition will be discarded
     Please, verify this is what you really want


     gamma-point specific algorithms are used
 
     K-points division:     npool     =       2
     R & G space division:  proc/nbgrp/npool/nimage =       2
     Subspace diagonalization in iterative solution of the eigenvalue problem:
     a serial algorithm will be used

     Message from routine divide_et_impera:
     suboptimal parallelization: some nodes have no k-points
 
     Parallelization info
     --------------------
     sticks:   dense  smooth     PW     G-vecs:    dense   smooth      PW
     Min        1929    1929    504                90087    90087   12201
     Max        1932    1932    505                90092    90092   12204
     Sum        3861    3861   1009               180179   180179   24405
 
     Using Slab Decomposition
 


     bravais-lattice index     =            0
     lattice parameter (alat)  =      20.0963  a.u.
     unit-cell volume          =    8116.1216 (a.u.)^3
     number of atoms/cell      =           64
     number of atomic types    =            1
     number of electrons       =       256.00
     number of Kohn-Sham states=          128
     kinetic-energy cutoff     =      30.0000  Ry
     charge density cutoff     =     120.0000  Ry
     scf convergence threshold =      1.0E-06
     mixing beta               =       0.5000
     number of iterations used =            8  plain     mixing
     Exchange-correlation= PBE
                           (   1   4   3   4   0   0   0)

     GPU acceleration is ACTIVE.
     GPU-aware MPI enabled

     Message from routine print_cuda_info:
     High GPU oversubscription detected. Are you sure this is what you want?

     celldm(1)=  20.096304  celldm(2)=   0.000000  celldm(3)=   0.000000
     celldm(4)=   0.000000  celldm(5)=   0.000000  celldm(6)=   0.000000

     crystal axes: (cart. coord. in units of alat)
               a(1) = (   1.000000   0.000000   0.000000 )  
               a(2) = (   0.000000   1.000000   0.000000 )  
               a(3) = (   0.000000   0.000000   1.000000 )  

     reciprocal axes: (cart. coord. in units 2 pi/alat)
               b(1) = (  1.000000  0.000000  0.000000 )  
               b(2) = (  0.000000  1.000000  0.000000 )  
               b(3) = (  0.000000  0.000000  1.000000 )  


     PseudoPot. # 1 for Si read from file:
     /home/ppiaggi/pseudos/Si_ONCV_PBE_sr.upf
     MD5 check sum: 8553c464762ac42b85b1eed164b4d029
     Pseudo is Norm-conserving, Zval =  4.0
     Generated using ONCVPSP code by D. R. Hamann
     Using radial grid of 1510 points,  4 beta functions with: 
                l(1) =   0
                l(2) =   0
                l(3) =   1
                l(4) =   1

     atomic species   valence    mass     pseudopotential
        Si             4.00    28.08500     Si( 1.00)

     No symmetry found



   Cartesian axes

     site n.     atom                  positions (alat units)
         1           Si  tau(   1) = (   0.3622650   0.8275400   0.1254880  )
         2           Si  tau(   2) = (   0.1395110   0.5553080   0.3357390  )
         3           Si  tau(   3) = (   0.9532500   0.5380130   0.7864890  )
         4           Si  tau(   4) = (   0.4493230   0.2947410   0.8145210  )
         5           Si  tau(   5) = (   0.4389790   0.7476380   0.8280680  )
         6           Si  tau(   6) = (   0.4297830   0.8793320   0.3768130  )
         7           Si  tau(   7) = (   0.9943370   0.2040120   0.9793610  )
         8           Si  tau(   8) = (   0.5488460   0.9488220   0.8450100  )
         9           Si  tau(   9) = (   0.0533673   0.4947230   0.5379510  )
        10           Si  tau(  10) = (   0.1710490   0.0062194   0.2595100  )
        11           Si  tau(  11) = (   0.8497010   0.6154660   0.0362693  )
        12           Si  tau(  12) = (   0.6724500   0.1154790   0.3906780  )
        13           Si  tau(  13) = (   0.9036760   0.2963430   0.7746440  )
        14           Si  tau(  14) = (   0.3580680   0.3550580   0.6242300  )
        15           Si  tau(  15) = (   0.3561300   0.5946090   0.0626591  )
        16           Si  tau(  16) = (   0.2725860   0.1808660   0.3994020  )
        17           Si  tau(  17) = (   0.9210720   0.8441650   0.6877920  )
        18           Si  tau(  18) = (   0.3663680   0.5082220   0.2726910  )
        19           Si  tau(  19) = (   0.1063490   0.2878910   0.6205150  )
        20           Si  tau(  20) = (   0.6184210   0.3728220   0.5909660  )
        21           Si  tau(  21) = (   0.2571320   0.0205860   0.0431759  )
        22           Si  tau(  22) = (   0.2685170   0.2726510   0.0753007  )
        23           Si  tau(  23) = (   0.7339570   0.7637310   0.5105840  )
        24           Si  tau(  24) = (   0.4808670   0.3092150   0.3792870  )
        25           Si  tau(  25) = (   0.8243860   0.3285340   0.0883037  )
        26           Si  tau(  26) = (   0.3205050   0.6048180   0.6928410  )
        27           Si  tau(  27) = (   0.7553290   0.3377840   0.3720180  )
        28           Si  tau(  28) = (   0.1280080   0.6709200   0.0553407  )
        29           Si  tau(  29) = (   0.0546784   0.4568050   0.9924680  )
        30           Si  tau(  30) = (   0.6794980   0.4972910   0.2164270  )
        31           Si  tau(  31) = (   0.2176040   0.1954990   0.8373580  )
        32           Si  tau(  32) = (   0.0211389   0.1196730   0.4797460  )
        33           Si  tau(  33) = (   0.2743770   0.4427000   0.8992400  )
        34           Si  tau(  34) = (   0.5988300   0.8010090   0.1607630  )
        35           Si  tau(  35) = (   0.1004050   0.8616750   0.5517270  )
        36           Si  tau(  36) = (   0.2090100   0.8341700   0.8811560  )
        37           Si  tau(  37) = (   0.4674720   0.0773724   0.2638650  )
        38           Si  tau(  38) = (   0.9326820   0.8616480   0.3399480  )
        39           Si  tau(  39) = (   0.8248800   0.0347332   0.5838490  )
        40           Si  tau(  40) = (   0.9694450   0.0704907   0.1604500  )
        41           Si  tau(  41) = (   0.7026380   0.1419930   0.0256989  )
        42           Si  tau(  42) = (   0.5614890   0.6327640   0.0002538  )
        43           Si  tau(  43) = (   0.3220970   0.0252709   0.7615520  )
        44           Si  tau(  44) = (   0.7758280   0.1150290   0.7900010  )
        45           Si  tau(  45) = (   0.1216590   0.6756710   0.6932520  )
        46           Si  tau(  46) = (   0.3800580   0.6394100   0.4701860  )
        47           Si  tau(  47) = (   0.1527190   0.3412450   0.2417460  )
        48           Si  tau(  48) = (   0.5909040   0.5996840   0.6683410  )
        49           Si  tau(  49) = (   0.1524620   0.7977110   0.2833100  )
        50           Si  tau(  50) = (   0.5943720   0.9249990   0.5734120  )
        51           Si  tau(  51) = (   0.7601950   0.6645410   0.8109490  )
        52           Si  tau(  52) = (   0.9632160   0.8314010   0.0577713  )
        53           Si  tau(  53) = (   0.4933570   0.3340060   0.1132910  )
        54           Si  tau(  54) = (   0.3022690   0.9777700   0.5556180  )
        55           Si  tau(  55) = (   0.0196688   0.9760420   0.8738760  )
        56           Si  tau(  56) = (   0.4716660   0.1105450   0.0264587  )
        57           Si  tau(  57) = (   0.5663340   0.1484420   0.6896920  )
        58           Si  tau(  58) = (   0.6037940   0.4019230   0.9353760  )
        59           Si  tau(  59) = (   0.7535530   0.8796120   0.9220330  )
        60           Si  tau(  60) = (   0.9483800   0.2603330   0.3018460  )
        61           Si  tau(  61) = (   0.7649590   0.9457750   0.1999400  )
        62           Si  tau(  62) = (   0.5925750   0.6663920   0.3392250  )
        63           Si  tau(  63) = (   0.8488720   0.5197130   0.4813860  )
        64           Si  tau(  64) = (   0.9049110   0.6200680   0.2700350  )

     number of k points=     1
                       cart. coord. in units 2pi/alat
        k(    1) = (   0.0000000   0.0000000   0.0000000), wk =   2.0000000

     Dense  grid:    90090 G-vectors     FFT dimensions: (  72,  72,  72)

     Estimated max dynamical RAM per process >     132.76 MB

     Estimated total dynamical RAM >     509.05 MB

     Initial potential from superposition of free atoms

     starting charge     255.9608, renormalised to     256.0000
     Starting wfcs are  256 randomized atomic wfcs

     total cpu time spent up to now is        4.1 secs

     Self-consistent Calculation

     iteration #  1     ecut=    30.00 Ry     beta= 0.50
     Davidson diagonalization with overlap
     ethr =  1.00E-02,  avg # of iterations =  2.0

     Threshold (ethr) on eigenvalues was too large:
     Diagonalizing with lowered threshold

     Davidson diagonalization with overlap
     ethr =  3.58E-04,  avg # of iterations =  9.0

     total cpu time spent up to now is        4.3 secs

     total energy              =    -501.04761709 Ry
     estimated scf accuracy    <       1.19499182 Ry

     iteration #  2     ecut=    30.00 Ry     beta= 0.50
     Davidson diagonalization with overlap
     ethr =  4.67E-04,  avg # of iterations = 12.0

     total cpu time spent up to now is        4.4 secs

     total energy              =    -500.48134223 Ry
     estimated scf accuracy    <       7.84429468 Ry

     iteration #  3     ecut=    30.00 Ry     beta= 0.50
     Davidson diagonalization with overlap
     ethr =  4.67E-04,  avg # of iterations = 11.0

     total cpu time spent up to now is        4.6 secs

     total energy              =    -501.16259350 Ry
     estimated scf accuracy    <       1.83738746 Ry

     iteration #  4     ecut=    30.00 Ry     beta= 0.50
     Davidson diagonalization with overlap
     ethr =  4.67E-04,  avg # of iterations =  5.0

     total cpu time spent up to now is        4.6 secs

     total energy              =    -501.29446574 Ry
     estimated scf accuracy    <       0.31924681 Ry

     iteration #  5     ecut=    30.00 Ry     beta= 0.50
     Davidson diagonalization with overlap
     ethr =  1.25E-04,  avg # of iterations = 17.0

     total cpu time spent up to now is        4.8 secs

     total energy              =    -501.33404734 Ry
     estimated scf accuracy    <       0.28756218 Ry

     iteration #  6     ecut=    30.00 Ry     beta= 0.50
     Davidson diagonalization with overlap
     ethr =  1.12E-04,  avg # of iterations =  3.0

     total cpu time spent up to now is        4.9 secs

     total energy              =    -501.35227690 Ry
     estimated scf accuracy    <       0.12360440 Ry

     iteration #  7     ecut=    30.00 Ry     beta= 0.50
     Davidson diagonalization with overlap
     ethr =  4.83E-05,  avg # of iterations =  2.0

     total cpu time spent up to now is        4.9 secs

     total energy              =    -501.34912062 Ry
     estimated scf accuracy    <       0.05991386 Ry

     iteration #  8     ecut=    30.00 Ry     beta= 0.50
     Davidson diagonalization with overlap
     c_bands:  1 eigenvalues not converged
     ethr =  2.34E-05,  avg # of iterations = 20.0

     total cpu time spent up to now is        5.1 secs

     total energy              =    -501.35869362 Ry
     estimated scf accuracy    <       0.02786028 Ry

     iteration #  9     ecut=    30.00 Ry     beta= 0.50
     Davidson diagonalization with overlap
     ethr =  1.09E-05,  avg # of iterations =  8.0

     total cpu time spent up to now is        5.2 secs

     total energy              =    -501.35937014 Ry
     estimated scf accuracy    <       0.01744064 Ry

     iteration # 10     ecut=    30.00 Ry     beta= 0.50
     Davidson diagonalization with overlap
     ethr =  6.81E-06,  avg # of iterations = 13.0

     total cpu time spent up to now is        5.3 secs

     total energy              =    -501.35910459 Ry
     estimated scf accuracy    <       0.00813966 Ry

     iteration # 11     ecut=    30.00 Ry     beta= 0.50
     Davidson diagonalization with overlap
     c_bands:  1 eigenvalues not converged
     ethr =  3.18E-06,  avg # of iterations = 20.0

     total cpu time spent up to now is        5.5 secs

     total energy              =    -501.35995890 Ry
     estimated scf accuracy    <       0.00557819 Ry

     iteration # 12     ecut=    30.00 Ry     beta= 0.50
     Davidson diagonalization with overlap
     ethr =  2.18E-06,  avg # of iterations =  8.0

     total cpu time spent up to now is        5.6 secs

     total energy              =    -501.35982000 Ry
     estimated scf accuracy    <       0.00388937 Ry

     iteration # 13     ecut=    30.00 Ry     beta= 0.50
     Davidson diagonalization with overlap
     ethr =  1.52E-06,  avg # of iterations =  2.0

     total cpu time spent up to now is        5.7 secs

     total energy              =    -501.35946746 Ry
     estimated scf accuracy    <       0.00277593 Ry

     iteration # 14     ecut=    30.00 Ry     beta= 0.50
     Davidson diagonalization with overlap
     c_bands:  1 eigenvalues not converged
     ethr =  1.08E-06,  avg # of iterations = 20.0

     total cpu time spent up to now is        5.8 secs

     total energy              =    -501.36042143 Ry
     estimated scf accuracy    <       0.00549575 Ry

     iteration # 15     ecut=    30.00 Ry     beta= 0.50
     Davidson diagonalization with overlap
     ethr =  1.08E-06,  avg # of iterations = 13.0

     total cpu time spent up to now is        5.9 secs

     total energy              =    -501.36012050 Ry
     estimated scf accuracy    <       0.00556176 Ry

     iteration # 16     ecut=    30.00 Ry     beta= 0.50
     Davidson diagonalization with overlap
     ethr =  1.08E-06,  avg # of iterations =  2.0

     total cpu time spent up to now is        6.0 secs

     total energy              =    -501.35970590 Ry
     estimated scf accuracy    <       0.00379186 Ry

     iteration # 17     ecut=    30.00 Ry     beta= 0.50
     Davidson diagonalization with overlap
     c_bands:  2 eigenvalues not converged
     ethr =  1.08E-06,  avg # of iterations = 20.0

     total cpu time spent up to now is        6.1 secs

     total energy              =    -501.36018196 Ry
     estimated scf accuracy    <       0.00144128 Ry

     iteration # 18     ecut=    30.00 Ry     beta= 0.50
     Davidson diagonalization with overlap
     ethr =  5.63E-07,  avg # of iterations = 13.0

     total cpu time spent up to now is        6.3 secs

     total energy              =    -501.36018751 Ry
     estimated scf accuracy    <       0.00111583 Ry

     iteration # 19     ecut=    30.00 Ry     beta= 0.50
     Davidson diagonalization with overlap
     ethr =  4.36E-07,  avg # of iterations =  2.0

     total cpu time spent up to now is        6.3 secs

     total energy              =    -501.36010823 Ry
     estimated scf accuracy    <       0.00077431 Ry

     iteration # 20     ecut=    30.00 Ry     beta= 0.50
     Davidson diagonalization with overlap
     ethr =  3.02E-07,  avg # of iterations = 16.0

     total cpu time spent up to now is        6.5 secs

     total energy              =    -501.36016894 Ry
     estimated scf accuracy    <       0.00016862 Ry

     iteration # 21     ecut=    30.00 Ry     beta= 0.50
     Davidson diagonalization with overlap
     c_bands:  1 eigenvalues not converged
     ethr =  6.59E-08,  avg # of iterations = 20.0

     total cpu time spent up to now is        6.6 secs

     total energy              =    -501.36020281 Ry
     estimated scf accuracy    <       0.00038769 Ry

     iteration # 22     ecut=    30.00 Ry     beta= 0.50
     Davidson diagonalization with overlap
     ethr =  6.59E-08,  avg # of iterations =  2.0

     total cpu time spent up to now is        6.7 secs

     total energy              =    -501.36018696 Ry
     estimated scf accuracy    <       0.00033787 Ry

     iteration # 23     ecut=    30.00 Ry     beta= 0.50
     Davidson diagonalization with overlap
     ethr =  6.59E-08,  avg # of iterations =  3.0

     total cpu time spent up to now is        6.8 secs

     total energy              =    -501.36016179 Ry
     estimated scf accuracy    <       0.00027047 Ry

     iteration # 24     ecut=    30.00 Ry     beta= 0.50
     Davidson diagonalization with overlap
     ethr =  6.59E-08,  avg # of iterations =  2.0

     total cpu time spent up to now is        6.9 secs

     total energy              =    -501.36016404 Ry
     estimated scf accuracy    <       0.00011882 Ry

     iteration # 25     ecut=    30.00 Ry     beta= 0.50
     Davidson diagonalization with overlap
     ethr =  4.64E-08,  avg # of iterations =  2.0

     total cpu time spent up to now is        6.9 secs

     total energy              =    -501.36015942 Ry
     estimated scf accuracy    <       0.00007789 Ry

     iteration # 26     ecut=    30.00 Ry     beta= 0.50
     Davidson diagonalization with overlap
     c_bands:  2 eigenvalues not converged
     ethr =  3.04E-08,  avg # of iterations = 20.0

     total cpu time spent up to now is        7.1 secs

     total energy              =    -501.36020229 Ry
     estimated scf accuracy    <       0.00092958 Ry

     iteration # 27     ecut=    30.00 Ry     beta= 0.50
     Davidson diagonalization with overlap
     c_bands:  1 eigenvalues not converged
     ethr =  3.04E-08,  avg # of iterations = 20.0

     total cpu time spent up to now is        7.2 secs

     total energy              =    -501.36020412 Ry
     estimated scf accuracy    <       0.00072984 Ry

     iteration # 28     ecut=    30.00 Ry     beta= 0.50
     Davidson diagonalization with overlap
     ethr =  3.04E-08,  avg # of iterations =  1.0

     total cpu time spent up to now is        7.3 secs

     total energy              =    -501.36019057 Ry
     estimated scf accuracy    <       0.00070013 Ry

     iteration # 29     ecut=    30.00 Ry     beta= 0.50
     Davidson diagonalization with overlap
     ethr =  3.04E-08,  avg # of iterations =  3.0

     total cpu time spent up to now is        7.4 secs

     total energy              =    -501.36016888 Ry
     estimated scf accuracy    <       0.00069156 Ry

     iteration # 30     ecut=    30.00 Ry     beta= 0.50
     Davidson diagonalization with overlap
     c_bands:  2 eigenvalues not converged
     ethr =  3.04E-08,  avg # of iterations = 20.0

     total cpu time spent up to now is        7.5 secs

     total energy              =    -501.36017443 Ry
     estimated scf accuracy    <       0.00021836 Ry

     iteration # 31     ecut=    30.00 Ry     beta= 0.50
     Davidson diagonalization with overlap
     ethr =  3.04E-08,  avg # of iterations = 17.0

     total cpu time spent up to now is        7.7 secs

     total energy              =    -501.36018131 Ry
     estimated scf accuracy    <       0.00013951 Ry

     iteration # 32     ecut=    30.00 Ry     beta= 0.50
     Davidson diagonalization with overlap
     ethr =  3.04E-08,  avg # of iterations =  1.0

     total cpu time spent up to now is        7.7 secs

     total energy              =    -501.36017906 Ry
     estimated scf accuracy    <       0.00013283 Ry

     iteration # 33     ecut=    30.00 Ry     beta= 0.50
     Davidson diagonalization with overlap
     ethr =  3.04E-08,  avg # of iterations =  1.0

     total cpu time spent up to now is        7.8 secs

     total energy              =    -501.36017563 Ry
     estimated scf accuracy    <       0.00012078 Ry

     iteration # 34     ecut=    30.00 Ry     beta= 0.50
     Davidson diagonalization with overlap
     ethr =  3.04E-08,  avg # of iterations =  2.0

     total cpu time spent up to now is        7.9 secs

     total energy              =    -501.36016296 Ry
     estimated scf accuracy    <       0.00010683 Ry

     iteration # 35     ecut=    30.00 Ry     beta= 0.50
     Davidson diagonalization with overlap
     c_bands:  1 eigenvalues not converged
     ethr =  3.04E-08,  avg # of iterations = 20.0

     total cpu time spent up to now is        8.0 secs

     total energy              =    -501.36019369 Ry
     estimated scf accuracy    <       0.00051517 Ry

     iteration # 36     ecut=    30.00 Ry     beta= 0.50
     Davidson diagonalization with overlap
     ethr =  3.04E-08,  avg # of iterations =  2.0

     total cpu time spent up to now is        8.1 secs

     total energy              =    -501.36018633 Ry
     estimated scf accuracy    <       0.00045250 Ry

     iteration # 37     ecut=    30.00 Ry     beta= 0.50
     Davidson diagonalization with overlap
     c_bands:  1 eigenvalues not converged
     ethr =  3.04E-08,  avg # of iterations = 20.0

     total cpu time spent up to now is        8.2 secs

     total energy              =    -501.36017710 Ry
     estimated scf accuracy    <       0.00025155 Ry

     iteration # 38     ecut=    30.00 Ry     beta= 0.50
     Davidson diagonalization with overlap
     c_bands:  1 eigenvalues not converged
     ethr =  3.04E-08,  avg # of iterations = 20.0

     total cpu time spent up to now is        8.4 secs

     total energy              =    -501.36016445 Ry
     estimated scf accuracy    <       0.00011845 Ry

     iteration # 39     ecut=    30.00 Ry     beta= 0.50
     Davidson diagonalization with overlap
     c_bands:  2 eigenvalues not converged
     ethr =  3.04E-08,  avg # of iterations = 20.0

     total cpu time spent up to now is        8.6 secs

     total energy              =    -501.36017494 Ry
     estimated scf accuracy    <       0.00016998 Ry

     iteration # 40     ecut=    30.00 Ry     beta= 0.50
     Davidson diagonalization with overlap
     ethr =  3.04E-08,  avg # of iterations = 12.0

     total cpu time spent up to now is        8.7 secs

     total energy              =    -501.36017667 Ry
     estimated scf accuracy    <       0.00007481 Ry

     iteration # 41     ecut=    30.00 Ry     beta= 0.50
     Davidson diagonalization with overlap
     ethr =  2.92E-08,  avg # of iterations =  2.0

     total cpu time spent up to now is        8.7 secs

     total energy              =    -501.36017741 Ry
     estimated scf accuracy    <       0.00004553 Ry

     iteration # 42     ecut=    30.00 Ry     beta= 0.50
     Davidson diagonalization with overlap
     ethr =  1.78E-08,  avg # of iterations =  2.0

     total cpu time spent up to now is        8.8 secs

     total energy              =    -501.36017761 Ry
     estimated scf accuracy    <       0.00003645 Ry

     iteration # 43     ecut=    30.00 Ry     beta= 0.50
     Davidson diagonalization with overlap
     ethr =  1.42E-08,  avg # of iterations =  2.0

     total cpu time spent up to now is        8.9 secs

     total energy              =    -501.36016797 Ry
     estimated scf accuracy    <       0.00003101 Ry

     iteration # 44     ecut=    30.00 Ry     beta= 0.50
     Davidson diagonalization with overlap
     c_bands:  2 eigenvalues not converged
     ethr =  1.21E-08,  avg # of iterations = 20.0

     total cpu time spent up to now is        9.1 secs

     total energy              =    -501.36015148 Ry
     estimated scf accuracy    <       0.00220483 Ry

     iteration # 45     ecut=    30.00 Ry     beta= 0.50
     Davidson diagonalization with overlap
     c_bands:  2 eigenvalues not converged
     ethr =  1.21E-08,  avg # of iterations = 20.0

     total cpu time spent up to now is        9.2 secs

     total energy              =    -501.36018747 Ry
     estimated scf accuracy    <       0.00033620 Ry

     iteration # 46     ecut=    30.00 Ry     beta= 0.50
     Davidson diagonalization with overlap
     c_bands:  2 eigenvalues not converged
     ethr =  1.21E-08,  avg # of iterations = 20.0

     total cpu time spent up to now is        9.4 secs

     total energy              =    -501.36018497 Ry
     estimated scf accuracy    <       0.00027617 Ry

     iteration # 47     ecut=    30.00 Ry     beta= 0.50
     Davidson diagonalization with overlap
     ethr =  1.21E-08,  avg # of iterations =  3.0

     total cpu time spent up to now is        9.4 secs

     total energy              =    -501.36017626 Ry
     estimated scf accuracy    <       0.00024897 Ry

     iteration # 48     ecut=    30.00 Ry     beta= 0.50
     Davidson diagonalization with overlap
     c_bands:  2 eigenvalues not converged
     ethr =  1.21E-08,  avg # of iterations = 20.0

     total cpu time spent up to now is        9.6 secs

     total energy              =    -501.36018318 Ry
     estimated scf accuracy    <       0.00004110 Ry

     iteration # 49     ecut=    30.00 Ry     beta= 0.50
     Davidson diagonalization with overlap
     ethr =  1.21E-08,  avg # of iterations =  7.0

     total cpu time spent up to now is        9.7 secs

     total energy              =    -501.36018425 Ry
     estimated scf accuracy    <       0.00003454 Ry

     iteration # 50     ecut=    30.00 Ry     beta= 0.50
     Davidson diagonalization with overlap
     ethr =  1.21E-08,  avg # of iterations =  2.0

     total cpu time spent up to now is        9.8 secs

     total energy              =    -501.36018501 Ry
     estimated scf accuracy    <       0.00003384 Ry

     iteration # 51     ecut=    30.00 Ry     beta= 0.50
     Davidson diagonalization with overlap
     ethr =  1.21E-08,  avg # of iterations =  1.0

     total cpu time spent up to now is        9.8 secs

     total energy              =    -501.36018532 Ry
     estimated scf accuracy    <       0.00003476 Ry

     iteration # 52     ecut=    30.00 Ry     beta= 0.50
     Davidson diagonalization with overlap
     ethr =  1.21E-08,  avg # of iterations =  1.0

     total cpu time spent up to now is        9.9 secs

     total energy              =    -501.36018593 Ry
     estimated scf accuracy    <       0.00003536 Ry

     iteration # 53     ecut=    30.00 Ry     beta= 0.50
     Davidson diagonalization with overlap
     c_bands:  2 eigenvalues not converged
     ethr =  1.21E-08,  avg # of iterations = 20.0

     total cpu time spent up to now is       10.0 secs

     total energy              =    -501.36019322 Ry
     estimated scf accuracy    <       0.00019784 Ry

     iteration # 54     ecut=    30.00 Ry     beta= 0.50
     Davidson diagonalization with overlap
     c_bands:  1 eigenvalues not converged
     ethr =  1.21E-08,  avg # of iterations = 20.0

     total cpu time spent up to now is       10.2 secs

     total energy              =    -501.36019146 Ry
     estimated scf accuracy    <       0.00020503 Ry

     iteration # 55     ecut=    30.00 Ry     beta= 0.50
     Davidson diagonalization with overlap
     ethr =  1.21E-08,  avg # of iterations =  2.0

     total cpu time spent up to now is       10.3 secs

     total energy              =    -501.36018359 Ry
     estimated scf accuracy    <       0.00018041 Ry

     iteration # 56     ecut=    30.00 Ry     beta= 0.50
     Davidson diagonalization with overlap
     ethr =  1.21E-08,  avg # of iterations =  3.0

     total cpu time spent up to now is       10.3 secs

     total energy              =    -501.36013861 Ry
     estimated scf accuracy    <       0.00014331 Ry

     iteration # 57     ecut=    30.00 Ry     beta= 0.50
     Davidson diagonalization with overlap
     c_bands:  2 eigenvalues not converged
     ethr =  1.21E-08,  avg # of iterations = 20.0

     total cpu time spent up to now is       10.5 secs

     total energy              =    -501.36009854 Ry
     estimated scf accuracy    <       0.00313202 Ry

     iteration # 58     ecut=    30.00 Ry     beta= 0.50
     Davidson diagonalization with overlap
     c_bands:  2 eigenvalues not converged
     ethr =  1.21E-08,  avg # of iterations = 20.0

     total cpu time spent up to now is       10.7 secs

     total energy              =    -501.36013971 Ry
     estimated scf accuracy    <       0.00051262 Ry

     iteration # 59     ecut=    30.00 Ry     beta= 0.50
     Davidson diagonalization with overlap
     c_bands:  2 eigenvalues not converged
     ethr =  1.21E-08,  avg # of iterations = 20.0

     total cpu time spent up to now is       10.9 secs

     total energy              =    -501.36018007 Ry
     estimated scf accuracy    <       0.00002129 Ry

     iteration # 60     ecut=    30.00 Ry     beta= 0.50
     Davidson diagonalization with overlap
     c_bands:  2 eigenvalues not converged
     ethr =  8.32E-09,  avg # of iterations = 20.0

     total cpu time spent up to now is       11.0 secs

     total energy              =    -501.36018484 Ry
     estimated scf accuracy    <       0.00002016 Ry

     iteration # 61     ecut=    30.00 Ry     beta= 0.50
     Davidson diagonalization with overlap
     ethr =  7.88E-09,  avg # of iterations = 10.0

     total cpu time spent up to now is       11.1 secs

     total energy              =    -501.36018087 Ry
     estimated scf accuracy    <       0.00001931 Ry

     iteration # 62     ecut=    30.00 Ry     beta= 0.50
     Davidson diagonalization with overlap
     c_bands:  2 eigenvalues not converged
     ethr =  7.54E-09,  avg # of iterations = 20.0

     total cpu time spent up to now is       11.3 secs

     total energy              =    -501.36018023 Ry
     estimated scf accuracy    <       0.00014967 Ry

     iteration # 63     ecut=    30.00 Ry     beta= 0.50
     Davidson diagonalization with overlap
     c_bands:  1 eigenvalues not converged
     ethr =  7.54E-09,  avg # of iterations = 20.0

     total cpu time spent up to now is       11.4 secs

     total energy              =    -501.36018214 Ry
     estimated scf accuracy    <       0.00006567 Ry

     iteration # 64     ecut=    30.00 Ry     beta= 0.50
     Davidson diagonalization with overlap
     c_bands:  1 eigenvalues not converged
     ethr =  7.54E-09,  avg # of iterations = 20.0

     total cpu time spent up to now is       11.6 secs

     total energy              =    -501.36018278 Ry
     estimated scf accuracy    <       0.00003894 Ry

     iteration # 65     ecut=    30.00 Ry     beta= 0.50
     Davidson diagonalization with overlap
     ethr =  7.54E-09,  avg # of iterations =  2.0

     total cpu time spent up to now is       11.7 secs

     total energy              =    -501.36018266 Ry
     estimated scf accuracy    <       0.00003558 Ry

     iteration # 66     ecut=    30.00 Ry     beta= 0.50
     Davidson diagonalization with overlap
     ethr =  7.54E-09,  avg # of iterations =  1.0

     total cpu time spent up to now is       11.7 secs

     total energy              =    -501.36018248 Ry
     estimated scf accuracy    <       0.00003365 Ry

     iteration # 67     ecut=    30.00 Ry     beta= 0.50
     Davidson diagonalization with overlap
     ethr =  7.54E-09,  avg # of iterations =  3.0

     total cpu time spent up to now is       11.8 secs

     total energy              =    -501.36018070 Ry
     estimated scf accuracy    <       0.00002894 Ry

     iteration # 68     ecut=    30.00 Ry     beta= 0.50
     Davidson diagonalization with overlap
     c_bands:  1 eigenvalues not converged
     ethr =  7.54E-09,  avg # of iterations = 20.0

     total cpu time spent up to now is       12.0 secs

     total energy              =    -501.36018073 Ry
     estimated scf accuracy    <       0.00004768 Ry

     iteration # 69     ecut=    30.00 Ry     beta= 0.50
     Davidson diagonalization with overlap
     ethr =  7.54E-09,  avg # of iterations = 11.0

     total cpu time spent up to now is       12.1 secs

     total energy              =    -501.36018181 Ry
     estimated scf accuracy    <       0.00004387 Ry

     iteration # 70     ecut=    30.00 Ry     beta= 0.50
     Davidson diagonalization with overlap
     ethr =  7.54E-09,  avg # of iterations =  3.0

     total cpu time spent up to now is       12.2 secs

     total energy              =    -501.36018258 Ry
     estimated scf accuracy    <       0.00002340 Ry

     iteration # 71     ecut=    30.00 Ry     beta= 0.50
     Davidson diagonalization with overlap
     c_bands:  1 eigenvalues not converged
     ethr =  7.54E-09,  avg # of iterations = 20.0

     total cpu time spent up to now is       12.3 secs

     total energy              =    -501.36018383 Ry
     estimated scf accuracy    <       0.00001144 Ry

     iteration # 72     ecut=    30.00 Ry     beta= 0.50
     Davidson diagonalization with overlap
     ethr =  4.47E-09,  avg # of iterations = 13.0

     total cpu time spent up to now is       12.4 secs

     total energy              =    -501.36018426 Ry
     estimated scf accuracy    <       0.00000977 Ry

     iteration # 73     ecut=    30.00 Ry     beta= 0.50
     Davidson diagonalization with overlap
     ethr =  3.82E-09,  avg # of iterations =  1.0

     total cpu time spent up to now is       12.5 secs

     total energy              =    -501.36018409 Ry
     estimated scf accuracy    <       0.00000934 Ry

     iteration # 74     ecut=    30.00 Ry     beta= 0.50
     Davidson diagonalization with overlap
     ethr =  3.65E-09,  avg # of iterations =  1.0

     total cpu time spent up to now is       12.6 secs

     total energy              =    -501.36018388 Ry
     estimated scf accuracy    <       0.00000858 Ry

     iteration # 75     ecut=    30.00 Ry     beta= 0.50
     Davidson diagonalization with overlap
     ethr =  3.35E-09,  avg # of iterations =  1.0

     total cpu time spent up to now is       12.6 secs

     total energy              =    -501.36018338 Ry
     estimated scf accuracy    <       0.00000756 Ry

     iteration # 76     ecut=    30.00 Ry     beta= 0.50
     Davidson diagonalization with overlap
     ethr =  2.95E-09,  avg # of iterations =  3.0

     total cpu time spent up to now is       12.7 secs

     total energy              =    -501.36018193 Ry
     estimated scf accuracy    <       0.00000520 Ry

     iteration # 77     ecut=    30.00 Ry     beta= 0.50
     Davidson diagonalization with overlap
     c_bands:  2 eigenvalues not converged
     ethr =  2.03E-09,  avg # of iterations = 20.0

     total cpu time spent up to now is       12.9 secs

     total energy              =    -501.36018314 Ry
     estimated scf accuracy    <       0.00017927 Ry

     iteration # 78     ecut=    30.00 Ry     beta= 0.50
     Davidson diagonalization with overlap
     c_bands:  2 eigenvalues not converged
     ethr =  2.03E-09,  avg # of iterations = 20.0

     total cpu time spent up to now is       13.0 secs

     total energy              =    -501.36018091 Ry
     estimated scf accuracy    <       0.00007888 Ry

     iteration # 79     ecut=    30.00 Ry     beta= 0.50
     Davidson diagonalization with overlap
     c_bands:  2 eigenvalues not converged
     ethr =  2.03E-09,  avg # of iterations = 20.0

     total cpu time spent up to now is       13.2 secs

     total energy              =    -501.36018099 Ry
     estimated scf accuracy    <       0.00002380 Ry

     iteration # 80     ecut=    30.00 Ry     beta= 0.50
     Davidson diagonalization with overlap
     c_bands:  2 eigenvalues not converged
     ethr =  2.03E-09,  avg # of iterations = 20.0

     total cpu time spent up to now is       13.4 secs

     total energy              =    -501.36018367 Ry
     estimated scf accuracy    <       0.00000389 Ry

     iteration # 81     ecut=    30.00 Ry     beta= 0.50
     Davidson diagonalization with overlap
     ethr =  1.52E-09,  avg # of iterations = 18.0

     total cpu time spent up to now is       13.5 secs

     total energy              =    -501.36018405 Ry
     estimated scf accuracy    <       0.00000187 Ry

     iteration # 82     ecut=    30.00 Ry     beta= 0.50
     Davidson diagonalization with overlap
     ethr =  7.32E-10,  avg # of iterations =  2.0

     total cpu time spent up to now is       13.6 secs

     total energy              =    -501.36018403 Ry
     estimated scf accuracy    <       0.00000117 Ry

     iteration # 83     ecut=    30.00 Ry     beta= 0.50
     Davidson diagonalization with overlap
     ethr =  4.56E-10,  avg # of iterations =  2.0

     total cpu time spent up to now is       13.6 secs

     End of self-consistent calculation

          k = 0.0000 0.0000 0.0000 ( 11288 PWs)   bands (ev):

    -5.3190  -4.3730  -4.1443  -4.1095  -4.0071  -3.9260  -3.8961  -3.2468
    -3.1442  -3.0682  -3.0114  -2.9081  -2.8453  -2.8238  -2.7597  -2.7381
    -2.6308  -2.5392  -2.4854  -1.9108  -1.8630  -1.8022  -1.6625  -1.6152
    -1.5268  -1.4330  -1.2347  -0.8922  -0.7268  -0.6614  -0.4767  -0.4410
    -0.1109  -0.0424   0.0632   0.1473   0.1873   0.2334   0.3343   0.4347
     0.4998   0.5636   0.6553   0.7114   0.7605   0.7956   0.9564   1.0471
     1.0979   1.1872   1.2872   1.3211   1.4230   1.5244   1.5851   1.7172
     1.8408   1.8537   1.9395   2.0625   2.0877   2.3146   2.3484   2.4719
     2.5740   2.6893   2.7209   2.7764   2.8514   2.9066   2.9983   3.1201
     3.1804   3.2117   3.2658   3.4262   3.4409   3.5094   3.6494   3.7214
     3.8004   4.2922   4.3340   4.4475   4.5379   4.6629   4.7273   4.7401
     4.8068   4.8811   4.9626   5.0727   5.1440   5.1742   5.2102   5.2924
     5.3579   5.4445   5.5454   5.5547   5.6204   5.6547   5.7165   5.7473
     5.8503   5.9040   5.9375   6.0307   6.0665   6.0951   6.1339   6.1840
     6.2907   6.3049   6.3682   6.4240   6.4872   6.6129   6.6260   6.6600
     6.7264   6.8013   6.8342   6.8459   6.9646   7.0055   7.1684   7.1726

     highest occupied level (ev):     7.1726

!    total energy              =    -501.36018341 Ry
     estimated scf accuracy    <       0.00000080 Ry

     The total energy is the sum of the following terms:
     one-electron contribution =     191.98840799 Ry
     hartree contribution      =      22.65427177 Ry
     xc contribution           =    -150.49086821 Ry
     ewald contribution        =    -565.51199495 Ry

     convergence has been achieved in  83 iterations

     Forces acting on atoms (cartesian axes, Ry/au):

     atom    1 type  1   force =     0.00335918   -0.00201671    0.00944191
     atom    2 type  1   force =     0.00341344    0.00235498   -0.00661210
     atom    3 type  1   force =     0.00503710   -0.01901717    0.02874307
     atom    4 type  1   force =    -0.03814312   -0.01176829    0.01369519
     atom    5 type  1   force =     0.01006286   -0.00658598    0.01999423
     atom    6 type  1   force =    -0.00885258   -0.02078672    0.03754224
     atom    7 type  1   force =    -0.00002986    0.01388628   -0.04944707
     atom    8 type  1   force =    -0.01692135    0.01455072   -0.03417119
     atom    9 type  1   force =     0.04759061   -0.00498488    0.02659385
     atom   10 type  1   force =     0.00377402    0.06772291   -0.02549975
     atom   11 type  1   force =     0.01189931    0.00996521    0.00312422
     atom   12 type  1   force =    -0.00535568    0.00394599   -0.01072327
     atom   13 type  1   force =     0.04498219    0.02335726    0.00867099
     atom   14 type  1   force =    -0.01182714    0.03509014   -0.03596586
     atom   15 type  1   force =    -0.03000640   -0.01068189    0.01066001
     atom   16 type  1   force =     0.02699391   -0.02529917    0.00145035
     atom   17 type  1   force =    -0.02186636    0.00921485    0.00607126
     atom   18 type  1   force =     0.00377408   -0.02728497    0.01231810
     atom   19 type  1   force =    -0.00014087   -0.00682907    0.02294560
     atom   20 type  1   force =    -0.02537971   -0.00156468   -0.02156043
     atom   21 type  1   force =     0.00165078   -0.00654508   -0.00439037
     atom   22 type  1   force =     0.02043893    0.00387940   -0.04982210
     atom   23 type  1   force =     0.01768649   -0.05751847   -0.01221967
     atom   24 type  1   force =    -0.00385892    0.00820649    0.02524189
     atom   25 type  1   force =    -0.01248064   -0.01250858    0.02146975
     atom   26 type  1   force =     0.04141138   -0.06099279   -0.00614542
     atom   27 type  1   force =    -0.02171643    0.02133422   -0.00155078
     atom   28 type  1   force =     0.03476448    0.01990059    0.01217962
     atom   29 type  1   force =    -0.00381450   -0.00172424   -0.02181552
     atom   30 type  1   force =     0.01673402   -0.04252030   -0.01506428
     atom   31 type  1   force =    -0.01993387    0.04044810    0.01047748
     atom   32 type  1   force =    -0.01119503    0.01505269   -0.00230383
     atom   33 type  1   force =     0.00297232    0.00637912    0.00405496
     atom   34 type  1   force =    -0.03995948   -0.01235457   -0.01935187
     atom   35 type  1   force =     0.00861665   -0.01078773   -0.03224522
     atom   36 type  1   force =    -0.00081799    0.00781764    0.01210563
     atom   37 type  1   force =    -0.00394973    0.03385531    0.01831870
     atom   38 type  1   force =    -0.00939736   -0.04965248    0.01327173
     atom   39 type  1   force =    -0.00110442   -0.01397384   -0.00531097
     atom   40 type  1   force =     0.00767169    0.01677411    0.00967740
     atom   41 type  1   force =     0.01074628   -0.00138445    0.00746042
     atom   42 type  1   force =     0.01218903    0.01355036   -0.01568127
     atom   43 type  1   force =     0.03926659   -0.01908141    0.03266279
     atom   44 type  1   force =    -0.03050751   -0.00933423    0.02351221
     atom   45 type  1   force =    -0.04976045    0.02406927   -0.00474647
     atom   46 type  1   force =     0.02854138    0.03644337   -0.00929906
     atom   47 type  1   force =    -0.02727174    0.00584772    0.03760284
     atom   48 type  1   force =     0.01462930   -0.00122235   -0.03138681
     atom   49 type  1   force =     0.00446435   -0.06740736    0.00660001
     atom   50 type  1   force =    -0.02531802    0.03032526    0.01081255
     atom   51 type  1   force =     0.01838637    0.01578140    0.01693185
     atom   52 type  1   force =    -0.04062883    0.00336464   -0.00466525
     atom   53 type  1   force =    -0.01305376    0.00224123    0.02718720
     atom   54 type  1   force =    -0.00252757    0.00811110   -0.07141064
     atom   55 type  1   force =     0.00395951   -0.00086943    0.00369437
     atom   56 type  1   force =     0.01082227   -0.00967662    0.00371146
     atom   57 type  1   force =     0.01721910   -0.03475802   -0.00042686
     atom   58 type  1   force =     0.01190750    0.01487236    0.00848567
     atom   59 type  1   force =     0.01728372   -0.01791724    0.00002018
     atom   60 type  1   force =     0.01513247   -0.03517227   -0.01652335
     atom   61 type  1   force =     0.02052861    0.04080580   -0.01914199
     atom   62 type  1   force =    -0.01131764    0.01907409    0.03533363
     atom   63 type  1   force =    -0.05446950    0.01695305   -0.02971043
     atom   64 type  1   force =     0.00369653    0.01704530    0.01512846

     Total force =     0.319607     Total SCF correction =     0.001437


     Computing stress (Cartesian axis) and pressure

          total   stress  (Ry/bohr**3)                   (kbar)     P=      -41.82
  -0.00012703  -0.00005507  -0.00002291          -18.69       -8.10       -3.37
  -0.00005507  -0.00036584   0.00001475           -8.10      -53.82        2.17
  -0.00002291   0.00001475  -0.00036008           -3.37        2.17      -52.97

 
     init_run     :      0.92s CPU      4.04s WALL (       1 calls)
     electrons    :      8.99s CPU      9.54s WALL (       1 calls)
     forces       :      0.03s CPU      0.03s WALL (       1 calls)
     stress       :      0.12s CPU      0.12s WALL (       1 calls)

     Called by init_run:
     wfcinit      :      0.41s CPU      3.38s WALL (       1 calls)
                                        3.38s GPU  (       1 calls)
     potinit      :      0.04s CPU      0.12s WALL (       1 calls)
     hinit0       :      0.45s CPU      0.48s WALL (       1 calls)

     Called by electrons:
     c_bands      :      6.46s CPU      6.73s WALL (      84 calls)
     sum_band     :      1.16s CPU      1.36s WALL (      84 calls)
     v_of_rho     :      0.48s CPU      0.59s WALL (      84 calls)
     mix_rho      :      0.72s CPU      0.76s WALL (      84 calls)

     Called by c_bands:
     init_us_2    :      0.20s CPU      0.23s WALL (     169 calls)
     init_us_2:gp :      0.20s CPU      0.22s WALL (     169 calls)
     regterg      :      5.86s CPU      6.10s WALL (      84 calls)

     Called by *egterg:
     rdiaghg      :      3.02s CPU      3.72s WALL (     985 calls)
                                        3.57s GPU  (     985 calls)
     h_psi        :      2.40s CPU      4.86s WALL (     987 calls)
                                        4.84s GPU  (     987 calls)
     g_psi        :      0.00s CPU      0.02s WALL (     902 calls)
                                        0.01s GPU  (     902 calls)

     Called by h_psi:
     h_psi:calbec :      0.61s CPU      2.93s WALL (     987 calls)
                                        2.93s GPU  (     987 calls)
     vloc_psi     :      1.31s CPU      1.44s WALL (     987 calls)
                                        1.42s GPU  (     987 calls)
     add_vuspsi   :      0.35s CPU      0.44s WALL (     987 calls)
                                        0.44s GPU  (     987 calls)

     General routines
     calbec       :      0.60s CPU      2.92s WALL (     992 calls)
     fft          :      0.84s CPU      0.99s WALL (     679 calls)
                                        0.16s GPU  (     426 calls)
     ffts         :      0.14s CPU      0.16s WALL (      84 calls)
     fftw         :      1.56s CPU      1.95s WALL (    8474 calls)
                                        1.70s GPU  (    8474 calls)
 
     Parallel routines
 
     PWSCF        :     10.09s CPU     13.81s WALL

 
   This run was terminated on:  15:17: 6   9May2023            

=------------------------------------------------------------------------------=
   JOB DONE.
=------------------------------------------------------------------------------=
