An instance of this daemon is already running
An instance of this daemon is already running

     Program PWSCF v.7.1 starts on  9May2023 at 15:23: 3 

     This program is part of the open-source Quantum ESPRESSO suite
     for quantum simulation of materials; please cite
         "P. Giannozzi et al., J. Phys.:Condens. Matter 21 395502 (2009);
         "P. Giannozzi et al., J. Phys.:Condens. Matter 29 465901 (2017);
         "P. Giannozzi et al., J. Chem. Phys. 152 154105 (2020);
          URL http://www.quantum-espresso.org", 
     in publications or presentations arising from this work. More details at
     http://www.quantum-espresso.org/quote

     Parallel version (MPI & OpenMP), running on       4 processor cores
     Number of MPI processes:                 4
     Threads/MPI process:                     1

     MPI processes distributed on     1 nodes
     48531 MiB available memory on the printing compute node when the environment starts
 
     Reading input from pw-si-87.in
Warning: card &CELL ignored
Warning: card / ignored

     Current dimensions of program PWSCF are:
     Max number of different atomic species (ntypx) = 10
     Max number of k-points (npk) =  40000
     Max angular momentum in pseudopotentials (lmaxx) =  4

     IMPORTANT: XC functional enforced from input :
     Exchange-correlation= PBE
                           (   1   4   3   4   0   0   0)
     Any further DFT definition will be discarded
     Please, verify this is what you really want


     gamma-point specific algorithms are used
 
     K-points division:     npool     =       2
     R & G space division:  proc/nbgrp/npool/nimage =       2
     Subspace diagonalization in iterative solution of the eigenvalue problem:
     a serial algorithm will be used

     Message from routine divide_et_impera:
     suboptimal parallelization: some nodes have no k-points
 
     Parallelization info
     --------------------
     sticks:   dense  smooth     PW     G-vecs:    dense   smooth      PW
     Min        1926    1926    504                89789    89789   12201
     Max        1927    1927    505                89790    89790   12204
     Sum        3853    3853   1009               179579   179579   24405
 
     Using Slab Decomposition
 


     bravais-lattice index     =            0
     lattice parameter (alat)  =      20.0805  a.u.
     unit-cell volume          =    8096.9464 (a.u.)^3
     number of atoms/cell      =           64
     number of atomic types    =            1
     number of electrons       =       256.00
     number of Kohn-Sham states=          128
     kinetic-energy cutoff     =      30.0000  Ry
     charge density cutoff     =     120.0000  Ry
     scf convergence threshold =      1.0E-06
     mixing beta               =       0.5000
     number of iterations used =            8  plain     mixing
     Exchange-correlation= PBE
                           (   1   4   3   4   0   0   0)

     GPU acceleration is ACTIVE.
     GPU-aware MPI enabled

     Message from routine print_cuda_info:
     High GPU oversubscription detected. Are you sure this is what you want?

     celldm(1)=  20.080464  celldm(2)=   0.000000  celldm(3)=   0.000000
     celldm(4)=   0.000000  celldm(5)=   0.000000  celldm(6)=   0.000000

     crystal axes: (cart. coord. in units of alat)
               a(1) = (   1.000000   0.000000   0.000000 )  
               a(2) = (   0.000000   1.000000   0.000000 )  
               a(3) = (   0.000000   0.000000   1.000000 )  

     reciprocal axes: (cart. coord. in units 2 pi/alat)
               b(1) = (  1.000000  0.000000  0.000000 )  
               b(2) = (  0.000000  1.000000  0.000000 )  
               b(3) = (  0.000000  0.000000  1.000000 )  


     PseudoPot. # 1 for Si read from file:
     /home/ppiaggi/pseudos/Si_ONCV_PBE_sr.upf
     MD5 check sum: 8553c464762ac42b85b1eed164b4d029
     Pseudo is Norm-conserving, Zval =  4.0
     Generated using ONCVPSP code by D. R. Hamann
     Using radial grid of 1510 points,  4 beta functions with: 
                l(1) =   0
                l(2) =   0
                l(3) =   1
                l(4) =   1

     atomic species   valence    mass     pseudopotential
        Si             4.00    28.08500     Si( 1.00)

     No symmetry found



   Cartesian axes

     site n.     atom                  positions (alat units)
         1           Si  tau(   1) = (   0.3952410   0.8816580   0.3789430  )
         2           Si  tau(   2) = (   0.6796840   0.6898820   0.7008360  )
         3           Si  tau(   3) = (   0.4632160   0.6641370   0.2857610  )
         4           Si  tau(   4) = (   0.3848560   0.4544780   0.3670500  )
         5           Si  tau(   5) = (   0.1280700   0.0541619   0.8425550  )
         6           Si  tau(   6) = (   0.0961990   0.6912790   0.6354610  )
         7           Si  tau(   7) = (   0.7341390   0.4305270   0.7150740  )
         8           Si  tau(   8) = (   0.5292900   0.2468490   0.5281410  )
         9           Si  tau(   9) = (   0.3286530   0.2319150   0.3612540  )
        10           Si  tau(  10) = (   0.6046350   0.2895700   0.1055250  )
        11           Si  tau(  11) = (   0.7780020   0.8166480   0.4521940  )
        12           Si  tau(  12) = (   0.0342455   0.8244520   0.4733750  )
        13           Si  tau(  13) = (   0.6123720   0.8084340   0.0614375  )
        14           Si  tau(  14) = (   0.7625940   0.4121100   0.5033160  )
        15           Si  tau(  15) = (   0.0621344   0.5766100   0.9695930  )
        16           Si  tau(  16) = (   0.3715730   0.1599540   0.8523510  )
        17           Si  tau(  17) = (   0.0767638   0.8357480   0.0894102  )
        18           Si  tau(  18) = (   0.6542370   0.0655289   0.7981890  )
        19           Si  tau(  19) = (   0.9839020   0.3429470   0.5123730  )
        20           Si  tau(  20) = (   0.8697650   0.1098500   0.5234710  )
        21           Si  tau(  21) = (   0.4091770   0.8525900   0.8552220  )
        22           Si  tau(  22) = (   0.5932870   0.2943860   0.7864740  )
        23           Si  tau(  23) = (   0.0000550   0.9548850   0.6553900  )
        24           Si  tau(  24) = (   0.3043210   0.3631940   0.1249160  )
        25           Si  tau(  25) = (   0.8027440   0.8701490   0.7535140  )
        26           Si  tau(  26) = (   0.0798289   0.6832870   0.2917810  )
        27           Si  tau(  27) = (   0.8675690   0.0212311   0.2011780  )
        28           Si  tau(  28) = (   0.4298860   0.1419260   0.1287260  )
        29           Si  tau(  29) = (   0.1722820   0.5317500   0.4469020  )
        30           Si  tau(  30) = (   0.9326480   0.6692350   0.8121610  )
        31           Si  tau(  31) = (   0.5489810   0.0396142   0.3062250  )
        32           Si  tau(  32) = (   0.7657820   0.5242080   0.9375730  )
        33           Si  tau(  33) = (   0.0311943   0.4141800   0.7867830  )
        34           Si  tau(  34) = (   0.9088090   0.1172270   0.9102920  )
        35           Si  tau(  35) = (   0.1762100   0.0690195   0.1000980  )
        36           Si  tau(  36) = (   0.8560450   0.8875760   0.9897390  )
        37           Si  tau(  37) = (   0.4966250   0.4039620   0.9687180  )
        38           Si  tau(  38) = (   0.3533890   0.8651770   0.1182990  )
        39           Si  tau(  39) = (   0.4780950   0.8021340   0.5586280  )
        40           Si  tau(  40) = (   0.6900990   0.8876190   0.2707330  )
        41           Si  tau(  41) = (   0.5333660   0.0227776   0.9862370  )
        42           Si  tau(  42) = (   0.3202830   0.5950490   0.9365000  )
        43           Si  tau(  43) = (   0.3102410   0.6405900   0.6734160  )
        44           Si  tau(  44) = (   0.9285450   0.5279620   0.2869450  )
        45           Si  tau(  45) = (   0.7190130   0.6155990   0.1908430  )
        46           Si  tau(  46) = (   0.4623980   0.4603410   0.6117800  )
        47           Si  tau(  47) = (   0.3991210   0.9762540   0.6784090  )
        48           Si  tau(  48) = (   0.9376740   0.3941360   0.0865737  )
        49           Si  tau(  49) = (   0.0872342   0.3103420   0.2819930  )
        50           Si  tau(  50) = (   0.2137180   0.3111190   0.5973710  )
        51           Si  tau(  51) = (   0.0216606   0.1131000   0.3405270  )
        52           Si  tau(  52) = (   0.1660200   0.8222930   0.8695710  )
        53           Si  tau(  53) = (   0.2802940   0.3855900   0.7879530  )
        54           Si  tau(  54) = (   0.2530560   0.6281450   0.1419580  )
        55           Si  tau(  55) = (   0.2123280   0.0733935   0.5786750  )
        56           Si  tau(  56) = (   0.5601030   0.6579470   0.8927110  )
        57           Si  tau(  57) = (   0.8667320   0.2459100   0.7257770  )
        58           Si  tau(  58) = (   0.6092990   0.6300770   0.4724690  )
        59           Si  tau(  59) = (   0.1344140   0.2688810   0.9879430  )
        60           Si  tau(  60) = (   0.6857210   0.1953650   0.3849590  )
        61           Si  tau(  61) = (   0.6626380   0.0058445   0.5793830  )
        62           Si  tau(  62) = (   0.1926150   0.9486990   0.3887670  )
        63           Si  tau(  63) = (   0.6117810   0.4345610   0.2807940  )
        64           Si  tau(  64) = (   0.8173760   0.2148540   0.0966825  )

     number of k points=     1
                       cart. coord. in units 2pi/alat
        k(    1) = (   0.0000000   0.0000000   0.0000000), wk =   2.0000000

     Dense  grid:    89790 G-vectors     FFT dimensions: (  72,  72,  72)

     Estimated max dynamical RAM per process >     132.47 MB

     Estimated total dynamical RAM >     507.96 MB

     Initial potential from superposition of free atoms

     starting charge     255.9608, renormalised to     256.0000
     Starting wfcs are  256 randomized atomic wfcs

     total cpu time spent up to now is        4.0 secs

     Self-consistent Calculation

     iteration #  1     ecut=    30.00 Ry     beta= 0.50
     Davidson diagonalization with overlap
     ethr =  1.00E-02,  avg # of iterations =  2.0

     Threshold (ethr) on eigenvalues was too large:
     Diagonalizing with lowered threshold

     Davidson diagonalization with overlap
     ethr =  3.82E-04,  avg # of iterations =  8.0

     total cpu time spent up to now is        4.2 secs

     total energy              =    -500.96737608 Ry
     estimated scf accuracy    <       1.24776509 Ry

     iteration #  2     ecut=    30.00 Ry     beta= 0.50
     Davidson diagonalization with overlap
     ethr =  4.87E-04,  avg # of iterations = 11.0

     total cpu time spent up to now is        4.4 secs

     total energy              =    -500.35574933 Ry
     estimated scf accuracy    <       7.83116619 Ry

     iteration #  3     ecut=    30.00 Ry     beta= 0.50
     Davidson diagonalization with overlap
     ethr =  4.87E-04,  avg # of iterations = 13.0

     total cpu time spent up to now is        4.5 secs

     total energy              =    -501.06263581 Ry
     estimated scf accuracy    <       2.21393255 Ry

     iteration #  4     ecut=    30.00 Ry     beta= 0.50
     Davidson diagonalization with overlap
     ethr =  4.87E-04,  avg # of iterations =  6.0

     total cpu time spent up to now is        4.6 secs

     total energy              =    -501.20596444 Ry
     estimated scf accuracy    <       0.40010404 Ry

     iteration #  5     ecut=    30.00 Ry     beta= 0.50
     Davidson diagonalization with overlap
     ethr =  1.56E-04,  avg # of iterations =  9.0

     total cpu time spent up to now is        4.7 secs

     total energy              =    -501.23965384 Ry
     estimated scf accuracy    <       0.25543784 Ry

     iteration #  6     ecut=    30.00 Ry     beta= 0.50
     Davidson diagonalization with overlap
     ethr =  9.98E-05,  avg # of iterations = 11.0

     total cpu time spent up to now is        4.8 secs

     total energy              =    -501.26521304 Ry
     estimated scf accuracy    <       0.11119666 Ry

     iteration #  7     ecut=    30.00 Ry     beta= 0.50
     Davidson diagonalization with overlap
     ethr =  4.34E-05,  avg # of iterations =  6.0

     total cpu time spent up to now is        4.9 secs

     total energy              =    -501.26768681 Ry
     estimated scf accuracy    <       0.03830055 Ry

     iteration #  8     ecut=    30.00 Ry     beta= 0.50
     Davidson diagonalization with overlap
     ethr =  1.50E-05,  avg # of iterations =  9.0

     total cpu time spent up to now is        5.0 secs

     total energy              =    -501.27225097 Ry
     estimated scf accuracy    <       0.00827029 Ry

     iteration #  9     ecut=    30.00 Ry     beta= 0.50
     Davidson diagonalization with overlap
     ethr =  3.23E-06,  avg # of iterations = 11.0

     total cpu time spent up to now is        5.2 secs

     total energy              =    -501.27372578 Ry
     estimated scf accuracy    <       0.00824220 Ry

     iteration # 10     ecut=    30.00 Ry     beta= 0.50
     Davidson diagonalization with overlap
     ethr =  3.22E-06,  avg # of iterations =  3.0

     total cpu time spent up to now is        5.2 secs

     total energy              =    -501.27355149 Ry
     estimated scf accuracy    <       0.00337580 Ry

     iteration # 11     ecut=    30.00 Ry     beta= 0.50
     Davidson diagonalization with overlap
     ethr =  1.32E-06,  avg # of iterations =  9.0

     total cpu time spent up to now is        5.4 secs

     total energy              =    -501.27405475 Ry
     estimated scf accuracy    <       0.00058796 Ry

     iteration # 12     ecut=    30.00 Ry     beta= 0.50
     Davidson diagonalization with overlap
     ethr =  2.30E-07,  avg # of iterations = 11.0

     total cpu time spent up to now is        5.5 secs

     total energy              =    -501.27407833 Ry
     estimated scf accuracy    <       0.00124272 Ry

     iteration # 13     ecut=    30.00 Ry     beta= 0.50
     Davidson diagonalization with overlap
     ethr =  2.30E-07,  avg # of iterations =  3.0

     total cpu time spent up to now is        5.6 secs

     total energy              =    -501.27408075 Ry
     estimated scf accuracy    <       0.00052314 Ry

     iteration # 14     ecut=    30.00 Ry     beta= 0.50
     Davidson diagonalization with overlap
     ethr =  2.04E-07,  avg # of iterations =  2.0

     total cpu time spent up to now is        5.6 secs

     total energy              =    -501.27409386 Ry
     estimated scf accuracy    <       0.00016521 Ry

     iteration # 15     ecut=    30.00 Ry     beta= 0.50
     Davidson diagonalization with overlap
     ethr =  6.45E-08,  avg # of iterations = 12.0

     total cpu time spent up to now is        5.8 secs

     total energy              =    -501.27411831 Ry
     estimated scf accuracy    <       0.00002552 Ry

     iteration # 16     ecut=    30.00 Ry     beta= 0.50
     Davidson diagonalization with overlap
     ethr =  9.97E-09,  avg # of iterations =  8.0

     total cpu time spent up to now is        5.9 secs

     total energy              =    -501.27412161 Ry
     estimated scf accuracy    <       0.00002587 Ry

     iteration # 17     ecut=    30.00 Ry     beta= 0.50
     Davidson diagonalization with overlap
     ethr =  9.97E-09,  avg # of iterations =  2.0

     total cpu time spent up to now is        6.0 secs

     total energy              =    -501.27412137 Ry
     estimated scf accuracy    <       0.00001939 Ry

     iteration # 18     ecut=    30.00 Ry     beta= 0.50
     Davidson diagonalization with overlap
     ethr =  7.57E-09,  avg # of iterations =  2.0

     total cpu time spent up to now is        6.0 secs

     total energy              =    -501.27412123 Ry
     estimated scf accuracy    <       0.00001065 Ry

     iteration # 19     ecut=    30.00 Ry     beta= 0.50
     Davidson diagonalization with overlap
     ethr =  4.16E-09,  avg # of iterations =  3.0

     total cpu time spent up to now is        6.1 secs

     total energy              =    -501.27412118 Ry
     estimated scf accuracy    <       0.00000398 Ry

     iteration # 20     ecut=    30.00 Ry     beta= 0.50
     Davidson diagonalization with overlap
     ethr =  1.56E-09,  avg # of iterations = 13.0

     total cpu time spent up to now is        6.2 secs

     total energy              =    -501.27412199 Ry
     estimated scf accuracy    <       0.00000436 Ry

     iteration # 21     ecut=    30.00 Ry     beta= 0.50
     Davidson diagonalization with overlap
     ethr =  1.56E-09,  avg # of iterations =  3.0

     total cpu time spent up to now is        6.3 secs

     total energy              =    -501.27412212 Ry
     estimated scf accuracy    <       0.00000231 Ry

     iteration # 22     ecut=    30.00 Ry     beta= 0.50
     Davidson diagonalization with overlap
     ethr =  9.03E-10,  avg # of iterations =  2.0

     total cpu time spent up to now is        6.4 secs

     total energy              =    -501.27412209 Ry
     estimated scf accuracy    <       0.00000154 Ry

     iteration # 23     ecut=    30.00 Ry     beta= 0.50
     Davidson diagonalization with overlap
     ethr =  6.01E-10,  avg # of iterations =  7.0

     total cpu time spent up to now is        6.5 secs

     End of self-consistent calculation

          k = 0.0000 0.0000 0.0000 ( 11288 PWs)   bands (ev):

    -5.2733  -4.2643  -4.2131  -4.2045  -4.0741  -4.0002  -3.7500  -3.3091
    -3.2491  -3.1448  -3.0476  -3.0337  -2.8991  -2.8424  -2.7719  -2.7522
    -2.6395  -2.5042  -2.3722  -2.1760  -2.0567  -1.9110  -1.6539  -1.5678
    -1.4735  -1.2595  -1.1093  -0.9140  -0.7738  -0.6517  -0.4626  -0.3840
    -0.2358  -0.1149   0.0182   0.1294   0.1601   0.3216   0.3760   0.4241
     0.4828   0.5627   0.6791   0.6948   0.7789   0.8761   0.9442   1.0038
     1.1232   1.2307   1.2747   1.3298   1.4127   1.4793   1.5470   1.7326
     1.8556   1.9236   2.0604   2.1296   2.2794   2.3186   2.3889   2.4548
     2.5772   2.6263   2.6888   2.8267   2.8899   2.9459   3.0029   3.0791
     3.1458   3.1985   3.2550   3.3326   3.3784   3.5002   3.6297   3.6814
     3.9718   4.1063   4.4013   4.4905   4.5676   4.6186   4.6335   4.7069
     4.8280   4.8473   4.8949   5.0150   5.0578   5.1722   5.1897   5.2865
     5.3112   5.3731   5.4639   5.5543   5.5895   5.7171   5.7336   5.7761
     5.8570   5.8863   6.0093   6.0498   6.0993   6.1337   6.2005   6.2805
     6.3058   6.3324   6.4757   6.5187   6.5715   6.6369   6.6706   6.7375
     6.7942   6.8515   6.9044   6.9190   6.9889   7.0709   7.0910   7.1992

     highest occupied level (ev):     7.1992

!    total energy              =    -501.27412155 Ry
     estimated scf accuracy    <       0.00000064 Ry

     The total energy is the sum of the following terms:
     one-electron contribution =     194.04067317 Ry
     hartree contribution      =      21.81055060 Ry
     xc contribution           =    -150.74590113 Ry
     ewald contribution        =    -566.37944419 Ry

     convergence has been achieved in  23 iterations

     Forces acting on atoms (cartesian axes, Ry/au):

     atom    1 type  1   force =     0.01844030   -0.00035140   -0.07489904
     atom    2 type  1   force =    -0.01956604   -0.01944580    0.00048644
     atom    3 type  1   force =    -0.00012045    0.01249581    0.00132510
     atom    4 type  1   force =     0.01470969   -0.00073435   -0.00570403
     atom    5 type  1   force =    -0.00625614   -0.02341500   -0.00648030
     atom    6 type  1   force =     0.01404539   -0.02116111    0.03941356
     atom    7 type  1   force =     0.03200274    0.06567013    0.02825404
     atom    8 type  1   force =    -0.03515646    0.00035193    0.02016655
     atom    9 type  1   force =    -0.01342094    0.00138272    0.00323960
     atom   10 type  1   force =     0.03554564   -0.04208737    0.05516497
     atom   11 type  1   force =     0.00082341   -0.00998584    0.03687457
     atom   12 type  1   force =    -0.03587193   -0.01067090   -0.00976382
     atom   13 type  1   force =     0.02604740    0.00974913    0.03106811
     atom   14 type  1   force =    -0.00058685    0.00446260   -0.06678761
     atom   15 type  1   force =    -0.00428761   -0.01734499    0.02946428
     atom   16 type  1   force =    -0.01948039    0.02431553    0.01235257
     atom   17 type  1   force =    -0.01215923    0.00842839   -0.00606784
     atom   18 type  1   force =     0.00803556    0.02829259    0.00753496
     atom   19 type  1   force =     0.01540164   -0.01578274   -0.00879025
     atom   20 type  1   force =     0.00394613    0.01865296    0.01404907
     atom   21 type  1   force =    -0.01549012   -0.02652914    0.03898702
     atom   22 type  1   force =    -0.07089142   -0.05530008    0.01052903
     atom   23 type  1   force =    -0.01651737    0.02682726    0.02243117
     atom   24 type  1   force =    -0.00612939    0.00118052    0.02326732
     atom   25 type  1   force =     0.02038865    0.00689548    0.01990582
     atom   26 type  1   force =     0.02334437    0.01722135   -0.02836187
     atom   27 type  1   force =    -0.00102151   -0.00990566   -0.01005632
     atom   28 type  1   force =    -0.01959558    0.01488214    0.03943148
     atom   29 type  1   force =     0.01878804   -0.03476965    0.03440770
     atom   30 type  1   force =    -0.02413244   -0.01345711   -0.00869607
     atom   31 type  1   force =    -0.06163365    0.01188081   -0.00341122
     atom   32 type  1   force =     0.00587313    0.00822212   -0.00515152
     atom   33 type  1   force =     0.02510840   -0.01081107    0.01429913
     atom   34 type  1   force =    -0.01531750   -0.02550592   -0.00028589
     atom   35 type  1   force =     0.01754920   -0.03349801    0.00934669
     atom   36 type  1   force =     0.00362202    0.01762043   -0.00707699
     atom   37 type  1   force =    -0.02349349    0.03003115   -0.06901197
     atom   38 type  1   force =    -0.00756077   -0.00905597    0.00450951
     atom   39 type  1   force =     0.01843155   -0.04827359    0.04787182
     atom   40 type  1   force =     0.03110882    0.00044283   -0.05275690
     atom   41 type  1   force =     0.00613388   -0.04447353   -0.04048547
     atom   42 type  1   force =     0.00837195   -0.00154491   -0.05122954
     atom   43 type  1   force =     0.02676302    0.00327540   -0.00668857
     atom   44 type  1   force =    -0.04549935   -0.02714828   -0.02644753
     atom   45 type  1   force =     0.01384042   -0.00206950   -0.00402476
     atom   46 type  1   force =    -0.01264048    0.01350666   -0.00109950
     atom   47 type  1   force =     0.00100432    0.04522071   -0.00379803
     atom   48 type  1   force =     0.03820955    0.06694993    0.00958809
     atom   49 type  1   force =     0.03277551    0.01971456   -0.00218761
     atom   50 type  1   force =    -0.03121008   -0.01099081   -0.05678584
     atom   51 type  1   force =     0.00464294   -0.03165853   -0.00062446
     atom   52 type  1   force =     0.03068908   -0.00232841   -0.00943070
     atom   53 type  1   force =     0.00161399    0.00602282    0.03109634
     atom   54 type  1   force =     0.01121232    0.01091285    0.03749425
     atom   55 type  1   force =     0.00795939    0.00923146    0.00876735
     atom   56 type  1   force =    -0.01942676   -0.00003339   -0.00227728
     atom   57 type  1   force =     0.01884369   -0.00382774   -0.02667677
     atom   58 type  1   force =    -0.00894960    0.01214635    0.00849397
     atom   59 type  1   force =     0.01388526    0.02672289   -0.02288863
     atom   60 type  1   force =     0.04273678    0.00604636   -0.00096703
     atom   61 type  1   force =     0.00717263   -0.00296608   -0.04009850
     atom   62 type  1   force =    -0.03104533    0.06324186    0.01587828
     atom   63 type  1   force =    -0.00671514   -0.01426033    0.01568985
     atom   64 type  1   force =    -0.03489081   -0.02261051   -0.01237675

     Total force =     0.355237     Total SCF correction =     0.001617


     Computing stress (Cartesian axis) and pressure

          total   stress  (Ry/bohr**3)                   (kbar)     P=      -32.67
  -0.00033340  -0.00002132  -0.00000847          -49.04       -3.14       -1.25
  -0.00002132  -0.00020728  -0.00000197           -3.14      -30.49       -0.29
  -0.00000847  -0.00000197  -0.00012557           -1.25       -0.29      -18.47

 
     init_run     :      0.94s CPU      3.98s WALL (       1 calls)
     electrons    :      2.23s CPU      2.43s WALL (       1 calls)
     forces       :      0.03s CPU      0.03s WALL (       1 calls)
     stress       :      0.12s CPU      0.12s WALL (       1 calls)

     Called by init_run:
     wfcinit      :      0.43s CPU      3.31s WALL (       1 calls)
                                        3.31s GPU  (       1 calls)
     potinit      :      0.05s CPU      0.13s WALL (       1 calls)
     hinit0       :      0.45s CPU      0.47s WALL (       1 calls)

     Called by electrons:
     c_bands      :      1.54s CPU      1.65s WALL (      24 calls)
     sum_band     :      0.33s CPU      0.39s WALL (      24 calls)
     v_of_rho     :      0.15s CPU      0.24s WALL (      24 calls)
     mix_rho      :      0.18s CPU      0.19s WALL (      24 calls)

     Called by c_bands:
     init_us_2    :      0.06s CPU      0.07s WALL (      49 calls)
     init_us_2:gp :      0.06s CPU      0.06s WALL (      49 calls)
     regterg      :      1.37s CPU      1.47s WALL (      24 calls)

     Called by *egterg:
     rdiaghg      :      0.67s CPU      1.30s WALL (     189 calls)
                                        1.27s GPU  (     189 calls)
     h_psi        :      0.91s CPU      3.23s WALL (     191 calls)
                                        3.23s GPU  (     191 calls)
     g_psi        :      0.00s CPU      0.00s WALL (     166 calls)
                                        0.00s GPU  (     166 calls)

     Called by h_psi:
     h_psi:calbec :      0.42s CPU      2.68s WALL (     191 calls)
                                        2.67s GPU  (     191 calls)
     vloc_psi     :      0.39s CPU      0.46s WALL (     191 calls)
                                        0.45s GPU  (     191 calls)
     add_vuspsi   :      0.07s CPU      0.09s WALL (     191 calls)
                                        0.09s GPU  (     191 calls)

     General routines
     calbec       :      0.42s CPU      2.68s WALL (     196 calls)
     fft          :      0.57s CPU      0.69s WALL (     199 calls)
                                        0.12s GPU  (     126 calls)
     ffts         :      0.04s CPU      0.04s WALL (      24 calls)
     fftw         :      0.46s CPU      0.61s WALL (    2270 calls)
                                        0.53s GPU  (    2270 calls)
 
     Parallel routines
 
     PWSCF        :      3.36s CPU      6.63s WALL

 
   This run was terminated on:  15:23:10   9May2023            

=------------------------------------------------------------------------------=
   JOB DONE.
=------------------------------------------------------------------------------=
