
     Program PWSCF v.7.1 starts on  9May2023 at 15: 9:31 

     This program is part of the open-source Quantum ESPRESSO suite
     for quantum simulation of materials; please cite
         "P. Giannozzi et al., J. Phys.:Condens. Matter 21 395502 (2009);
         "P. Giannozzi et al., J. Phys.:Condens. Matter 29 465901 (2017);
         "P. Giannozzi et al., J. Chem. Phys. 152 154105 (2020);
          URL http://www.quantum-espresso.org", 
     in publications or presentations arising from this work. More details at
     http://www.quantum-espresso.org/quote

     Parallel version (MPI & OpenMP), running on       4 processor cores
     Number of MPI processes:                 4
     Threads/MPI process:                     1

     MPI processes distributed on     1 nodes
     72971 MiB available memory on the printing compute node when the environment starts
 
     Reading input from pw-si-24.in
Warning: card &CELL ignored
Warning: card / ignored

     Current dimensions of program PWSCF are:
     Max number of different atomic species (ntypx) = 10
     Max number of k-points (npk) =  40000
     Max angular momentum in pseudopotentials (lmaxx) =  4

     IMPORTANT: XC functional enforced from input :
     Exchange-correlation= PBE
                           (   1   4   3   4   0   0   0)
     Any further DFT definition will be discarded
     Please, verify this is what you really want


     gamma-point specific algorithms are used
 
     K-points division:     npool     =       2
     R & G space division:  proc/nbgrp/npool/nimage =       2
     Subspace diagonalization in iterative solution of the eigenvalue problem:
     a serial algorithm will be used

     Message from routine divide_et_impera:
     suboptimal parallelization: some nodes have no k-points
 
     Parallelization info
     --------------------
     sticks:   dense  smooth     PW     G-vecs:    dense   smooth      PW
     Min        1908    1908    502                89172    89172   12102
     Max        1909    1909    503                89177    89177   12105
     Sum        3817    3817   1005               178349   178349   24207
 
     Using Slab Decomposition
 


     bravais-lattice index     =            0
     lattice parameter (alat)  =      20.0336  a.u.
     unit-cell volume          =    8040.4014 (a.u.)^3
     number of atoms/cell      =           64
     number of atomic types    =            1
     number of electrons       =       256.00
     number of Kohn-Sham states=          128
     kinetic-energy cutoff     =      30.0000  Ry
     charge density cutoff     =     120.0000  Ry
     scf convergence threshold =      1.0E-06
     mixing beta               =       0.5000
     number of iterations used =            8  plain     mixing
     Exchange-correlation= PBE
                           (   1   4   3   4   0   0   0)

     GPU acceleration is ACTIVE.
     GPU-aware MPI enabled

     Message from routine print_cuda_info:
     High GPU oversubscription detected. Are you sure this is what you want?

     celldm(1)=  20.033611  celldm(2)=   0.000000  celldm(3)=   0.000000
     celldm(4)=   0.000000  celldm(5)=   0.000000  celldm(6)=   0.000000

     crystal axes: (cart. coord. in units of alat)
               a(1) = (   1.000000   0.000000   0.000000 )  
               a(2) = (   0.000000   1.000000   0.000000 )  
               a(3) = (   0.000000   0.000000   1.000000 )  

     reciprocal axes: (cart. coord. in units 2 pi/alat)
               b(1) = (  1.000000  0.000000  0.000000 )  
               b(2) = (  0.000000  1.000000  0.000000 )  
               b(3) = (  0.000000  0.000000  1.000000 )  


     PseudoPot. # 1 for Si read from file:
     /home/ppiaggi/pseudos/Si_ONCV_PBE_sr.upf
     MD5 check sum: 8553c464762ac42b85b1eed164b4d029
     Pseudo is Norm-conserving, Zval =  4.0
     Generated using ONCVPSP code by D. R. Hamann
     Using radial grid of 1510 points,  4 beta functions with: 
                l(1) =   0
                l(2) =   0
                l(3) =   1
                l(4) =   1

     atomic species   valence    mass     pseudopotential
        Si             4.00    28.08500     Si( 1.00)

     No symmetry found



   Cartesian axes

     site n.     atom                  positions (alat units)
         1           Si  tau(   1) = (   0.5092030   0.6344420   0.4722130  )
         2           Si  tau(   2) = (   0.6976770   0.9104930   0.9926480  )
         3           Si  tau(   3) = (   0.1557240   0.6369950   0.3490250  )
         4           Si  tau(   4) = (   0.9761000   0.1385310   0.0887461  )
         5           Si  tau(   5) = (   0.9467220   0.2292580   0.8077440  )
         6           Si  tau(   6) = (   0.4525480   0.2085170   0.1808270  )
         7           Si  tau(   7) = (   0.0707590   0.7750830   0.9567670  )
         8           Si  tau(   8) = (   0.1879000   0.4568440   0.5357890  )
         9           Si  tau(   9) = (   0.3106300   0.8797450   0.7386050  )
        10           Si  tau(  10) = (   0.2177220   0.4660190   0.0970841  )
        11           Si  tau(  11) = (   0.7220770   0.3984390   0.8340000  )
        12           Si  tau(  12) = (   0.2641230   0.9923570   0.5016640  )
        13           Si  tau(  13) = (   0.5713970   0.4219160   0.3386100  )
        14           Si  tau(  14) = (   0.0777208   0.5480360   0.9381650  )
        15           Si  tau(  15) = (   0.6504280   0.2008440   0.0455489  )
        16           Si  tau(  16) = (   0.9095300   0.4838760   0.7614210  )
        17           Si  tau(  17) = (   0.5323620   0.9915720   0.6624920  )
        18           Si  tau(  18) = (   0.4380970   0.1080630   0.9047360  )
        19           Si  tau(  19) = (   0.8547850   0.5904100   0.4239010  )
        20           Si  tau(  20) = (   0.4262880   0.2674240   0.6738730  )
        21           Si  tau(  21) = (   0.4626120   0.7032970   0.8658000  )
        22           Si  tau(  22) = (   0.7894090   0.3109590   0.3013290  )
        23           Si  tau(  23) = (   0.8828130   0.7590640   0.5530880  )
        24           Si  tau(  24) = (   0.0655233   0.9038620   0.2794130  )
        25           Si  tau(  25) = (   0.6248900   0.8421670   0.5308410  )
        26           Si  tau(  26) = (   0.3329840   0.5955510   0.6469490  )
        27           Si  tau(  27) = (   0.9999730   0.0341918   0.6349150  )
        28           Si  tau(  28) = (   0.4055540   0.2759850   0.4480970  )
        29           Si  tau(  29) = (   0.7376110   0.4045890   0.0687966  )
        30           Si  tau(  30) = (   0.4887010   0.9167160   0.9805040  )
        31           Si  tau(  31) = (   0.3684990   0.6498700   0.0920076  )
        32           Si  tau(  32) = (   0.7053350   0.6920850   0.2657990  )
        33           Si  tau(  33) = (   0.9708710   0.5806610   0.2247350  )
        34           Si  tau(  34) = (   0.4949190   0.4696620   0.7783530  )
        35           Si  tau(  35) = (   0.4625110   0.0747143   0.4448720  )
        36           Si  tau(  36) = (   0.1972970   0.1088070   0.3104420  )
        37           Si  tau(  37) = (   0.2387950   0.8774070   0.0605246  )
        38           Si  tau(  38) = (   0.2299150   0.3671440   0.3076110  )
        39           Si  tau(  39) = (   0.6547220   0.2018930   0.6319220  )
        40           Si  tau(  40) = (   0.7324070   0.1486770   0.8384500  )
        41           Si  tau(  41) = (   0.9625680   0.9774520   0.9191760  )
        42           Si  tau(  42) = (   0.9033590   0.7958270   0.1453680  )
        43           Si  tau(  43) = (   0.1678860   0.6959830   0.7352870  )
        44           Si  tau(  44) = (   0.5699230   0.5584240   0.1183080  )
        45           Si  tau(  45) = (   0.6510410   0.9112370   0.3038500  )
        46           Si  tau(  46) = (   0.8638260   0.9883430   0.4072910  )
        47           Si  tau(  47) = (   0.9950880   0.3391060   0.2613050  )
        48           Si  tau(  48) = (   0.1002200   0.7772140   0.5111660  )
        49           Si  tau(  49) = (   0.1757680   0.0082205   0.8431060  )
        50           Si  tau(  50) = (   0.2529590   0.1500440   0.0818103  )
        51           Si  tau(  51) = (   0.8947760   0.7170480   0.7727450  )
        52           Si  tau(  52) = (   0.4243900   0.3765210   0.0015384  )
        53           Si  tau(  53) = (   0.9817450   0.3879270   0.5691260  )
        54           Si  tau(  54) = (   0.6481390   0.6631390   0.7149570  )
        55           Si  tau(  55) = (   0.2320800   0.2946320   0.8905000  )
        56           Si  tau(  56) = (   0.7361270   0.6553090   0.9649500  )
        57           Si  tau(  57) = (   0.1748420   0.1978270   0.6363720  )
        58           Si  tau(  58) = (   0.3743400   0.7447160   0.3106020  )
        59           Si  tau(  59) = (   0.8282180   0.2029280   0.4999950  )
        60           Si  tau(  60) = (   0.4310970   0.9674110   0.2300200  )
        61           Si  tau(  61) = (   0.7116760   0.4635140   0.5563760  )
        62           Si  tau(  62) = (   0.9737220   0.3281270   0.0198708  )
        63           Si  tau(  63) = (   0.7829290   0.9230210   0.7602180  )
        64           Si  tau(  64) = (   0.7783720   0.0787781   0.1956490  )

     number of k points=     1
                       cart. coord. in units 2pi/alat
        k(    1) = (   0.0000000   0.0000000   0.0000000), wk =   2.0000000

     Dense  grid:    89175 G-vectors     FFT dimensions: (  72,  72,  72)

     Estimated max dynamical RAM per process >     131.64 MB

     Estimated total dynamical RAM >     504.79 MB

     Initial potential from superposition of free atoms

     starting charge     255.9608, renormalised to     256.0000
     Starting wfcs are  256 randomized atomic wfcs

     total cpu time spent up to now is        4.1 secs

     Self-consistent Calculation

     iteration #  1     ecut=    30.00 Ry     beta= 0.50
     Davidson diagonalization with overlap
     ethr =  1.00E-02,  avg # of iterations =  2.0

     Threshold (ethr) on eigenvalues was too large:
     Diagonalizing with lowered threshold

     Davidson diagonalization with overlap
     ethr =  3.87E-04,  avg # of iterations =  6.0

     total cpu time spent up to now is        4.3 secs

     total energy              =    -500.93412455 Ry
     estimated scf accuracy    <       1.26939604 Ry

     iteration #  2     ecut=    30.00 Ry     beta= 0.50
     Davidson diagonalization with overlap
     ethr =  4.96E-04,  avg # of iterations = 15.0

     total cpu time spent up to now is        4.4 secs

     total energy              =    -500.42947507 Ry
     estimated scf accuracy    <       6.50492388 Ry

     iteration #  3     ecut=    30.00 Ry     beta= 0.50
     Davidson diagonalization with overlap
     ethr =  4.96E-04,  avg # of iterations = 11.0

     total cpu time spent up to now is        4.5 secs

     total energy              =    -501.00690763 Ry
     estimated scf accuracy    <       2.45994090 Ry

     iteration #  4     ecut=    30.00 Ry     beta= 0.50
     Davidson diagonalization with overlap
     ethr =  4.96E-04,  avg # of iterations = 10.0

     total cpu time spent up to now is        4.7 secs

     total energy              =    -501.18291198 Ry
     estimated scf accuracy    <       0.41238385 Ry

     iteration #  5     ecut=    30.00 Ry     beta= 0.50
     Davidson diagonalization with overlap
     ethr =  1.61E-04,  avg # of iterations =  9.0

     total cpu time spent up to now is        4.8 secs

     total energy              =    -501.20194347 Ry
     estimated scf accuracy    <       0.53382152 Ry

     iteration #  6     ecut=    30.00 Ry     beta= 0.50
     Davidson diagonalization with overlap
     ethr =  1.61E-04,  avg # of iterations =  6.0

     total cpu time spent up to now is        4.9 secs

     total energy              =    -501.25161331 Ry
     estimated scf accuracy    <       0.04511511 Ry

     iteration #  7     ecut=    30.00 Ry     beta= 0.50
     Davidson diagonalization with overlap
     c_bands:  1 eigenvalues not converged
     ethr =  1.76E-05,  avg # of iterations = 20.0

     total cpu time spent up to now is        5.0 secs

     total energy              =    -501.26083429 Ry
     estimated scf accuracy    <       0.05631011 Ry

     iteration #  8     ecut=    30.00 Ry     beta= 0.50
     Davidson diagonalization with overlap
     ethr =  1.76E-05,  avg # of iterations = 13.0

     total cpu time spent up to now is        5.1 secs

     total energy              =    -501.26165358 Ry
     estimated scf accuracy    <       0.02517409 Ry

     iteration #  9     ecut=    30.00 Ry     beta= 0.50
     Davidson diagonalization with overlap
     ethr =  9.83E-06,  avg # of iterations =  3.0

     total cpu time spent up to now is        5.2 secs

     total energy              =    -501.26191058 Ry
     estimated scf accuracy    <       0.00909311 Ry

     iteration # 10     ecut=    30.00 Ry     beta= 0.50
     Davidson diagonalization with overlap
     c_bands:  1 eigenvalues not converged
     ethr =  3.55E-06,  avg # of iterations = 20.0

     total cpu time spent up to now is        5.4 secs

     total energy              =    -501.26309966 Ry
     estimated scf accuracy    <       0.03466967 Ry

     iteration # 11     ecut=    30.00 Ry     beta= 0.50
     Davidson diagonalization with overlap
     c_bands:  1 eigenvalues not converged
     ethr =  3.55E-06,  avg # of iterations = 20.0

     total cpu time spent up to now is        5.5 secs

     total energy              =    -501.26291930 Ry
     estimated scf accuracy    <       0.02307118 Ry

     iteration # 12     ecut=    30.00 Ry     beta= 0.50
     Davidson diagonalization with overlap
     ethr =  3.55E-06,  avg # of iterations =  2.0

     total cpu time spent up to now is        5.6 secs

     total energy              =    -501.26148024 Ry
     estimated scf accuracy    <       0.02009479 Ry

     iteration # 13     ecut=    30.00 Ry     beta= 0.50
     Davidson diagonalization with overlap
     ethr =  3.55E-06,  avg # of iterations =  2.0

     total cpu time spent up to now is        5.7 secs

     total energy              =    -501.26038313 Ry
     estimated scf accuracy    <       0.01368116 Ry

     iteration # 14     ecut=    30.00 Ry     beta= 0.50
     Davidson diagonalization with overlap
     c_bands:  1 eigenvalues not converged
     ethr =  3.55E-06,  avg # of iterations = 20.0

     total cpu time spent up to now is        5.8 secs

     total energy              =    -501.26476731 Ry
     estimated scf accuracy    <       0.01845401 Ry

     iteration # 15     ecut=    30.00 Ry     beta= 0.50
     Davidson diagonalization with overlap
     ethr =  3.55E-06,  avg # of iterations = 17.0

     total cpu time spent up to now is        6.0 secs

     total energy              =    -501.26515794 Ry
     estimated scf accuracy    <       0.01499073 Ry

     iteration # 16     ecut=    30.00 Ry     beta= 0.50
     Davidson diagonalization with overlap
     ethr =  3.55E-06,  avg # of iterations =  1.0

     total cpu time spent up to now is        6.0 secs

     total energy              =    -501.26400372 Ry
     estimated scf accuracy    <       0.01242927 Ry

     iteration # 17     ecut=    30.00 Ry     beta= 0.50
     Davidson diagonalization with overlap
     ethr =  3.55E-06,  avg # of iterations =  2.0

     total cpu time spent up to now is        6.1 secs

     total energy              =    -501.26327000 Ry
     estimated scf accuracy    <       0.00792628 Ry

     iteration # 18     ecut=    30.00 Ry     beta= 0.50
     Davidson diagonalization with overlap
     ethr =  3.10E-06,  avg # of iterations =  2.0

     total cpu time spent up to now is        6.2 secs

     total energy              =    -501.26277972 Ry
     estimated scf accuracy    <       0.00424352 Ry

     iteration # 19     ecut=    30.00 Ry     beta= 0.50
     Davidson diagonalization with overlap
     c_bands:  1 eigenvalues not converged
     ethr =  1.66E-06,  avg # of iterations = 20.0

     total cpu time spent up to now is        6.3 secs

     total energy              =    -501.26433556 Ry
     estimated scf accuracy    <       0.01967781 Ry

     iteration # 20     ecut=    30.00 Ry     beta= 0.50
     Davidson diagonalization with overlap
     ethr =  1.66E-06,  avg # of iterations = 17.0

     total cpu time spent up to now is        6.5 secs

     total energy              =    -501.26424416 Ry
     estimated scf accuracy    <       0.01516037 Ry

     iteration # 21     ecut=    30.00 Ry     beta= 0.50
     Davidson diagonalization with overlap
     ethr =  1.66E-06,  avg # of iterations =  1.0

     total cpu time spent up to now is        6.5 secs

     total energy              =    -501.26362359 Ry
     estimated scf accuracy    <       0.01352898 Ry

     iteration # 22     ecut=    30.00 Ry     beta= 0.50
     Davidson diagonalization with overlap
     ethr =  1.66E-06,  avg # of iterations =  2.0

     total cpu time spent up to now is        6.6 secs

     total energy              =    -501.26238079 Ry
     estimated scf accuracy    <       0.01079764 Ry

     iteration # 23     ecut=    30.00 Ry     beta= 0.50
     Davidson diagonalization with overlap
     c_bands:  1 eigenvalues not converged
     ethr =  1.66E-06,  avg # of iterations = 20.0

     total cpu time spent up to now is        6.7 secs

     total energy              =    -501.26429009 Ry
     estimated scf accuracy    <       0.00816489 Ry

     iteration # 24     ecut=    30.00 Ry     beta= 0.50
     Davidson diagonalization with overlap
     ethr =  1.66E-06,  avg # of iterations = 18.0

     total cpu time spent up to now is        6.9 secs

     total energy              =    -501.26410568 Ry
     estimated scf accuracy    <       0.00706976 Ry

     iteration # 25     ecut=    30.00 Ry     beta= 0.50
     Davidson diagonalization with overlap
     ethr =  1.66E-06,  avg # of iterations =  1.0

     total cpu time spent up to now is        6.9 secs

     total energy              =    -501.26423886 Ry
     estimated scf accuracy    <       0.00541407 Ry

     iteration # 26     ecut=    30.00 Ry     beta= 0.50
     Davidson diagonalization with overlap
     ethr =  1.66E-06,  avg # of iterations =  1.0

     total cpu time spent up to now is        7.0 secs

     total energy              =    -501.26435166 Ry
     estimated scf accuracy    <       0.00546843 Ry

     iteration # 27     ecut=    30.00 Ry     beta= 0.50
     Davidson diagonalization with overlap
     ethr =  1.66E-06,  avg # of iterations =  1.0

     total cpu time spent up to now is        7.1 secs

     total energy              =    -501.26423282 Ry
     estimated scf accuracy    <       0.00569845 Ry

     iteration # 28     ecut=    30.00 Ry     beta= 0.50
     Davidson diagonalization with overlap
     ethr =  1.66E-06,  avg # of iterations =  1.0

     total cpu time spent up to now is        7.2 secs

     total energy              =    -501.26398450 Ry
     estimated scf accuracy    <       0.00518077 Ry

     iteration # 29     ecut=    30.00 Ry     beta= 0.50
     Davidson diagonalization with overlap
     ethr =  1.66E-06,  avg # of iterations =  1.0

     total cpu time spent up to now is        7.2 secs

     total energy              =    -501.26395631 Ry
     estimated scf accuracy    <       0.00400133 Ry

     iteration # 30     ecut=    30.00 Ry     beta= 0.50
     Davidson diagonalization with overlap
     ethr =  1.56E-06,  avg # of iterations =  1.0

     total cpu time spent up to now is        7.3 secs

     total energy              =    -501.26379835 Ry
     estimated scf accuracy    <       0.00370371 Ry

     iteration # 31     ecut=    30.00 Ry     beta= 0.50
     Davidson diagonalization with overlap
     ethr =  1.45E-06,  avg # of iterations =  1.0

     total cpu time spent up to now is        7.4 secs

     total energy              =    -501.26273312 Ry
     estimated scf accuracy    <       0.00300584 Ry

     iteration # 32     ecut=    30.00 Ry     beta= 0.50
     Davidson diagonalization with overlap
     c_bands:  1 eigenvalues not converged
     ethr =  1.17E-06,  avg # of iterations = 20.0

     total cpu time spent up to now is        7.5 secs

     total energy              =    -501.26282537 Ry
     estimated scf accuracy    <       0.03655475 Ry

     iteration # 33     ecut=    30.00 Ry     beta= 0.50
     Davidson diagonalization with overlap
     c_bands:  1 eigenvalues not converged
     ethr =  1.17E-06,  avg # of iterations = 20.0

     total cpu time spent up to now is        7.7 secs

     total energy              =    -501.26390443 Ry
     estimated scf accuracy    <       0.01907871 Ry

     iteration # 34     ecut=    30.00 Ry     beta= 0.50
     Davidson diagonalization with overlap
     ethr =  1.17E-06,  avg # of iterations =  2.0

     total cpu time spent up to now is        7.8 secs

     total energy              =    -501.26344455 Ry
     estimated scf accuracy    <       0.01550305 Ry

     iteration # 35     ecut=    30.00 Ry     beta= 0.50
     Davidson diagonalization with overlap
     ethr =  1.17E-06,  avg # of iterations =  1.0

     total cpu time spent up to now is        7.8 secs

     total energy              =    -501.26307164 Ry
     estimated scf accuracy    <       0.01316710 Ry

     iteration # 36     ecut=    30.00 Ry     beta= 0.50
     Davidson diagonalization with overlap
     c_bands:  1 eigenvalues not converged
     ethr =  1.17E-06,  avg # of iterations = 20.0

     total cpu time spent up to now is        8.0 secs

     total energy              =    -501.26381703 Ry
     estimated scf accuracy    <       0.00143254 Ry

     iteration # 37     ecut=    30.00 Ry     beta= 0.50
     Davidson diagonalization with overlap
     ethr =  5.60E-07,  avg # of iterations = 19.0

     total cpu time spent up to now is        8.1 secs

     total energy              =    -501.26415409 Ry
     estimated scf accuracy    <       0.00134106 Ry

     iteration # 38     ecut=    30.00 Ry     beta= 0.50
     Davidson diagonalization with overlap
     ethr =  5.24E-07,  avg # of iterations =  1.0

     total cpu time spent up to now is        8.2 secs

     total energy              =    -501.26412335 Ry
     estimated scf accuracy    <       0.00137556 Ry

     iteration # 39     ecut=    30.00 Ry     beta= 0.50
     Davidson diagonalization with overlap
     ethr =  5.24E-07,  avg # of iterations =  1.0

     total cpu time spent up to now is        8.2 secs

     total energy              =    -501.26409679 Ry
     estimated scf accuracy    <       0.00125086 Ry

     iteration # 40     ecut=    30.00 Ry     beta= 0.50
     Davidson diagonalization with overlap
     ethr =  4.89E-07,  avg # of iterations =  1.0

     total cpu time spent up to now is        8.3 secs

     total energy              =    -501.26445281 Ry
     estimated scf accuracy    <       0.00107742 Ry

     iteration # 41     ecut=    30.00 Ry     beta= 0.50
     Davidson diagonalization with overlap
     c_bands:  1 eigenvalues not converged
     ethr =  4.21E-07,  avg # of iterations = 20.0

     total cpu time spent up to now is        8.5 secs

     total energy              =    -501.26424293 Ry
     estimated scf accuracy    <       0.02078846 Ry

     iteration # 42     ecut=    30.00 Ry     beta= 0.50
     Davidson diagonalization with overlap
     c_bands:  1 eigenvalues not converged
     ethr =  4.21E-07,  avg # of iterations = 20.0

     total cpu time spent up to now is        8.6 secs

     total energy              =    -501.26445549 Ry
     estimated scf accuracy    <       0.01044339 Ry

     iteration # 43     ecut=    30.00 Ry     beta= 0.50
     Davidson diagonalization with overlap
     c_bands:  1 eigenvalues not converged
     ethr =  4.21E-07,  avg # of iterations = 20.0

     total cpu time spent up to now is        8.8 secs

     total energy              =    -501.26440444 Ry
     estimated scf accuracy    <       0.00874686 Ry

     iteration # 44     ecut=    30.00 Ry     beta= 0.50
     Davidson diagonalization with overlap
     ethr =  4.21E-07,  avg # of iterations =  2.0

     total cpu time spent up to now is        8.9 secs

     total energy              =    -501.26164111 Ry
     estimated scf accuracy    <       0.00832779 Ry

     iteration # 45     ecut=    30.00 Ry     beta= 0.50
     Davidson diagonalization with overlap
     c_bands:  1 eigenvalues not converged
     ethr =  4.21E-07,  avg # of iterations = 20.0

     total cpu time spent up to now is        9.0 secs

     total energy              =    -501.26488418 Ry
     estimated scf accuracy    <       0.05745699 Ry

     iteration # 46     ecut=    30.00 Ry     beta= 0.50
     Davidson diagonalization with overlap
     ethr =  4.21E-07,  avg # of iterations = 20.0

     total cpu time spent up to now is        9.2 secs

     total energy              =    -501.26374530 Ry
     estimated scf accuracy    <       0.02759090 Ry

     iteration # 47     ecut=    30.00 Ry     beta= 0.50
     Davidson diagonalization with overlap
     c_bands:  1 eigenvalues not converged
     ethr =  4.21E-07,  avg # of iterations = 20.0

     total cpu time spent up to now is        9.4 secs

     total energy              =    -501.26363033 Ry
     estimated scf accuracy    <       0.01119649 Ry

     iteration # 48     ecut=    30.00 Ry     beta= 0.50
     Davidson diagonalization with overlap
     c_bands:  1 eigenvalues not converged
     ethr =  4.21E-07,  avg # of iterations = 20.0

     total cpu time spent up to now is        9.5 secs

     total energy              =    -501.26387391 Ry
     estimated scf accuracy    <       0.00572018 Ry

     iteration # 49     ecut=    30.00 Ry     beta= 0.50
     Davidson diagonalization with overlap
     c_bands:  1 eigenvalues not converged
     ethr =  4.21E-07,  avg # of iterations = 20.0

     total cpu time spent up to now is        9.7 secs

     total energy              =    -501.26393779 Ry
     estimated scf accuracy    <       0.00385787 Ry

     iteration # 50     ecut=    30.00 Ry     beta= 0.50
     Davidson diagonalization with overlap
     c_bands:  1 eigenvalues not converged
     ethr =  4.21E-07,  avg # of iterations = 20.0

     total cpu time spent up to now is        9.8 secs

     total energy              =    -501.26400730 Ry
     estimated scf accuracy    <       0.00220852 Ry

     iteration # 51     ecut=    30.00 Ry     beta= 0.50
     Davidson diagonalization with overlap
     c_bands:  1 eigenvalues not converged
     ethr =  4.21E-07,  avg # of iterations = 20.0

     total cpu time spent up to now is       10.0 secs

     total energy              =    -501.26406696 Ry
     estimated scf accuracy    <       0.00149952 Ry

     iteration # 52     ecut=    30.00 Ry     beta= 0.50
     Davidson diagonalization with overlap
     ethr =  4.21E-07,  avg # of iterations =  2.0

     total cpu time spent up to now is       10.1 secs

     total energy              =    -501.26407840 Ry
     estimated scf accuracy    <       0.00148067 Ry

     iteration # 53     ecut=    30.00 Ry     beta= 0.50
     Davidson diagonalization with overlap
     ethr =  4.21E-07,  avg # of iterations =  1.0

     total cpu time spent up to now is       10.1 secs

     total energy              =    -501.26444215 Ry
     estimated scf accuracy    <       0.00148593 Ry

     iteration # 54     ecut=    30.00 Ry     beta= 0.50
     Davidson diagonalization with overlap
     c_bands:  1 eigenvalues not converged
     ethr =  4.21E-07,  avg # of iterations = 20.0

     total cpu time spent up to now is       10.3 secs

     total energy              =    -501.26548565 Ry
     estimated scf accuracy    <       0.01153611 Ry

     iteration # 55     ecut=    30.00 Ry     beta= 0.50
     Davidson diagonalization with overlap
     c_bands:  1 eigenvalues not converged
     ethr =  4.21E-07,  avg # of iterations = 20.0

     total cpu time spent up to now is       10.4 secs

     total energy              =    -501.26416611 Ry
     estimated scf accuracy    <       0.03102174 Ry

     iteration # 56     ecut=    30.00 Ry     beta= 0.50
     Davidson diagonalization with overlap
     ethr =  4.21E-07,  avg # of iterations = 20.0

     total cpu time spent up to now is       10.6 secs

     total energy              =    -501.26377354 Ry
     estimated scf accuracy    <       0.02276513 Ry

     iteration # 57     ecut=    30.00 Ry     beta= 0.50
     Davidson diagonalization with overlap
     ethr =  4.21E-07,  avg # of iterations = 18.0

     total cpu time spent up to now is       10.8 secs

     total energy              =    -501.26377825 Ry
     estimated scf accuracy    <       0.01668769 Ry

     iteration # 58     ecut=    30.00 Ry     beta= 0.50
     Davidson diagonalization with overlap
     c_bands:  1 eigenvalues not converged
     ethr =  4.21E-07,  avg # of iterations = 20.0

     total cpu time spent up to now is       10.9 secs

     total energy              =    -501.26293582 Ry
     estimated scf accuracy    <       0.01085957 Ry

     iteration # 59     ecut=    30.00 Ry     beta= 0.50
     Davidson diagonalization with overlap
     c_bands:  1 eigenvalues not converged
     ethr =  4.21E-07,  avg # of iterations = 20.0

     total cpu time spent up to now is       11.1 secs

     total energy              =    -501.26279317 Ry
     estimated scf accuracy    <       0.01743547 Ry

     iteration # 60     ecut=    30.00 Ry     beta= 0.50
     Davidson diagonalization with overlap
     c_bands:  1 eigenvalues not converged
     ethr =  4.21E-07,  avg # of iterations = 20.0

     total cpu time spent up to now is       11.3 secs

     total energy              =    -501.26393650 Ry
     estimated scf accuracy    <       0.00716140 Ry

     iteration # 61     ecut=    30.00 Ry     beta= 0.50
     Davidson diagonalization with overlap
     c_bands:  1 eigenvalues not converged
     ethr =  4.21E-07,  avg # of iterations = 20.0

     total cpu time spent up to now is       11.4 secs

     total energy              =    -501.26403397 Ry
     estimated scf accuracy    <       0.00494888 Ry

     iteration # 62     ecut=    30.00 Ry     beta= 0.50
     Davidson diagonalization with overlap
     ethr =  4.21E-07,  avg # of iterations =  2.0

     total cpu time spent up to now is       11.5 secs

     total energy              =    -501.26379069 Ry
     estimated scf accuracy    <       0.00487066 Ry

     iteration # 63     ecut=    30.00 Ry     beta= 0.50
     Davidson diagonalization with overlap
     c_bands:  1 eigenvalues not converged
     ethr =  4.21E-07,  avg # of iterations = 20.0

     total cpu time spent up to now is       11.6 secs

     total energy              =    -501.26390711 Ry
     estimated scf accuracy    <       0.00190428 Ry

     iteration # 64     ecut=    30.00 Ry     beta= 0.50
     Davidson diagonalization with overlap
     c_bands:  1 eigenvalues not converged
     ethr =  4.21E-07,  avg # of iterations = 20.0

     total cpu time spent up to now is       11.8 secs

     total energy              =    -501.26402356 Ry
     estimated scf accuracy    <       0.00132310 Ry

     iteration # 65     ecut=    30.00 Ry     beta= 0.50
     Davidson diagonalization with overlap
     ethr =  4.21E-07,  avg # of iterations =  2.0

     total cpu time spent up to now is       11.9 secs

     total energy              =    -501.26402492 Ry
     estimated scf accuracy    <       0.00132147 Ry

     iteration # 66     ecut=    30.00 Ry     beta= 0.50
     Davidson diagonalization with overlap
     ethr =  4.21E-07,  avg # of iterations =  2.0

     total cpu time spent up to now is       11.9 secs

     total energy              =    -501.26403670 Ry
     estimated scf accuracy    <       0.00129738 Ry

     iteration # 67     ecut=    30.00 Ry     beta= 0.50
     Davidson diagonalization with overlap
     ethr =  4.21E-07,  avg # of iterations =  1.0

     total cpu time spent up to now is       12.0 secs

     total energy              =    -501.26419550 Ry
     estimated scf accuracy    <       0.00130212 Ry

     iteration # 68     ecut=    30.00 Ry     beta= 0.50
     Davidson diagonalization with overlap
     c_bands:  1 eigenvalues not converged
     ethr =  4.21E-07,  avg # of iterations = 20.0

     total cpu time spent up to now is       12.2 secs

     total energy              =    -501.26240184 Ry
     estimated scf accuracy    <       0.04172801 Ry

     iteration # 69     ecut=    30.00 Ry     beta= 0.50
     Davidson diagonalization with overlap
     ethr =  4.21E-07,  avg # of iterations = 17.0

     total cpu time spent up to now is       12.3 secs

     total energy              =    -501.26375725 Ry
     estimated scf accuracy    <       0.01791095 Ry

     iteration # 70     ecut=    30.00 Ry     beta= 0.50
     Davidson diagonalization with overlap
     ethr =  4.21E-07,  avg # of iterations =  9.0

     total cpu time spent up to now is       12.5 secs

     total energy              =    -501.26371774 Ry
     estimated scf accuracy    <       0.01465311 Ry

     iteration # 71     ecut=    30.00 Ry     beta= 0.50
     Davidson diagonalization with overlap
     ethr =  4.21E-07,  avg # of iterations =  1.0

     total cpu time spent up to now is       12.5 secs

     total energy              =    -501.26130639 Ry
     estimated scf accuracy    <       0.01398456 Ry

     iteration # 72     ecut=    30.00 Ry     beta= 0.50
     Davidson diagonalization with overlap
     c_bands:  1 eigenvalues not converged
     ethr =  4.21E-07,  avg # of iterations = 20.0

     total cpu time spent up to now is       12.7 secs

     total energy              =    -501.26309207 Ry
     estimated scf accuracy    <       0.04372677 Ry

     iteration # 73     ecut=    30.00 Ry     beta= 0.50
     Davidson diagonalization with overlap
     c_bands:  1 eigenvalues not converged
     ethr =  4.21E-07,  avg # of iterations = 20.0

     total cpu time spent up to now is       12.9 secs

     total energy              =    -501.26401653 Ry
     estimated scf accuracy    <       0.00689055 Ry

     iteration # 74     ecut=    30.00 Ry     beta= 0.50
     Davidson diagonalization with overlap
     ethr =  4.21E-07,  avg # of iterations =  6.0

     total cpu time spent up to now is       13.0 secs

     total energy              =    -501.26396717 Ry
     estimated scf accuracy    <       0.00533113 Ry

     iteration # 75     ecut=    30.00 Ry     beta= 0.50
     Davidson diagonalization with overlap
     ethr =  4.21E-07,  avg # of iterations =  1.0

     total cpu time spent up to now is       13.0 secs

     total energy              =    -501.26389749 Ry
     estimated scf accuracy    <       0.00489226 Ry

     iteration # 76     ecut=    30.00 Ry     beta= 0.50
     Davidson diagonalization with overlap
     ethr =  4.21E-07,  avg # of iterations =  1.0

     total cpu time spent up to now is       13.1 secs

     total energy              =    -501.26295839 Ry
     estimated scf accuracy    <       0.00449825 Ry

     iteration # 77     ecut=    30.00 Ry     beta= 0.50
     Davidson diagonalization with overlap
     c_bands:  1 eigenvalues not converged
     ethr =  4.21E-07,  avg # of iterations = 20.0

     total cpu time spent up to now is       13.3 secs

     total energy              =    -501.26485988 Ry
     estimated scf accuracy    <       0.01465365 Ry

     iteration # 78     ecut=    30.00 Ry     beta= 0.50
     Davidson diagonalization with overlap
     c_bands:  1 eigenvalues not converged
     ethr =  4.21E-07,  avg # of iterations = 20.0

     total cpu time spent up to now is       13.4 secs

     total energy              =    -501.26514374 Ry
     estimated scf accuracy    <       0.01485305 Ry

     iteration # 79     ecut=    30.00 Ry     beta= 0.50
     Davidson diagonalization with overlap
     c_bands:  1 eigenvalues not converged
     ethr =  4.21E-07,  avg # of iterations = 20.0

     total cpu time spent up to now is       13.5 secs

     total energy              =    -501.26477398 Ry
     estimated scf accuracy    <       0.01440197 Ry

     iteration # 80     ecut=    30.00 Ry     beta= 0.50
     Davidson diagonalization with overlap
     ethr =  4.21E-07,  avg # of iterations =  2.0

     total cpu time spent up to now is       13.6 secs

     total energy              =    -501.26563041 Ry
     estimated scf accuracy    <       0.01284791 Ry

     iteration # 81     ecut=    30.00 Ry     beta= 0.50
     Davidson diagonalization with overlap
     ethr =  4.21E-07,  avg # of iterations =  2.0

     total cpu time spent up to now is       13.7 secs

     total energy              =    -501.26373669 Ry
     estimated scf accuracy    <       0.01541681 Ry

     iteration # 82     ecut=    30.00 Ry     beta= 0.50
     Davidson diagonalization with overlap
     c_bands:  1 eigenvalues not converged
     ethr =  4.21E-07,  avg # of iterations = 20.0

     total cpu time spent up to now is       13.8 secs

     total energy              =    -501.26378868 Ry
     estimated scf accuracy    <       0.00885638 Ry

     iteration # 83     ecut=    30.00 Ry     beta= 0.50
     Davidson diagonalization with overlap
     c_bands:  1 eigenvalues not converged
     ethr =  4.21E-07,  avg # of iterations = 20.0

     total cpu time spent up to now is       14.0 secs

     total energy              =    -501.26400690 Ry
     estimated scf accuracy    <       0.00547979 Ry

     iteration # 84     ecut=    30.00 Ry     beta= 0.50
     Davidson diagonalization with overlap
     ethr =  4.21E-07,  avg # of iterations =  1.0

     total cpu time spent up to now is       14.1 secs

     total energy              =    -501.26400901 Ry
     estimated scf accuracy    <       0.00530097 Ry

     iteration # 85     ecut=    30.00 Ry     beta= 0.50
     Davidson diagonalization with overlap
     ethr =  4.21E-07,  avg # of iterations =  1.0

     total cpu time spent up to now is       14.1 secs

     total energy              =    -501.26268732 Ry
     estimated scf accuracy    <       0.00518764 Ry

     iteration # 86     ecut=    30.00 Ry     beta= 0.50
     Davidson diagonalization with overlap
     c_bands:  1 eigenvalues not converged
     ethr =  4.21E-07,  avg # of iterations = 20.0

     total cpu time spent up to now is       14.3 secs

     total energy              =    -501.26438006 Ry
     estimated scf accuracy    <       0.04322004 Ry

     iteration # 87     ecut=    30.00 Ry     beta= 0.50
     Davidson diagonalization with overlap
     c_bands:  1 eigenvalues not converged
     ethr =  4.21E-07,  avg # of iterations = 20.0

     total cpu time spent up to now is       14.5 secs

     total energy              =    -501.26465960 Ry
     estimated scf accuracy    <       0.02109131 Ry

     iteration # 88     ecut=    30.00 Ry     beta= 0.50
     Davidson diagonalization with overlap
     ethr =  4.21E-07,  avg # of iterations = 11.0

     total cpu time spent up to now is       14.6 secs

     total energy              =    -501.26434392 Ry
     estimated scf accuracy    <       0.01796845 Ry

     iteration # 89     ecut=    30.00 Ry     beta= 0.50
     Davidson diagonalization with overlap
     ethr =  4.21E-07,  avg # of iterations =  2.0

     total cpu time spent up to now is       14.7 secs

     total energy              =    -501.26426498 Ry
     estimated scf accuracy    <       0.01622064 Ry

     iteration # 90     ecut=    30.00 Ry     beta= 0.50
     Davidson diagonalization with overlap
     ethr =  4.21E-07,  avg # of iterations =  1.0

     total cpu time spent up to now is       14.8 secs

     total energy              =    -501.26220466 Ry
     estimated scf accuracy    <       0.01564044 Ry

     iteration # 91     ecut=    30.00 Ry     beta= 0.50
     Davidson diagonalization with overlap
     c_bands:  1 eigenvalues not converged
     ethr =  4.21E-07,  avg # of iterations = 20.0

     total cpu time spent up to now is       14.9 secs

     total energy              =    -501.26446663 Ry
     estimated scf accuracy    <       0.00945062 Ry

     iteration # 92     ecut=    30.00 Ry     beta= 0.50
     Davidson diagonalization with overlap
     c_bands:  1 eigenvalues not converged
     ethr =  4.21E-07,  avg # of iterations = 20.0

     total cpu time spent up to now is       15.1 secs

     total energy              =    -501.26477491 Ry
     estimated scf accuracy    <       0.00844631 Ry

     iteration # 93     ecut=    30.00 Ry     beta= 0.50
     Davidson diagonalization with overlap
     ethr =  4.21E-07,  avg # of iterations =  2.0

     total cpu time spent up to now is       15.1 secs

     total energy              =    -501.26474020 Ry
     estimated scf accuracy    <       0.00833714 Ry

     iteration # 94     ecut=    30.00 Ry     beta= 0.50
     Davidson diagonalization with overlap
     ethr =  4.21E-07,  avg # of iterations =  2.0

     total cpu time spent up to now is       15.2 secs

     total energy              =    -501.26459775 Ry
     estimated scf accuracy    <       0.00829602 Ry

     iteration # 95     ecut=    30.00 Ry     beta= 0.50
     Davidson diagonalization with overlap
     ethr =  4.21E-07,  avg # of iterations =  1.0

     total cpu time spent up to now is       15.3 secs

     total energy              =    -501.26362110 Ry
     estimated scf accuracy    <       0.00774521 Ry

     iteration # 96     ecut=    30.00 Ry     beta= 0.50
     Davidson diagonalization with overlap
     c_bands:  1 eigenvalues not converged
     ethr =  4.21E-07,  avg # of iterations = 20.0

     total cpu time spent up to now is       15.4 secs

     total energy              =    -501.26407328 Ry
     estimated scf accuracy    <       0.00241700 Ry

     iteration # 97     ecut=    30.00 Ry     beta= 0.50
     Davidson diagonalization with overlap
     ethr =  4.21E-07,  avg # of iterations = 17.0

     total cpu time spent up to now is       15.6 secs

     total energy              =    -501.26400335 Ry
     estimated scf accuracy    <       0.00180399 Ry

     iteration # 98     ecut=    30.00 Ry     beta= 0.50
     Davidson diagonalization with overlap
     ethr =  4.21E-07,  avg # of iterations =  2.0

     total cpu time spent up to now is       15.6 secs

     total energy              =    -501.26396815 Ry
     estimated scf accuracy    <       0.00131062 Ry

     iteration # 99     ecut=    30.00 Ry     beta= 0.50
     Davidson diagonalization with overlap
     c_bands:  1 eigenvalues not converged
     ethr =  4.21E-07,  avg # of iterations = 20.0

     total cpu time spent up to now is       15.8 secs

     total energy              =    -501.26424252 Ry
     estimated scf accuracy    <       0.00336508 Ry

     iteration #100     ecut=    30.00 Ry     beta= 0.50
     Davidson diagonalization with overlap
     c_bands:  1 eigenvalues not converged
     ethr =  4.21E-07,  avg # of iterations = 20.0

     total cpu time spent up to now is       15.9 secs

     total energy              =    -501.26377152 Ry
     estimated scf accuracy    <       0.02331783 Ry

     End of self-consistent calculation

     convergence NOT achieved after 100 iterations: stopping

     Writing config to output data dir ./pwscf.save/
     Message from routine punch:
     wavefunctions written to file
 
     init_run     :      0.91s CPU      4.02s WALL (       1 calls)
     electrons    :     11.16s CPU     11.87s WALL (       1 calls)

     Called by init_run:
     wfcinit      :      0.41s CPU      3.38s WALL (       1 calls)
                                        3.38s GPU  (       1 calls)
     potinit      :      0.04s CPU      0.11s WALL (       1 calls)
     hinit0       :      0.45s CPU      0.47s WALL (       1 calls)

     Called by electrons:
     c_bands      :      8.15s CPU      8.60s WALL (     101 calls)
     sum_band     :      1.39s CPU      1.59s WALL (     101 calls)
     v_of_rho     :      0.57s CPU      0.66s WALL (     101 calls)
     mix_rho      :      0.85s CPU      0.89s WALL (     101 calls)

     Called by c_bands:
     init_us_2    :      0.24s CPU      0.27s WALL (     203 calls)
     init_us_2:gp :      0.24s CPU      0.27s WALL (     203 calls)
     regterg      :      7.47s CPU      7.87s WALL (     101 calls)

     Called by *egterg:
     rdiaghg      :      3.91s CPU      4.65s WALL (    1240 calls)
                                        4.48s GPU  (    1240 calls)
     h_psi        :      2.98s CPU      5.52s WALL (    1242 calls)
                                        5.51s GPU  (    1242 calls)
     g_psi        :      0.00s CPU      0.03s WALL (    1140 calls)
                                        0.02s GPU  (    1140 calls)

     Called by h_psi:
     h_psi:calbec :      0.68s CPU      3.04s WALL (    1242 calls)
                                        3.04s GPU  (    1242 calls)
     vloc_psi     :      1.64s CPU      1.82s WALL (    1242 calls)
                                        1.79s GPU  (    1242 calls)
     add_vuspsi   :      0.51s CPU      0.61s WALL (    1242 calls)
                                        0.60s GPU  (    1242 calls)

     General routines
     calbec       :      0.67s CPU      3.02s WALL (    1242 calls)
     fft          :      0.90s CPU      1.03s WALL (     809 calls)
                                        0.17s GPU  (     505 calls)
     ffts         :      0.16s CPU      0.17s WALL (     101 calls)
     fftw         :      1.94s CPU      2.44s WALL (   10372 calls)
                                        2.13s GPU  (   10372 calls)
     davcio       :      0.00s CPU      0.00s WALL (      19 calls)
 
     Parallel routines
 
     PWSCF        :     12.11s CPU     15.98s WALL

 
   This run was terminated on:  15: 9:47   9May2023            

=------------------------------------------------------------------------------=
   JOB DONE.
=------------------------------------------------------------------------------=
