LAMMPS data file via write_data, version 23 Jun 2022, timestep = 500000

64 atoms
1 atom types

0.10325114681729985 10.75814885318263 xlo xhi
0.10325114681729985 10.75814885318263 ylo yhi
0.10325114681729985 10.75814885318263 zlo zhi

Masses

1 28.0855

Atoms # atomic

20 1 1.002620482102681 2.829964318894492 1.1781039461056537
2 1 1.543660008985343 1.2464493254801927 3.0172717623598557
28 1 3.323282237314849 3.2512892963044018 1.503288768400323
14 1 5.7622327142228285 1.2041593422287955 3.461218834877698
8 1 4.73542471914389 1.286500133756501 0.8322351214768455
44 1 9.244384840308054 1.173052479922277 0.6770421178866461
62 1 7.454334454386513 3.0757977816334763 2.9600305119622607
38 1 7.864495585110172 3.2774356762938814 0.7921422438354144
26 1 0.5685996684046735 4.897813644943959 2.809687669880577
17 1 5.856082636787787 6.234023154787902 1.6796590311784774
56 1 4.095722272762698 4.829209368139926 0.21079779910264346
12 1 8.918293479293954 5.53658955455315 3.0300211541410103
64 1 9.097540347186793 5.259785572855611 0.7405139130467595
61 1 2.8604185176566164 10.346329451003763 1.5617304880479874
37 1 0.9525843385354705 7.251085265382104 1.6027240498377504
53 1 0.37714883367320645 9.71509151520756 1.273640746211369
48 1 4.449008371161425 7.783194080178385 2.442907393519875
23 1 6.464165776046928 9.819652707914743 0.2621584338992791
4 1 4.091308857617769 8.578292754216198 0.2703268965952318
27 1 7.823718110000349 7.836818308515451 2.4186409797828725
46 1 7.842980284565824 10.409624798993455 2.6788413904509087
24 1 8.002409636603918 7.28037337918762 0.20927226075604471
29 1 3.2412403434344164 1.282221217107552 4.76971619571654
15 1 2.476477641431908 0.23379805915148744 6.945331389985046
1 1 0.866743294325459 2.373773894361784 6.780794816023649
39 1 5.457414102211177 2.9381457440271954 5.706932466328506
45 1 9.88844269097062 0.6869051131963957 3.944384781828797
35 1 9.312240584813745 3.224376062431168 4.533571718292684
52 1 7.922349233571144 2.85371625755155 6.839704309276678
3 1 9.57165120862634 1.0738936365075937 6.81878384070985
10 1 1.5744007074216253 3.781758462748745 4.802993610520369
47 1 2.8371841422488515 6.514334951690481 3.8221532738859296
30 1 1.8746240157853338 5.30790454189533 6.778617715612006
43 1 6.220877931206685 4.794462074669631 3.7590258853497174
6 1 3.952459539780166 4.036465988412614 3.696689850271571
42 1 6.637236131627318 6.869543589593098 4.896585839177598
11 1 4.584244626219257 7.205590897009357 6.544748256124863
25 1 9.86980493552336 5.267665609879844 6.267544413527514
19 1 7.408770253379145 5.504448433397962 6.591637924607897
36 1 2.380171211866489 8.040757760336758 5.581098252341108
40 1 0.31317086566633745 8.872346632353008 3.7930028764797865
59 1 3.9951575169586504 9.572645717107395 4.0305601129187965
21 1 6.178827981972276 9.71147812177056 5.075679417858275
16 1 4.943814061362421 9.638690824455821 7.108139468347996
41 1 8.560529053659753 9.540772363618244 5.978387611030851
34 1 9.42949072335153 7.413676048703619 4.954892808644997
22 1 0.13448171955616736 0.36648856892037635 9.236356149098818
54 1 3.570145216280005 1.7529784284693366 9.207931340046727
60 1 0.5479401795625203 2.7818989144415034 9.421541004542151
51 1 5.659530333219123 1.3619093886142122 7.706269195614898
31 1 6.0651017883275555 3.3755401765580464 9.982370378988406
5 1 7.807444416418904 0.5249051873206553 9.123524620916326
55 1 2.4007310793658476 6.561173902738457 10.523004870597255
18 1 2.6338708022764123 3.9574000043656596 8.963383584164788
32 1 0.39324249750774076 5.864142398032296 9.435214701017099
49 1 4.44546647262446 4.613505327385489 7.228311187207339
13 1 6.787804375069062 5.373732048949914 8.948081628691448
50 1 9.364405497378357 4.046359377839387 8.83702678007244
7 1 2.3745708884808714 10.31507060727888 9.469535118466608
33 1 2.4262188833258094 7.969602663593997 8.145511740358845
9 1 5.792957960435485 7.911335518486195 8.788408023187335
57 1 9.878982838371025 8.368473486945847 9.954753622108345
58 1 10.623558584455463 7.785081175045297 7.579243480799324
63 1 8.126159058735539 9.008114810831374 8.261975315492775
