An instance of this daemon is already running

     Program PWSCF v.7.1 starts on 10May2023 at 10:43:10 

     This program is part of the open-source Quantum ESPRESSO suite
     for quantum simulation of materials; please cite
         "P. Giannozzi et al., J. Phys.:Condens. Matter 21 395502 (2009);
         "P. Giannozzi et al., J. Phys.:Condens. Matter 29 465901 (2017);
         "P. Giannozzi et al., J. Chem. Phys. 152 154105 (2020);
          URL http://www.quantum-espresso.org", 
     in publications or presentations arising from this work. More details at
     http://www.quantum-espresso.org/quote

     Parallel version (MPI & OpenMP), running on       4 processor cores
     Number of MPI processes:                 4
     Threads/MPI process:                     1

     MPI processes distributed on     1 nodes
     753561 MiB available memory on the printing compute node when the environment starts
 
     Reading input from pw-si-35.in
Warning: card &CELL ignored
Warning: card / ignored

     Current dimensions of program PWSCF are:
     Max number of different atomic species (ntypx) = 10
     Max number of k-points (npk) =  40000
     Max angular momentum in pseudopotentials (lmaxx) =  4

     IMPORTANT: XC functional enforced from input :
     Exchange-correlation= PBE
                           (   1   4   3   4   0   0   0)
     Any further DFT definition will be discarded
     Please, verify this is what you really want


     gamma-point specific algorithms are used
 
     K-points division:     npool     =       2
     R & G space division:  proc/nbgrp/npool/nimage =       2
     Subspace diagonalization in iterative solution of the eigenvalue problem:
     a serial algorithm will be used

     Message from routine divide_et_impera:
     suboptimal parallelization: some nodes have no k-points
 
     Parallelization info
     --------------------
     sticks:   dense  smooth     PW     G-vecs:    dense   smooth      PW
     Min        1933    1933    515                90543    90543   12286
     Max        1936    1936    518                90548    90548   12287
     Sum        3869    3869   1033               181091   181091   24573
 
     Using Slab Decomposition
 


     bravais-lattice index     =            0
     lattice parameter (alat)  =      20.1337  a.u.
     unit-cell volume          =    8161.4694 (a.u.)^3
     number of atoms/cell      =           64
     number of atomic types    =            1
     number of electrons       =       256.00
     number of Kohn-Sham states=          154
     kinetic-energy cutoff     =      30.0000  Ry
     charge density cutoff     =     120.0000  Ry
     scf convergence threshold =      1.0E-06
     mixing beta               =       0.5000
     number of iterations used =            8  plain     mixing
     Exchange-correlation= PBE
                           (   1   4   3   4   0   0   0)

     GPU acceleration is ACTIVE.
     GPU-aware MPI enabled

     Message from routine print_cuda_info:
     High GPU oversubscription detected. Are you sure this is what you want?

     celldm(1)=  20.133663  celldm(2)=   0.000000  celldm(3)=   0.000000
     celldm(4)=   0.000000  celldm(5)=   0.000000  celldm(6)=   0.000000

     crystal axes: (cart. coord. in units of alat)
               a(1) = (   1.000000   0.000000   0.000000 )  
               a(2) = (   0.000000   1.000000   0.000000 )  
               a(3) = (   0.000000   0.000000   1.000000 )  

     reciprocal axes: (cart. coord. in units 2 pi/alat)
               b(1) = (  1.000000  0.000000  0.000000 )  
               b(2) = (  0.000000  1.000000  0.000000 )  
               b(3) = (  0.000000  0.000000  1.000000 )  


     PseudoPot. # 1 for Si read from file:
     /home/ppiaggi/pseudos/Si_ONCV_PBE_sr.upf
     MD5 check sum: 8553c464762ac42b85b1eed164b4d029
     Pseudo is Norm-conserving, Zval =  4.0
     Generated using ONCVPSP code by D. R. Hamann
     Using radial grid of 1510 points,  4 beta functions with: 
                l(1) =   0
                l(2) =   0
                l(3) =   1
                l(4) =   1

     atomic species   valence    mass     pseudopotential
        Si             4.00    28.08500     Si( 1.00)

     No symmetry found



   Cartesian axes

     site n.     atom                  positions (alat units)
         1           Si  tau(   1) = (   0.6315030   0.3528860   0.0793239  )
         2           Si  tau(   2) = (   0.7955070   0.7023130   0.9857350  )
         3           Si  tau(   3) = (   0.0424914   0.8208980   0.1671980  )
         4           Si  tau(   4) = (   0.1774740   0.2772820   0.4207280  )
         5           Si  tau(   5) = (   0.7153200   0.4897360   0.2367570  )
         6           Si  tau(   6) = (   0.6664290   0.8555640   0.7445980  )
         7           Si  tau(   7) = (   0.5429880   0.4133710   0.7563230  )
         8           Si  tau(   8) = (   0.2822130   0.3717230   0.9546490  )
         9           Si  tau(   9) = (   0.5407800   0.9088100   0.4815240  )
        10           Si  tau(  10) = (   0.4174790   0.6689050   0.2043940  )
        11           Si  tau(  11) = (   0.2789730   0.5653590   0.3823000  )
        12           Si  tau(  12) = (   0.1117450   0.2750950   0.7674020  )
        13           Si  tau(  13) = (   0.3121110   0.7075720   0.7497240  )
        14           Si  tau(  14) = (   0.5929340   0.0639104   0.3211510  )
        15           Si  tau(  15) = (   0.5445760   0.6775980   0.8106560  )
        16           Si  tau(  16) = (   0.8700800   0.6484740   0.1806770  )
        17           Si  tau(  17) = (   0.4768930   0.2645910   0.9136590  )
        18           Si  tau(  18) = (   0.3629760   0.8046130   0.4817460  )
        19           Si  tau(  19) = (   0.6782820   0.9677290   0.1177460  )
        20           Si  tau(  20) = (   0.6609010   0.2521020   0.6624970  )
        21           Si  tau(  21) = (   0.4241870   0.3837340   0.2202250  )
        22           Si  tau(  22) = (   0.5887160   0.6924120   0.3559670  )
        23           Si  tau(  23) = (   0.7644230   0.8347880   0.2826330  )
        24           Si  tau(  24) = (   0.7822300   0.8646960   0.5263520  )
        25           Si  tau(  25) = (   0.0168581   0.5104600   0.0570194  )
        26           Si  tau(  26) = (   0.0477779   0.1346440   0.0482772  )
        27           Si  tau(  27) = (   0.1468990   0.0650586   0.3824250  )
        28           Si  tau(  28) = (   0.3571350   0.3094240   0.5365730  )
        29           Si  tau(  29) = (   0.8613320   0.1472670   0.7798830  )
        30           Si  tau(  30) = (   0.8720400   0.4870920   0.7299480  )
        31           Si  tau(  31) = (   0.5323270   0.0363891   0.8878100  )
        32           Si  tau(  32) = (   0.2724270   0.9084800   0.2824350  )
        33           Si  tau(  33) = (   0.5299430   0.0858855   0.6689870  )
        34           Si  tau(  34) = (   0.0235012   0.3255940   0.5708930  )
        35           Si  tau(  35) = (   0.7175890   0.5001400   0.9052380  )
        36           Si  tau(  36) = (   0.9830660   0.0463440   0.2229960  )
        37           Si  tau(  37) = (   0.7612890   0.1783620   0.0973261  )
        38           Si  tau(  38) = (   0.0903363   0.7155630   0.3720720  )
        39           Si  tau(  39) = (   0.2286340   0.2488820   0.1325560  )
        40           Si  tau(  40) = (   0.8114440   0.9754150   0.8836390  )
        41           Si  tau(  41) = (   0.3901240   0.9196490   0.0141729  )
        42           Si  tau(  42) = (   0.3250340   0.1936220   0.7193320  )
        43           Si  tau(  43) = (   0.6103160   0.5010200   0.4628470  )
        44           Si  tau(  44) = (   0.5841190   0.7685820   0.0663162  )
        45           Si  tau(  45) = (   0.5156650   0.2885710   0.3964150  )
        46           Si  tau(  46) = (   0.9299590   0.3198750   0.9530950  )
        47           Si  tau(  47) = (   0.9886890   0.7829250   0.5655550  )
        48           Si  tau(  48) = (   0.8151620   0.0737636   0.4119120  )
        49           Si  tau(  49) = (   0.9805370   0.0863382   0.5873260  )
        50           Si  tau(  50) = (   0.9474490   0.5173110   0.4000030  )
        51           Si  tau(  51) = (   0.7909350   0.5955870   0.5578380  )
        52           Si  tau(  52) = (   0.1001100   0.0329406   0.8543540  )
        53           Si  tau(  53) = (   0.4047080   0.5475600   0.5831210  )
        54           Si  tau(  54) = (   0.1907790   0.9326700   0.5679830  )
        55           Si  tau(  55) = (   0.9018830   0.3102700   0.2300260  )
        56           Si  tau(  56) = (   0.0181059   0.6650110   0.7360880  )
        57           Si  tau(  57) = (   0.4335910   0.5331990   0.9924250  )
        58           Si  tau(  58) = (   0.2962520   0.9421380   0.7907390  )
        59           Si  tau(  59) = (   0.0034744   0.8191520   0.9227610  )
        60           Si  tau(  60) = (   0.1825290   0.5867010   0.8845910  )
        61           Si  tau(  61) = (   0.2320820   0.7163200   0.0485609  )
        62           Si  tau(  62) = (   0.7736740   0.2944040   0.4559140  )
        63           Si  tau(  63) = (   0.3739320   0.0738921   0.1924250  )
        64           Si  tau(  64) = (   0.1293100   0.4182540   0.2620540  )

     number of k points=     1  Fermi-Dirac smearing, width (Ry)=  0.0100
                       cart. coord. in units 2pi/alat
        k(    1) = (   0.0000000   0.0000000   0.0000000), wk =   2.0000000

     Dense  grid:    90546 G-vectors     FFT dimensions: (  72,  72,  72)

     Estimated max dynamical RAM per process >     145.40 MB

     Estimated total dynamical RAM >     559.50 MB

     Initial potential from superposition of free atoms

     starting charge     255.9608, renormalised to     256.0000
     Starting wfcs are  256 randomized atomic wfcs

     total cpu time spent up to now is        5.0 secs

     Self-consistent Calculation

     iteration #  1     ecut=    30.00 Ry     beta= 0.50
     Davidson diagonalization with overlap
     ethr =  1.00E-02,  avg # of iterations =  3.0

     Threshold (ethr) on eigenvalues was too large:
     Diagonalizing with lowered threshold

     Davidson diagonalization with overlap
     ethr =  3.87E-04,  avg # of iterations =  4.0

     total cpu time spent up to now is        5.3 secs

     total energy              =    -501.36981219 Ry
     estimated scf accuracy    <       1.16698892 Ry

     iteration #  2     ecut=    30.00 Ry     beta= 0.50
     Davidson diagonalization with overlap
     ethr =  4.56E-04,  avg # of iterations =  3.0

     total cpu time spent up to now is        5.4 secs

     total energy              =    -501.01554661 Ry
     estimated scf accuracy    <       3.19154969 Ry

     iteration #  3     ecut=    30.00 Ry     beta= 0.50
     Davidson diagonalization with overlap
     ethr =  4.56E-04,  avg # of iterations =  4.0

     total cpu time spent up to now is        5.5 secs

     total energy              =    -501.30848004 Ry
     estimated scf accuracy    <       3.08712126 Ry

     iteration #  4     ecut=    30.00 Ry     beta= 0.50
     Davidson diagonalization with overlap
     ethr =  4.56E-04,  avg # of iterations =  2.0

     total cpu time spent up to now is        5.6 secs

     total energy              =    -501.49478356 Ry
     estimated scf accuracy    <       0.46669958 Ry

     iteration #  5     ecut=    30.00 Ry     beta= 0.50
     Davidson diagonalization with overlap
     ethr =  1.82E-04,  avg # of iterations =  2.0

     total cpu time spent up to now is        5.7 secs

     total energy              =    -501.52821270 Ry
     estimated scf accuracy    <       0.29672675 Ry

     iteration #  6     ecut=    30.00 Ry     beta= 0.50
     Davidson diagonalization with overlap
     ethr =  1.16E-04,  avg # of iterations =  2.0

     total cpu time spent up to now is        5.8 secs

     total energy              =    -501.55574286 Ry
     estimated scf accuracy    <       0.13187304 Ry

     iteration #  7     ecut=    30.00 Ry     beta= 0.50
     Davidson diagonalization with overlap
     ethr =  5.15E-05,  avg # of iterations =  2.0

     total cpu time spent up to now is        5.9 secs

     total energy              =    -501.56718361 Ry
     estimated scf accuracy    <       0.01000679 Ry

     iteration #  8     ecut=    30.00 Ry     beta= 0.50
     Davidson diagonalization with overlap
     ethr =  3.91E-06,  avg # of iterations = 13.0

     total cpu time spent up to now is        6.1 secs

     total energy              =    -501.56786860 Ry
     estimated scf accuracy    <       0.02166621 Ry

     iteration #  9     ecut=    30.00 Ry     beta= 0.50
     Davidson diagonalization with overlap
     ethr =  3.91E-06,  avg # of iterations =  2.0

     total cpu time spent up to now is        6.2 secs

     total energy              =    -501.56981232 Ry
     estimated scf accuracy    <       0.00206446 Ry

     iteration # 10     ecut=    30.00 Ry     beta= 0.50
     Davidson diagonalization with overlap
     ethr =  8.06E-07,  avg # of iterations =  2.0

     total cpu time spent up to now is        6.3 secs

     total energy              =    -501.56992468 Ry
     estimated scf accuracy    <       0.00116574 Ry

     iteration # 11     ecut=    30.00 Ry     beta= 0.50
     Davidson diagonalization with overlap
     ethr =  4.55E-07,  avg # of iterations =  2.0

     total cpu time spent up to now is        6.4 secs

     total energy              =    -501.57001342 Ry
     estimated scf accuracy    <       0.00054389 Ry

     iteration # 12     ecut=    30.00 Ry     beta= 0.50
     Davidson diagonalization with overlap
     ethr =  2.12E-07,  avg # of iterations =  2.0

     total cpu time spent up to now is        6.5 secs

     total energy              =    -501.57006010 Ry
     estimated scf accuracy    <       0.00022116 Ry

     iteration # 13     ecut=    30.00 Ry     beta= 0.50
     Davidson diagonalization with overlap
     ethr =  8.64E-08,  avg # of iterations =  2.0

     total cpu time spent up to now is        6.6 secs

     total energy              =    -501.57007626 Ry
     estimated scf accuracy    <       0.00010600 Ry

     iteration # 14     ecut=    30.00 Ry     beta= 0.50
     Davidson diagonalization with overlap
     ethr =  4.14E-08,  avg # of iterations =  2.0

     total cpu time spent up to now is        6.7 secs

     total energy              =    -501.57008449 Ry
     estimated scf accuracy    <       0.00003251 Ry

     iteration # 15     ecut=    30.00 Ry     beta= 0.50
     Davidson diagonalization with overlap
     ethr =  1.27E-08,  avg # of iterations =  2.0

     total cpu time spent up to now is        6.8 secs

     total energy              =    -501.57008588 Ry
     estimated scf accuracy    <       0.00001883 Ry

     iteration # 16     ecut=    30.00 Ry     beta= 0.50
     Davidson diagonalization with overlap
     ethr =  7.36E-09,  avg # of iterations =  2.0

     total cpu time spent up to now is        6.9 secs

     total energy              =    -501.57008769 Ry
     estimated scf accuracy    <       0.00001574 Ry

     iteration # 17     ecut=    30.00 Ry     beta= 0.50
     Davidson diagonalization with overlap
     ethr =  6.15E-09,  avg # of iterations =  1.0

     total cpu time spent up to now is        7.0 secs

     total energy              =    -501.57008831 Ry
     estimated scf accuracy    <       0.00000575 Ry

     iteration # 18     ecut=    30.00 Ry     beta= 0.50
     Davidson diagonalization with overlap
     ethr =  2.24E-09,  avg # of iterations =  2.0

     total cpu time spent up to now is        7.1 secs

     total energy              =    -501.57008889 Ry
     estimated scf accuracy    <       0.00000173 Ry

     iteration # 19     ecut=    30.00 Ry     beta= 0.50
     Davidson diagonalization with overlap
     ethr =  6.75E-10,  avg # of iterations =  2.0

     total cpu time spent up to now is        7.1 secs

     End of self-consistent calculation

          k = 0.0000 0.0000 0.0000 ( 11372 PWs)   bands (ev):

    -5.3610  -4.3762  -4.3252  -4.2544  -4.1825  -4.1110  -3.9517  -3.4617
    -3.3150  -3.2423  -3.1662  -3.0984  -3.0409  -2.9407  -2.9029  -2.7838
    -2.7244  -2.6730  -2.5733  -2.1908  -2.1004  -1.9634  -1.9182  -1.7297
    -1.5762  -1.4382  -1.3350  -0.9922  -0.9052  -0.8334  -0.6117  -0.5453
    -0.3797  -0.2906  -0.1459  -0.0449  -0.0006   0.1201   0.1670   0.1967
     0.2982   0.4206   0.5034   0.6848   0.7042   0.8007   0.8099   0.8904
     0.9315   1.1182   1.1732   1.2032   1.2450   1.3755   1.4746   1.4976
     1.7042   1.8275   1.9530   2.0075   2.2251   2.2882   2.3657   2.4258
     2.5733   2.6274   2.6656   2.6989   2.7807   2.9213   2.9799   3.0074
     3.0530   3.1111   3.1977   3.2521   3.2703   3.4049   3.5029   3.6503
     3.8098   4.0567   4.2144   4.2346   4.3430   4.4008   4.4945   4.6401
     4.6575   4.7118   4.7632   4.8536   4.9430   5.0768   5.0889   5.2170
     5.3238   5.3692   5.4067   5.4506   5.4941   5.5366   5.5861   5.6337
     5.7352   5.7599   5.8518   5.8797   5.9209   5.9668   6.0268   6.0746
     6.1102   6.1839   6.2348   6.2835   6.4327   6.4498   6.4642   6.5258
     6.5489   6.6828   6.7100   6.7780   6.8650   6.9664   6.9845   7.0004
     7.0816   7.1055   7.1327   7.1806   7.2031   7.3066   7.3907   7.4702
     7.4928   7.6285   7.6623   7.7348   7.8220   7.9831   8.0037   8.0927
     8.1089   8.2881   8.3082   8.3770   8.4308   8.4856   8.5175   8.6349
     8.6809   8.7575

     the Fermi energy is     7.0319 ev

!    total energy              =    -501.57008900 Ry
     estimated scf accuracy    <       0.00000010 Ry
     smearing contrib. (-TS)   =      -0.16455559 Ry
     internal energy E=F+TS    =    -501.40553341 Ry

     The total energy is F=E-TS. E is the sum of the following terms:
     one-electron contribution =     187.55903930 Ry
     hartree contribution      =      24.11626778 Ry
     xc contribution           =    -151.09113563 Ry
     ewald contribution        =    -561.98970485 Ry

     convergence has been achieved in  19 iterations

     Forces acting on atoms (cartesian axes, Ry/au):

     atom    1 type  1   force =    -0.05384668    0.03510994   -0.02475454
     atom    2 type  1   force =    -0.02158167   -0.00051344   -0.03707486
     atom    3 type  1   force =     0.03664147    0.00358322    0.01134867
     atom    4 type  1   force =    -0.01446411   -0.00985820    0.00355644
     atom    5 type  1   force =     0.01518356    0.00866880    0.02905825
     atom    6 type  1   force =     0.01934747    0.02105504   -0.01447357
     atom    7 type  1   force =     0.01329642    0.02353086   -0.00550438
     atom    8 type  1   force =    -0.01115423   -0.00118590   -0.02160494
     atom    9 type  1   force =     0.06080079    0.04319290    0.02152536
     atom   10 type  1   force =    -0.01970201   -0.02193528   -0.00779702
     atom   11 type  1   force =    -0.00378668    0.02590699   -0.03541901
     atom   12 type  1   force =     0.00014864   -0.02381073    0.03674529
     atom   13 type  1   force =     0.05394686    0.00059327   -0.03464381
     atom   14 type  1   force =    -0.01652835    0.02282698   -0.01021037
     atom   15 type  1   force =    -0.02690464   -0.01455107    0.04391716
     atom   16 type  1   force =     0.01353691   -0.02064966    0.03273672
     atom   17 type  1   force =    -0.01421844   -0.00759649   -0.02792230
     atom   18 type  1   force =    -0.06195184   -0.03908158   -0.02153296
     atom   19 type  1   force =     0.01160374    0.02486822   -0.00200149
     atom   20 type  1   force =     0.07535759    0.01395366   -0.01970519
     atom   21 type  1   force =     0.00301960    0.02852094   -0.04160970
     atom   22 type  1   force =    -0.00012740    0.03471784   -0.02868033
     atom   23 type  1   force =    -0.00094628   -0.02222576    0.02150233
     atom   24 type  1   force =    -0.01437837   -0.00479836   -0.00403307
     atom   25 type  1   force =     0.01861369   -0.01383904    0.02645829
     atom   26 type  1   force =     0.02249480    0.07227127   -0.06301040
     atom   27 type  1   force =    -0.02002958   -0.00443472    0.01161094
     atom   28 type  1   force =    -0.00284008    0.02875755    0.02889260
     atom   29 type  1   force =     0.00831033    0.06891968   -0.04643199
     atom   30 type  1   force =     0.02381955    0.00483911    0.00053822
     atom   31 type  1   force =     0.00945136    0.01186941    0.00920558
     atom   32 type  1   force =    -0.01733799   -0.05859985    0.02631516
     atom   33 type  1   force =    -0.03096025   -0.05612670   -0.03350871
     atom   34 type  1   force =    -0.04238445    0.00968887    0.00927960
     atom   35 type  1   force =    -0.01949080    0.00389699   -0.01477115
     atom   36 type  1   force =    -0.03200042   -0.04905422    0.08160216
     atom   37 type  1   force =     0.03144814   -0.01691978    0.00246077
     atom   38 type  1   force =     0.01683002   -0.02530122    0.00368831
     atom   39 type  1   force =     0.00677905    0.00879929    0.00456399
     atom   40 type  1   force =    -0.00854939   -0.08084528    0.04752122
     atom   41 type  1   force =    -0.00239450   -0.03194106    0.00337791
     atom   42 type  1   force =     0.01245998   -0.03284472    0.03122458
     atom   43 type  1   force =     0.00137128   -0.00573262    0.00070460
     atom   44 type  1   force =    -0.03062315    0.00477776   -0.02900990
     atom   45 type  1   force =     0.06016931   -0.00935848   -0.01568455
     atom   46 type  1   force =     0.01659227   -0.03574820   -0.00687244
     atom   47 type  1   force =     0.03195853    0.04230466   -0.04233200
     atom   48 type  1   force =     0.01242927   -0.00090148   -0.00737935
     atom   49 type  1   force =    -0.00411736    0.01724992    0.00219862
     atom   50 type  1   force =    -0.00077058   -0.00178151   -0.00368000
     atom   51 type  1   force =    -0.00115944    0.00102351   -0.01814028
     atom   52 type  1   force =    -0.01820427    0.00622995   -0.00201740
     atom   53 type  1   force =    -0.00117867   -0.01526929    0.00465417
     atom   54 type  1   force =    -0.03053184   -0.00238157    0.02495939
     atom   55 type  1   force =    -0.02302607    0.01235136    0.02131034
     atom   56 type  1   force =    -0.00786734   -0.03983571    0.07117427
     atom   57 type  1   force =     0.00873860    0.01579924    0.03253565
     atom   58 type  1   force =    -0.01382503    0.01112017   -0.02325641
     atom   59 type  1   force =    -0.03674903    0.01263293   -0.01626828
     atom   60 type  1   force =    -0.01593185   -0.02864363    0.00574741
     atom   61 type  1   force =     0.02000748    0.04060329    0.04299042
     atom   62 type  1   force =     0.00455656   -0.00794380    0.00595035
     atom   63 type  1   force =     0.02605395    0.01065608   -0.02381101
     atom   64 type  1   force =    -0.01540440    0.01338968   -0.01621335

     Total force =     0.379355     Total SCF correction =     0.000553


     Computing stress (Cartesian axis) and pressure

          total   stress  (Ry/bohr**3)                   (kbar)     P=      -23.85
  -0.00015396   0.00006393   0.00002856          -22.65        9.40        4.20
   0.00006393  -0.00024781  -0.00005920            9.40      -36.45       -8.71
   0.00002856  -0.00005920  -0.00008452            4.20       -8.71      -12.43

 
     init_run     :      1.09s CPU      4.94s WALL (       1 calls)
     electrons    :      1.96s CPU      2.12s WALL (       1 calls)
     forces       :      0.04s CPU      0.04s WALL (       1 calls)
     stress       :      0.15s CPU      0.16s WALL (       1 calls)

     Called by init_run:
     wfcinit      :      0.55s CPU      4.22s WALL (       1 calls)
                                        4.22s GPU  (       1 calls)
     potinit      :      0.05s CPU      0.15s WALL (       1 calls)
     hinit0       :      0.47s CPU      0.50s WALL (       1 calls)

     Called by electrons:
     c_bands      :      1.14s CPU      1.23s WALL (      20 calls)
     sum_band     :      0.40s CPU      0.44s WALL (      20 calls)
     v_of_rho     :      0.18s CPU      0.30s WALL (      20 calls)
     mix_rho      :      0.19s CPU      0.21s WALL (      20 calls)

     Called by c_bands:
     init_us_2    :      0.07s CPU      0.08s WALL (      41 calls)
     init_us_2:gp :      0.07s CPU      0.08s WALL (      41 calls)
     regterg      :      0.96s CPU      1.04s WALL (      20 calls)

     Called by *egterg:
     rdiaghg      :      0.38s CPU      1.14s WALL (      75 calls)
                                        1.13s GPU  (      75 calls)
     h_psi        :      0.95s CPU      3.91s WALL (      77 calls)
                                        3.91s GPU  (      77 calls)
     g_psi        :      0.00s CPU      0.00s WALL (      56 calls)
                                        0.00s GPU  (      56 calls)

     Called by h_psi:
     h_psi:calbec :      0.52s CPU      3.39s WALL (      77 calls)
                                        3.39s GPU  (      77 calls)
     vloc_psi     :      0.39s CPU      0.47s WALL (      77 calls)
                                        0.46s GPU  (      77 calls)
     add_vuspsi   :      0.03s CPU      0.04s WALL (      77 calls)
                                        0.04s GPU  (      77 calls)

     General routines
     calbec       :      0.52s CPU      3.39s WALL (      82 calls)
     fft          :      0.63s CPU      0.77s WALL (     167 calls)
                                        0.14s GPU  (     106 calls)
     ffts         :      0.05s CPU      0.05s WALL (      20 calls)
     fftw         :      0.47s CPU      0.63s WALL (    2070 calls)
                                        0.55s GPU  (    2070 calls)
 
     Parallel routines
 
     PWSCF        :      3.28s CPU      7.37s WALL

 
   This run was terminated on:  10:43:17  10May2023            

=------------------------------------------------------------------------------=
   JOB DONE.
=------------------------------------------------------------------------------=
