An instance of this daemon is already running
An instance of this daemon is already running

     Program PWSCF v.7.1 starts on 10May2023 at 10:51:55 

     This program is part of the open-source Quantum ESPRESSO suite
     for quantum simulation of materials; please cite
         "P. Giannozzi et al., J. Phys.:Condens. Matter 21 395502 (2009);
         "P. Giannozzi et al., J. Phys.:Condens. Matter 29 465901 (2017);
         "P. Giannozzi et al., J. Chem. Phys. 152 154105 (2020);
          URL http://www.quantum-espresso.org", 
     in publications or presentations arising from this work. More details at
     http://www.quantum-espresso.org/quote

     Parallel version (MPI & OpenMP), running on       4 processor cores
     Number of MPI processes:                 4
     Threads/MPI process:                     1

     MPI processes distributed on     1 nodes
     753541 MiB available memory on the printing compute node when the environment starts
 
     Reading input from pw-si-89.in
Warning: card &CELL ignored
Warning: card / ignored

     Current dimensions of program PWSCF are:
     Max number of different atomic species (ntypx) = 10
     Max number of k-points (npk) =  40000
     Max angular momentum in pseudopotentials (lmaxx) =  4

     IMPORTANT: XC functional enforced from input :
     Exchange-correlation= PBE
                           (   1   4   3   4   0   0   0)
     Any further DFT definition will be discarded
     Please, verify this is what you really want


     gamma-point specific algorithms are used
 
     K-points division:     npool     =       2
     R & G space division:  proc/nbgrp/npool/nimage =       2
     Subspace diagonalization in iterative solution of the eigenvalue problem:
     a serial algorithm will be used

     Message from routine divide_et_impera:
     suboptimal parallelization: some nodes have no k-points
 
     Parallelization info
     --------------------
     sticks:   dense  smooth     PW     G-vecs:    dense   smooth      PW
     Min        1933    1933    515                90495    90495   12286
     Max        1936    1936    518                90500    90500   12287
     Sum        3869    3869   1033               180995   180995   24573
 
     Using Slab Decomposition
 


     bravais-lattice index     =            0
     lattice parameter (alat)  =      20.1310  a.u.
     unit-cell volume          =    8158.2558 (a.u.)^3
     number of atoms/cell      =           64
     number of atomic types    =            1
     number of electrons       =       256.00
     number of Kohn-Sham states=          154
     kinetic-energy cutoff     =      30.0000  Ry
     charge density cutoff     =     120.0000  Ry
     scf convergence threshold =      1.0E-06
     mixing beta               =       0.5000
     number of iterations used =            8  plain     mixing
     Exchange-correlation= PBE
                           (   1   4   3   4   0   0   0)

     GPU acceleration is ACTIVE.
     GPU-aware MPI enabled

     Message from routine print_cuda_info:
     High GPU oversubscription detected. Are you sure this is what you want?

     celldm(1)=  20.131020  celldm(2)=   0.000000  celldm(3)=   0.000000
     celldm(4)=   0.000000  celldm(5)=   0.000000  celldm(6)=   0.000000

     crystal axes: (cart. coord. in units of alat)
               a(1) = (   1.000000   0.000000   0.000000 )  
               a(2) = (   0.000000   1.000000   0.000000 )  
               a(3) = (   0.000000   0.000000   1.000000 )  

     reciprocal axes: (cart. coord. in units 2 pi/alat)
               b(1) = (  1.000000  0.000000  0.000000 )  
               b(2) = (  0.000000  1.000000  0.000000 )  
               b(3) = (  0.000000  0.000000  1.000000 )  


     PseudoPot. # 1 for Si read from file:
     /home/ppiaggi/pseudos/Si_ONCV_PBE_sr.upf
     MD5 check sum: 8553c464762ac42b85b1eed164b4d029
     Pseudo is Norm-conserving, Zval =  4.0
     Generated using ONCVPSP code by D. R. Hamann
     Using radial grid of 1510 points,  4 beta functions with: 
                l(1) =   0
                l(2) =   0
                l(3) =   1
                l(4) =   1

     atomic species   valence    mass     pseudopotential
        Si             4.00    28.08500     Si( 1.00)

     No symmetry found



   Cartesian axes

     site n.     atom                  positions (alat units)
         1           Si  tau(   1) = (   0.7932960   0.4417090   0.1617670  )
         2           Si  tau(   2) = (   0.3613690   0.6305410   0.9832130  )
         3           Si  tau(   3) = (   0.1572080   0.4394430   0.0510000  )
         4           Si  tau(   4) = (   0.5041960   0.8347100   0.1556870  )
         5           Si  tau(   5) = (   0.1463450   0.5159650   0.7839960  )
         6           Si  tau(   6) = (   0.9593480   0.2773140   0.7218050  )
         7           Si  tau(   7) = (   0.9892590   0.9863420   0.0900051  )
         8           Si  tau(   8) = (   0.1275710   0.2301870   0.0578263  )
         9           Si  tau(   9) = (   0.5878350   0.4023280   0.9836720  )
        10           Si  tau(  10) = (   0.9147650   0.8235150   0.3231090  )
        11           Si  tau(  11) = (   0.8005600   0.5685920   0.5357210  )
        12           Si  tau(  12) = (   0.9452740   0.7280680   0.5395410  )
        13           Si  tau(  13) = (   0.1534030   0.8655610   0.1188690  )
        14           Si  tau(  14) = (   0.9086940   0.4482950   0.3548950  )
        15           Si  tau(  15) = (   0.8376130   0.9294480   0.8885400  )
        16           Si  tau(  16) = (   0.5639880   0.1058140   0.5075130  )
        17           Si  tau(  17) = (   0.5834690   0.5202540   0.2898210  )
        18           Si  tau(  18) = (   0.8055820   0.2563350   0.4576520  )
        19           Si  tau(  19) = (   0.0369358   0.2114280   0.2707260  )
        20           Si  tau(  20) = (   0.2493470   0.2105280   0.6182850  )
        21           Si  tau(  21) = (   0.1450440   0.6812490   0.4899510  )
        22           Si  tau(  22) = (   0.4745400   0.2024580   0.8458590  )
        23           Si  tau(  23) = (   0.4766040   0.2337770   0.1163000  )
        24           Si  tau(  24) = (   0.2304020   0.0449573   0.7971570  )
        25           Si  tau(  25) = (   0.7691590   0.7327880   0.0069137  )
        26           Si  tau(  26) = (   0.1233450   0.4756310   0.4112090  )
        27           Si  tau(  27) = (   0.8065550   0.1979070   0.9387030  )
        28           Si  tau(  28) = (   0.6316200   0.0413562   0.0069480  )
        29           Si  tau(  29) = (   0.0414761   0.1301550   0.8915410  )
        30           Si  tau(  30) = (   0.7597500   0.9193780   0.1915430  )
        31           Si  tau(  31) = (   0.0275232   0.7194710   0.8325180  )
        32           Si  tau(  32) = (   0.4225040   0.7530850   0.3475860  )
        33           Si  tau(  33) = (   0.6245410   0.2509010   0.3211290  )
        34           Si  tau(  34) = (   0.6649100   0.3683270   0.6185810  )
        35           Si  tau(  35) = (   0.9461590   0.5802330   0.0394811  )
        36           Si  tau(  36) = (   0.3703040   0.9685830   0.6077780  )
        37           Si  tau(  37) = (   0.4671950   0.6198710   0.6011860  )
        38           Si  tau(  38) = (   0.2958290   0.6398360   0.2188650  )
        39           Si  tau(  39) = (   0.7762410   0.6578620   0.7568730  )
        40           Si  tau(  40) = (   0.7913640   0.8758750   0.6722270  )
        41           Si  tau(  41) = (   0.3989900   0.9829690   0.9578700  )
        42           Si  tau(  42) = (   0.8837960   0.0737296   0.5604950  )
        43           Si  tau(  43) = (   0.0356280   0.0058285   0.3922420  )
        44           Si  tau(  44) = (   0.8298070   0.2030070   0.1747520  )
        45           Si  tau(  45) = (   0.5567280   0.9414360   0.7409050  )
        46           Si  tau(  46) = (   0.5517300   0.6783110   0.7903680  )
        47           Si  tau(  47) = (   0.5960960   0.6828250   0.4631490  )
        48           Si  tau(  48) = (   0.2830930   0.7166560   0.6764110  )
        49           Si  tau(  49) = (   0.0545480   0.6773160   0.2137070  )
        50           Si  tau(  50) = (   0.7711770   0.4179620   0.8176010  )
        51           Si  tau(  51) = (   0.3684630   0.3568850   0.3828130  )
        52           Si  tau(  52) = (   0.6709000   0.1534800   0.7126740  )
        53           Si  tau(  53) = (   0.6819650   0.9138620   0.4545210  )
        54           Si  tau(  54) = (   0.3853850   0.4545530   0.8334090  )
        55           Si  tau(  55) = (   0.2577670   0.7944510   0.8929120  )
        56           Si  tau(  56) = (   0.2472790   0.8955590   0.4454720  )
        57           Si  tau(  57) = (   0.2766230   0.1508540   0.3734020  )
        58           Si  tau(  58) = (   0.4265170   0.3944970   0.5975150  )
        59           Si  tau(  59) = (   0.2799840   0.0598451   0.1549010  )
        60           Si  tau(  60) = (   0.4901840   0.0436809   0.2778240  )
        61           Si  tau(  61) = (   0.3638170   0.4120450   0.1742590  )
        62           Si  tau(  62) = (   0.0558294   0.9115330   0.6659950  )
        63           Si  tau(  63) = (   0.5861800   0.6234850   0.0529524  )
        64           Si  tau(  64) = (   0.1086160   0.3940680   0.6057520  )

     number of k points=     1  Fermi-Dirac smearing, width (Ry)=  0.0100
                       cart. coord. in units 2pi/alat
        k(    1) = (   0.0000000   0.0000000   0.0000000), wk =   2.0000000

     Dense  grid:    90498 G-vectors     FFT dimensions: (  72,  72,  72)

     Estimated max dynamical RAM per process >     145.35 MB

     Estimated total dynamical RAM >     559.32 MB

     Initial potential from superposition of free atoms

     starting charge     255.9608, renormalised to     256.0000
     Starting wfcs are  256 randomized atomic wfcs

     total cpu time spent up to now is        5.0 secs

     Self-consistent Calculation

     iteration #  1     ecut=    30.00 Ry     beta= 0.50
     Davidson diagonalization with overlap
     ethr =  1.00E-02,  avg # of iterations =  3.0

     Threshold (ethr) on eigenvalues was too large:
     Diagonalizing with lowered threshold

     Davidson diagonalization with overlap
     ethr =  3.88E-04,  avg # of iterations =  4.0

     total cpu time spent up to now is        5.3 secs

     total energy              =    -501.23452851 Ry
     estimated scf accuracy    <       1.20163874 Ry

     iteration #  2     ecut=    30.00 Ry     beta= 0.50
     Davidson diagonalization with overlap
     ethr =  4.69E-04,  avg # of iterations =  3.0

     total cpu time spent up to now is        5.4 secs

     total energy              =    -500.83978056 Ry
     estimated scf accuracy    <       4.32219514 Ry

     iteration #  3     ecut=    30.00 Ry     beta= 0.50
     Davidson diagonalization with overlap
     ethr =  4.69E-04,  avg # of iterations =  4.0

     total cpu time spent up to now is        5.5 secs

     total energy              =    -501.24654259 Ry
     estimated scf accuracy    <       2.58948596 Ry

     iteration #  4     ecut=    30.00 Ry     beta= 0.50
     Davidson diagonalization with overlap
     ethr =  4.69E-04,  avg # of iterations =  2.0

     total cpu time spent up to now is        5.6 secs

     total energy              =    -501.40674884 Ry
     estimated scf accuracy    <       0.60159782 Ry

     iteration #  5     ecut=    30.00 Ry     beta= 0.50
     Davidson diagonalization with overlap
     ethr =  2.35E-04,  avg # of iterations =  2.0

     total cpu time spent up to now is        5.7 secs

     total energy              =    -501.44094331 Ry
     estimated scf accuracy    <       0.40717426 Ry

     iteration #  6     ecut=    30.00 Ry     beta= 0.50
     Davidson diagonalization with overlap
     ethr =  1.59E-04,  avg # of iterations =  2.0

     total cpu time spent up to now is        5.8 secs

     total energy              =    -501.48063527 Ry
     estimated scf accuracy    <       0.11306645 Ry

     iteration #  7     ecut=    30.00 Ry     beta= 0.50
     Davidson diagonalization with overlap
     ethr =  4.42E-05,  avg # of iterations =  2.0

     total cpu time spent up to now is        5.9 secs

     total energy              =    -501.48974011 Ry
     estimated scf accuracy    <       0.02139130 Ry

     iteration #  8     ecut=    30.00 Ry     beta= 0.50
     Davidson diagonalization with overlap
     c_bands:  1 eigenvalues not converged
     ethr =  8.36E-06,  avg # of iterations = 20.0

     total cpu time spent up to now is        6.1 secs

     total energy              =    -501.49227010 Ry
     estimated scf accuracy    <       0.02247988 Ry

     iteration #  9     ecut=    30.00 Ry     beta= 0.50
     Davidson diagonalization with overlap
     ethr =  8.36E-06,  avg # of iterations =  2.0

     total cpu time spent up to now is        6.2 secs

     total energy              =    -501.49385184 Ry
     estimated scf accuracy    <       0.00189881 Ry

     iteration # 10     ecut=    30.00 Ry     beta= 0.50
     Davidson diagonalization with overlap
     ethr =  7.42E-07,  avg # of iterations = 10.0

     total cpu time spent up to now is        6.4 secs

     total energy              =    -501.49405598 Ry
     estimated scf accuracy    <       0.00281151 Ry

     iteration # 11     ecut=    30.00 Ry     beta= 0.50
     Davidson diagonalization with overlap
     ethr =  7.42E-07,  avg # of iterations =  2.0

     total cpu time spent up to now is        6.5 secs

     total energy              =    -501.49427030 Ry
     estimated scf accuracy    <       0.00046101 Ry

     iteration # 12     ecut=    30.00 Ry     beta= 0.50
     Davidson diagonalization with overlap
     ethr =  1.80E-07,  avg # of iterations =  2.0

     total cpu time spent up to now is        6.6 secs

     total energy              =    -501.49430503 Ry
     estimated scf accuracy    <       0.00027602 Ry

     iteration # 13     ecut=    30.00 Ry     beta= 0.50
     Davidson diagonalization with overlap
     ethr =  1.08E-07,  avg # of iterations =  2.0

     total cpu time spent up to now is        6.7 secs

     total energy              =    -501.49432760 Ry
     estimated scf accuracy    <       0.00018378 Ry

     iteration # 14     ecut=    30.00 Ry     beta= 0.50
     Davidson diagonalization with overlap
     ethr =  7.18E-08,  avg # of iterations =  2.0

     total cpu time spent up to now is        6.8 secs

     total energy              =    -501.49434088 Ry
     estimated scf accuracy    <       0.00003010 Ry

     iteration # 15     ecut=    30.00 Ry     beta= 0.50
     Davidson diagonalization with overlap
     ethr =  1.18E-08,  avg # of iterations =  2.0

     total cpu time spent up to now is        6.9 secs

     total energy              =    -501.49434329 Ry
     estimated scf accuracy    <       0.00002304 Ry

     iteration # 16     ecut=    30.00 Ry     beta= 0.50
     Davidson diagonalization with overlap
     ethr =  9.00E-09,  avg # of iterations =  2.0

     total cpu time spent up to now is        7.0 secs

     total energy              =    -501.49434569 Ry
     estimated scf accuracy    <       0.00000531 Ry

     iteration # 17     ecut=    30.00 Ry     beta= 0.50
     Davidson diagonalization with overlap
     ethr =  2.07E-09,  avg # of iterations =  2.0

     total cpu time spent up to now is        7.1 secs

     total energy              =    -501.49434585 Ry
     estimated scf accuracy    <       0.00000224 Ry

     iteration # 18     ecut=    30.00 Ry     beta= 0.50
     Davidson diagonalization with overlap
     ethr =  8.77E-10,  avg # of iterations =  3.0

     total cpu time spent up to now is        7.2 secs

     total energy              =    -501.49434602 Ry
     estimated scf accuracy    <       0.00000494 Ry

     iteration # 19     ecut=    30.00 Ry     beta= 0.50
     Davidson diagonalization with overlap
     ethr =  8.77E-10,  avg # of iterations =  2.0

     total cpu time spent up to now is        7.2 secs

     End of self-consistent calculation

          k = 0.0000 0.0000 0.0000 ( 11324 PWs)   bands (ev):

    -5.3290  -4.4002  -4.3333  -4.2016  -4.0579  -3.9747  -3.9012  -3.5252
    -3.3081  -3.1820  -3.1193  -3.0159  -2.9578  -2.9286  -2.8153  -2.7855
    -2.6219  -2.5648  -2.3882  -2.1461  -1.9965  -1.9158  -1.8486  -1.7439
    -1.6246  -1.3525  -1.2020  -1.0103  -0.7726  -0.6387  -0.5433  -0.4583
    -0.3024  -0.1769  -0.0951  -0.0346   0.1331   0.1445   0.1574   0.3076
     0.3325   0.4282   0.5421   0.5787   0.5828   0.7062   0.8428   0.9314
     1.0023   1.1770   1.2527   1.3568   1.4223   1.5104   1.5530   1.6900
     1.7132   1.8630   1.9384   2.0040   2.0688   2.2064   2.3863   2.4068
     2.4721   2.5935   2.6533   2.7717   2.7926   2.8552   2.8931   3.0471
     3.0657   3.1128   3.2634   3.3485   3.4359   3.4978   3.6379   3.7642
     3.8726   4.1160   4.2818   4.3834   4.4780   4.5197   4.6394   4.7170
     4.7957   4.8125   4.8766   4.9344   5.0290   5.0671   5.1466   5.2367
     5.3097   5.3472   5.4114   5.4477   5.4663   5.5188   5.5535   5.6703
     5.6857   5.7798   5.7960   5.8149   5.9195   5.9643   6.0231   6.0555
     6.1626   6.1996   6.2309   6.3198   6.3802   6.4444   6.5224   6.5898
     6.6061   6.6363   6.7286   6.7659   6.8290   6.9278   6.9918   7.0314
     7.0812   7.1233   7.1481   7.2289   7.3249   7.4347   7.4973   7.5161
     7.5635   7.6530   7.7045   7.7663   7.8431   7.9292   7.9755   8.0165
     8.1080   8.2114   8.2147   8.2829   8.3240   8.4155   8.5059   8.5593
     8.6161   8.7066

     the Fermi energy is     7.0519 ev

!    total energy              =    -501.49434612 Ry
     estimated scf accuracy    <       0.00000029 Ry
     smearing contrib. (-TS)   =      -0.15011288 Ry
     internal energy E=F+TS    =    -501.34423324 Ry

     The total energy is F=E-TS. E is the sum of the following terms:
     one-electron contribution =     190.82421180 Ry
     hartree contribution      =      22.54553696 Ry
     xc contribution           =    -150.63755968 Ry
     ewald contribution        =    -564.07642231 Ry

     convergence has been achieved in  19 iterations

     Forces acting on atoms (cartesian axes, Ry/au):

     atom    1 type  1   force =    -0.00880705    0.00103240    0.01152085
     atom    2 type  1   force =     0.04025261   -0.03840305    0.01980074
     atom    3 type  1   force =     0.01321068    0.04260380   -0.03823563
     atom    4 type  1   force =     0.01146120    0.02541374   -0.01498632
     atom    5 type  1   force =     0.04153945    0.02446830    0.03387551
     atom    6 type  1   force =    -0.02231453   -0.02119132    0.00723611
     atom    7 type  1   force =    -0.08053843    0.06784960   -0.03168968
     atom    8 type  1   force =     0.00635545   -0.04453530    0.04956201
     atom    9 type  1   force =     0.00341907   -0.00503299   -0.02927979
     atom   10 type  1   force =     0.02704221    0.00030802    0.02114471
     atom   11 type  1   force =    -0.03598570   -0.02785303    0.00192672
     atom   12 type  1   force =    -0.02825617    0.06498432    0.01598553
     atom   13 type  1   force =     0.06732304   -0.05570446   -0.00833075
     atom   14 type  1   force =    -0.01320230   -0.02110244    0.02581094
     atom   15 type  1   force =     0.00367296   -0.00197390    0.02941540
     atom   16 type  1   force =    -0.01082107   -0.01676390   -0.00197856
     atom   17 type  1   force =     0.00598030   -0.02240463   -0.03362002
     atom   18 type  1   force =    -0.00421744    0.04372519    0.00241099
     atom   19 type  1   force =    -0.00577395   -0.02273456   -0.00972542
     atom   20 type  1   force =     0.01475181   -0.00130878   -0.00887863
     atom   21 type  1   force =     0.04271429    0.01993549    0.01101714
     atom   22 type  1   force =     0.01763194    0.00594392    0.01838596
     atom   23 type  1   force =     0.03563470   -0.02796897   -0.02223233
     atom   24 type  1   force =     0.00318702   -0.00504990   -0.03844394
     atom   25 type  1   force =     0.03293171    0.02212056   -0.01914971
     atom   26 type  1   force =     0.02309511    0.00737729   -0.04311117
     atom   27 type  1   force =    -0.01902925   -0.02354326   -0.00655178
     atom   28 type  1   force =     0.01978154    0.00915958   -0.00243716
     atom   29 type  1   force =    -0.04320118    0.00062820   -0.02185353
     atom   30 type  1   force =    -0.01532311   -0.00682632   -0.01687069
     atom   31 type  1   force =    -0.00449714   -0.00401164    0.01227692
     atom   32 type  1   force =    -0.02021328    0.05515691    0.01583642
     atom   33 type  1   force =    -0.00421448    0.00047442   -0.00858292
     atom   34 type  1   force =     0.00476345   -0.00741903   -0.00498598
     atom   35 type  1   force =     0.00015205    0.00330066    0.00744184
     atom   36 type  1   force =     0.01553919    0.01020272    0.02103563
     atom   37 type  1   force =    -0.08977801   -0.06094817    0.07453046
     atom   38 type  1   force =    -0.04663845   -0.03909535   -0.04284531
     atom   39 type  1   force =     0.01663063   -0.01175594    0.00483299
     atom   40 type  1   force =     0.00092724   -0.00485606   -0.03002860
     atom   41 type  1   force =    -0.00250424   -0.01807015   -0.00534374
     atom   42 type  1   force =     0.01540750    0.00571461    0.01936923
     atom   43 type  1   force =     0.00241622    0.00056397    0.00876977
     atom   44 type  1   force =    -0.01707518    0.01366997   -0.00799000
     atom   45 type  1   force =     0.00095065   -0.02407381    0.01441655
     atom   46 type  1   force =     0.01028822    0.03066226    0.03938517
     atom   47 type  1   force =     0.11687581    0.03081352   -0.08127872
     atom   48 type  1   force =    -0.01613115    0.00021271   -0.01758341
     atom   49 type  1   force =     0.02578300    0.01418152   -0.00155653
     atom   50 type  1   force =     0.00562009   -0.01143912   -0.00371240
     atom   51 type  1   force =    -0.00967195   -0.00697707    0.02053490
     atom   52 type  1   force =    -0.01947336   -0.00386021    0.00587606
     atom   53 type  1   force =    -0.00167612   -0.01004988    0.01265186
     atom   54 type  1   force =    -0.00583304    0.02550144    0.01206084
     atom   55 type  1   force =    -0.03340705    0.05702754    0.00755688
     atom   56 type  1   force =    -0.01058126   -0.02257483   -0.01309533
     atom   57 type  1   force =    -0.00201973   -0.01656913    0.01500598
     atom   58 type  1   force =     0.01957925   -0.00010443   -0.00206300
     atom   59 type  1   force =     0.01196233    0.01210855   -0.01429040
     atom   60 type  1   force =    -0.00853634    0.00319177   -0.00125007
     atom   61 type  1   force =    -0.01395152    0.06643219   -0.01500806
     atom   62 type  1   force =    -0.02423139   -0.01870146    0.00835025
     atom   63 type  1   force =    -0.03182643   -0.01773874    0.01020666
     atom   64 type  1   force =    -0.00715044   -0.04412331    0.03875852

     Total force =     0.381880     Total SCF correction =     0.001054


     Computing stress (Cartesian axis) and pressure

          total   stress  (Ry/bohr**3)                   (kbar)     P=      -34.00
  -0.00029236  -0.00001428   0.00003865          -43.01       -2.10        5.69
  -0.00001428  -0.00024679  -0.00003582           -2.10      -36.30       -5.27
   0.00003865  -0.00003582  -0.00015418            5.69       -5.27      -22.68

 
     init_run     :      1.10s CPU      4.96s WALL (       1 calls)
     electrons    :      2.03s CPU      2.21s WALL (       1 calls)
     forces       :      0.04s CPU      0.04s WALL (       1 calls)
     stress       :      0.16s CPU      0.16s WALL (       1 calls)

     Called by init_run:
     wfcinit      :      0.56s CPU      4.24s WALL (       1 calls)
                                        4.24s GPU  (       1 calls)
     potinit      :      0.06s CPU      0.15s WALL (       1 calls)
     hinit0       :      0.47s CPU      0.50s WALL (       1 calls)

     Called by electrons:
     c_bands      :      1.22s CPU      1.31s WALL (      20 calls)
     sum_band     :      0.40s CPU      0.44s WALL (      20 calls)
     v_of_rho     :      0.20s CPU      0.30s WALL (      20 calls)
     mix_rho      :      0.19s CPU      0.20s WALL (      20 calls)

     Called by c_bands:
     init_us_2    :      0.07s CPU      0.08s WALL (      41 calls)
     init_us_2:gp :      0.07s CPU      0.08s WALL (      41 calls)
     regterg      :      1.04s CPU      1.13s WALL (      20 calls)

     Called by *egterg:
     rdiaghg      :      0.44s CPU      1.20s WALL (      92 calls)
                                        1.19s GPU  (      92 calls)
     h_psi        :      0.97s CPU      3.95s WALL (      94 calls)
                                        3.95s GPU  (      94 calls)
     g_psi        :      0.00s CPU      0.00s WALL (      73 calls)
                                        0.00s GPU  (      73 calls)

     Called by h_psi:
     h_psi:calbec :      0.52s CPU      3.41s WALL (      94 calls)
                                        3.41s GPU  (      94 calls)
     vloc_psi     :      0.39s CPU      0.47s WALL (      94 calls)
                                        0.47s GPU  (      94 calls)
     add_vuspsi   :      0.04s CPU      0.06s WALL (      94 calls)
                                        0.06s GPU  (      94 calls)

     General routines
     calbec       :      0.53s CPU      3.41s WALL (      99 calls)
     fft          :      0.64s CPU      0.77s WALL (     167 calls)
                                        0.14s GPU  (     106 calls)
     ffts         :      0.05s CPU      0.06s WALL (      20 calls)
     fftw         :      0.47s CPU      0.63s WALL (    2106 calls)
                                        0.55s GPU  (    2106 calls)
 
     Parallel routines
 
     PWSCF        :      3.37s CPU      7.45s WALL

 
   This run was terminated on:  10:52: 2  10May2023            

=------------------------------------------------------------------------------=
   JOB DONE.
=------------------------------------------------------------------------------=
