An instance of this daemon is already running
An instance of this daemon is already running
An instance of this daemon is already running

     Program PWSCF v.7.1 starts on 10May2023 at 10:38:28 

     This program is part of the open-source Quantum ESPRESSO suite
     for quantum simulation of materials; please cite
         "P. Giannozzi et al., J. Phys.:Condens. Matter 21 395502 (2009);
         "P. Giannozzi et al., J. Phys.:Condens. Matter 29 465901 (2017);
         "P. Giannozzi et al., J. Chem. Phys. 152 154105 (2020);
          URL http://www.quantum-espresso.org", 
     in publications or presentations arising from this work. More details at
     http://www.quantum-espresso.org/quote

     Parallel version (MPI & OpenMP), running on       4 processor cores
     Number of MPI processes:                 4
     Threads/MPI process:                     1

     MPI processes distributed on     1 nodes
     753607 MiB available memory on the printing compute node when the environment starts
 
     Reading input from pw-si-6.in
Warning: card &CELL ignored
Warning: card / ignored

     Current dimensions of program PWSCF are:
     Max number of different atomic species (ntypx) = 10
     Max number of k-points (npk) =  40000
     Max angular momentum in pseudopotentials (lmaxx) =  4

     IMPORTANT: XC functional enforced from input :
     Exchange-correlation= PBE
                           (   1   4   3   4   0   0   0)
     Any further DFT definition will be discarded
     Please, verify this is what you really want


     gamma-point specific algorithms are used
 
     K-points division:     npool     =       2
     R & G space division:  proc/nbgrp/npool/nimage =       2
     Subspace diagonalization in iterative solution of the eigenvalue problem:
     a serial algorithm will be used

     Message from routine divide_et_impera:
     suboptimal parallelization: some nodes have no k-points
 
     Parallelization info
     --------------------
     sticks:   dense  smooth     PW     G-vecs:    dense   smooth      PW
     Min        1916    1916    502                89532    89532   12150
     Max        1917    1917    503                89537    89537   12153
     Sum        3833    3833   1005               179069   179069   24303
 
     Using Slab Decomposition
 


     bravais-lattice index     =            0
     lattice parameter (alat)  =      20.0586  a.u.
     unit-cell volume          =    8070.5596 (a.u.)^3
     number of atoms/cell      =           64
     number of atomic types    =            1
     number of electrons       =       256.00
     number of Kohn-Sham states=          154
     kinetic-energy cutoff     =      30.0000  Ry
     charge density cutoff     =     120.0000  Ry
     scf convergence threshold =      1.0E-06
     mixing beta               =       0.5000
     number of iterations used =            8  plain     mixing
     Exchange-correlation= PBE
                           (   1   4   3   4   0   0   0)

     GPU acceleration is ACTIVE.
     GPU-aware MPI enabled

     Message from routine print_cuda_info:
     High GPU oversubscription detected. Are you sure this is what you want?

     celldm(1)=  20.058628  celldm(2)=   0.000000  celldm(3)=   0.000000
     celldm(4)=   0.000000  celldm(5)=   0.000000  celldm(6)=   0.000000

     crystal axes: (cart. coord. in units of alat)
               a(1) = (   1.000000   0.000000   0.000000 )  
               a(2) = (   0.000000   1.000000   0.000000 )  
               a(3) = (   0.000000   0.000000   1.000000 )  

     reciprocal axes: (cart. coord. in units 2 pi/alat)
               b(1) = (  1.000000  0.000000  0.000000 )  
               b(2) = (  0.000000  1.000000  0.000000 )  
               b(3) = (  0.000000  0.000000  1.000000 )  


     PseudoPot. # 1 for Si read from file:
     /home/ppiaggi/pseudos/Si_ONCV_PBE_sr.upf
     MD5 check sum: 8553c464762ac42b85b1eed164b4d029
     Pseudo is Norm-conserving, Zval =  4.0
     Generated using ONCVPSP code by D. R. Hamann
     Using radial grid of 1510 points,  4 beta functions with: 
                l(1) =   0
                l(2) =   0
                l(3) =   1
                l(4) =   1

     atomic species   valence    mass     pseudopotential
        Si             4.00    28.08500     Si( 1.00)

     No symmetry found



   Cartesian axes

     site n.     atom                  positions (alat units)
         1           Si  tau(   1) = (   0.8801510   0.1455690   0.6808210  )
         2           Si  tau(   2) = (   0.2871210   0.3178330   0.4774280  )
         3           Si  tau(   3) = (   0.8692620   0.3527430   0.9389510  )
         4           Si  tau(   4) = (   0.5843150   0.8471020   0.0910903  )
         5           Si  tau(   5) = (   0.0370291   0.7561160   0.7444670  )
         6           Si  tau(   6) = (   0.4081110   0.1303050   0.8859800  )
         7           Si  tau(   7) = (   0.7703930   0.2853700   0.3152020  )
         8           Si  tau(   8) = (   0.7253580   0.4165110   0.1149420  )
         9           Si  tau(   9) = (   0.2901790   0.4729170   0.9788300  )
        10           Si  tau(  10) = (   0.5462040   0.9127990   0.7822190  )
        11           Si  tau(  11) = (   0.3282690   0.5728240   0.4794270  )
        12           Si  tau(  12) = (   0.6961040   0.2463000   0.8199000  )
        13           Si  tau(  13) = (   0.2592030   0.2516400   0.0118572  )
        14           Si  tau(  14) = (   0.2931530   0.5274250   0.7291710  )
        15           Si  tau(  15) = (   0.0653050   0.4697670   0.7794750  )
        16           Si  tau(  16) = (   0.8311870   0.7498410   0.3265070  )
        17           Si  tau(  17) = (   0.8126810   0.6365290   0.1079180  )
        18           Si  tau(  18) = (   0.5405480   0.2157020   0.1757720  )
        19           Si  tau(  19) = (   0.0626237   0.2313780   0.8228570  )
        20           Si  tau(  20) = (   0.5166160   0.9907240   0.2816870  )
        21           Si  tau(  21) = (   0.9090110   0.9249870   0.5883500  )
        22           Si  tau(  22) = (   0.8569950   0.5917570   0.8255000  )
        23           Si  tau(  23) = (   0.0979339   0.0104871   0.0588415  )
        24           Si  tau(  24) = (   0.6773500   0.0134822   0.4567860  )
        25           Si  tau(  25) = (   0.6248770   0.0629341   0.9449150  )
        26           Si  tau(  26) = (   0.0358368   0.0784263   0.4052710  )
        27           Si  tau(  27) = (   0.0012117   0.1999650   0.1033170  )
        28           Si  tau(  28) = (   0.1082360   0.9668920   0.7949890  )
        29           Si  tau(  29) = (   0.5165890   0.4191940   0.3426090  )
        30           Si  tau(  30) = (   0.8274470   0.9166030   0.0954770  )
        31           Si  tau(  31) = (   0.5772490   0.7163990   0.3232480  )
        32           Si  tau(  32) = (   0.5375380   0.6633750   0.6165330  )
        33           Si  tau(  33) = (   0.0390085   0.2673440   0.5272420  )
        34           Si  tau(  34) = (   0.2293090   0.0007857   0.2676440  )
        35           Si  tau(  35) = (   0.5348760   0.4294530   0.7479560  )
        36           Si  tau(  36) = (   0.3537990   0.8088030   0.4341130  )
        37           Si  tau(  37) = (   0.1052580   0.6504980   0.5510640  )
        38           Si  tau(  38) = (   0.3566750   0.8094940   0.1427340  )
        39           Si  tau(  39) = (   0.9642100   0.5037320   0.5307830  )
        40           Si  tau(  40) = (   0.5190190   0.3799360   0.9901370  )
        41           Si  tau(  41) = (   0.5095940   0.2612880   0.5760470  )
        42           Si  tau(  42) = (   0.1439090   0.7212420   0.1966430  )
        43           Si  tau(  43) = (   0.0561608   0.8270070   0.3905830  )
        44           Si  tau(  44) = (   0.6975700   0.5380890   0.4192430  )
        45           Si  tau(  45) = (   0.0965472   0.3407370   0.2604140  )
        46           Si  tau(  46) = (   0.2214580   0.0515267   0.5909470  )
        47           Si  tau(  47) = (   0.6866110   0.8025450   0.5477660  )
        48           Si  tau(  48) = (   0.8466730   0.9651790   0.8501870  )
        49           Si  tau(  49) = (   0.4569780   0.5728080   0.1786870  )
        50           Si  tau(  50) = (   0.7380050   0.2253720   0.5396130  )
        51           Si  tau(  51) = (   0.7495270   0.7839410   0.7805560  )
        52           Si  tau(  52) = (   0.0421817   0.7695590   0.9953140  )
        53           Si  tau(  53) = (   0.3218920   0.2198760   0.2436410  )
        54           Si  tau(  54) = (   0.7445850   0.4731380   0.6456640  )
        55           Si  tau(  55) = (   0.2870440   0.2551780   0.7358320  )
        56           Si  tau(  56) = (   0.4786440   0.0261142   0.5697520  )
        57           Si  tau(  57) = (   0.9401130   0.4853850   0.3004500  )
        58           Si  tau(  58) = (   0.0408595   0.5320350   0.0172445  )
        59           Si  tau(  59) = (   0.2860270   0.8242080   0.6520240  )
        60           Si  tau(  60) = (   0.2270670   0.5044930   0.2239760  )
        61           Si  tau(  61) = (   0.8577760   0.0652649   0.2638980  )
        62           Si  tau(  62) = (   0.6080720   0.6596950   0.9671550  )
        63           Si  tau(  63) = (   0.2998750   0.8964610   0.9313960  )
        64           Si  tau(  64) = (   0.4188200   0.7138320   0.8488520  )

     number of k points=     1  Fermi-Dirac smearing, width (Ry)=  0.0100
                       cart. coord. in units 2pi/alat
        k(    1) = (   0.0000000   0.0000000   0.0000000), wk =   2.0000000

     Dense  grid:    89535 G-vectors     FFT dimensions: (  72,  72,  72)

     Estimated max dynamical RAM per process >     143.96 MB

     Estimated total dynamical RAM >     553.98 MB

     Initial potential from superposition of free atoms

     starting charge     255.9608, renormalised to     256.0000
     Starting wfcs are  256 randomized atomic wfcs

     total cpu time spent up to now is        5.0 secs

     Self-consistent Calculation

     iteration #  1     ecut=    30.00 Ry     beta= 0.50
     Davidson diagonalization with overlap
     ethr =  1.00E-02,  avg # of iterations =  3.0

     Threshold (ethr) on eigenvalues was too large:
     Diagonalizing with lowered threshold

     Davidson diagonalization with overlap
     ethr =  2.89E-04,  avg # of iterations =  5.0

     total cpu time spent up to now is        5.3 secs

     total energy              =    -501.15960680 Ry
     estimated scf accuracy    <       0.88736575 Ry

     iteration #  2     ecut=    30.00 Ry     beta= 0.50
     Davidson diagonalization with overlap
     ethr =  3.47E-04,  avg # of iterations =  3.0

     total cpu time spent up to now is        5.4 secs

     total energy              =    -500.95890021 Ry
     estimated scf accuracy    <       1.97990631 Ry

     iteration #  3     ecut=    30.00 Ry     beta= 0.50
     Davidson diagonalization with overlap
     ethr =  3.47E-04,  avg # of iterations =  3.0

     total cpu time spent up to now is        5.5 secs

     total energy              =    -501.10847378 Ry
     estimated scf accuracy    <       2.09519643 Ry

     iteration #  4     ecut=    30.00 Ry     beta= 0.50
     Davidson diagonalization with overlap
     ethr =  3.47E-04,  avg # of iterations =  2.0

     total cpu time spent up to now is        5.6 secs

     total energy              =    -501.25472871 Ry
     estimated scf accuracy    <       0.51375406 Ry

     iteration #  5     ecut=    30.00 Ry     beta= 0.50
     Davidson diagonalization with overlap
     ethr =  2.01E-04,  avg # of iterations =  2.0

     total cpu time spent up to now is        5.7 secs

     total energy              =    -501.28934356 Ry
     estimated scf accuracy    <       0.15167595 Ry

     iteration #  6     ecut=    30.00 Ry     beta= 0.50
     Davidson diagonalization with overlap
     ethr =  5.92E-05,  avg # of iterations =  3.0

     total cpu time spent up to now is        5.8 secs

     total energy              =    -501.30197692 Ry
     estimated scf accuracy    <       0.19103674 Ry

     iteration #  7     ecut=    30.00 Ry     beta= 0.50
     Davidson diagonalization with overlap
     ethr =  5.92E-05,  avg # of iterations =  2.0

     total cpu time spent up to now is        5.9 secs

     total energy              =    -501.31535174 Ry
     estimated scf accuracy    <       0.00923099 Ry

     iteration #  8     ecut=    30.00 Ry     beta= 0.50
     Davidson diagonalization with overlap
     c_bands:  1 eigenvalues not converged
     ethr =  3.61E-06,  avg # of iterations = 20.0

     total cpu time spent up to now is        6.1 secs

     total energy              =    -501.31644910 Ry
     estimated scf accuracy    <       0.01716400 Ry

     iteration #  9     ecut=    30.00 Ry     beta= 0.50
     Davidson diagonalization with overlap
     ethr =  3.61E-06,  avg # of iterations =  6.0

     total cpu time spent up to now is        6.2 secs

     total energy              =    -501.31778658 Ry
     estimated scf accuracy    <       0.00414594 Ry

     iteration # 10     ecut=    30.00 Ry     beta= 0.50
     Davidson diagonalization with overlap
     ethr =  1.62E-06,  avg # of iterations =  2.0

     total cpu time spent up to now is        6.3 secs

     total energy              =    -501.31811231 Ry
     estimated scf accuracy    <       0.00091480 Ry

     iteration # 11     ecut=    30.00 Ry     beta= 0.50
     Davidson diagonalization with overlap
     ethr =  3.57E-07,  avg # of iterations =  3.0

     total cpu time spent up to now is        6.4 secs

     total energy              =    -501.31816421 Ry
     estimated scf accuracy    <       0.00075357 Ry

     iteration # 12     ecut=    30.00 Ry     beta= 0.50
     Davidson diagonalization with overlap
     ethr =  2.94E-07,  avg # of iterations =  2.0

     total cpu time spent up to now is        6.5 secs

     total energy              =    -501.31823447 Ry
     estimated scf accuracy    <       0.00012740 Ry

     iteration # 13     ecut=    30.00 Ry     beta= 0.50
     Davidson diagonalization with overlap
     ethr =  4.98E-08,  avg # of iterations =  3.0

     total cpu time spent up to now is        6.6 secs

     total energy              =    -501.31823788 Ry
     estimated scf accuracy    <       0.00020445 Ry

     iteration # 14     ecut=    30.00 Ry     beta= 0.50
     Davidson diagonalization with overlap
     ethr =  4.98E-08,  avg # of iterations =  2.0

     total cpu time spent up to now is        6.7 secs

     total energy              =    -501.31825285 Ry
     estimated scf accuracy    <       0.00002792 Ry

     iteration # 15     ecut=    30.00 Ry     beta= 0.50
     Davidson diagonalization with overlap
     ethr =  1.09E-08,  avg # of iterations =  2.0

     total cpu time spent up to now is        6.8 secs

     total energy              =    -501.31825432 Ry
     estimated scf accuracy    <       0.00001102 Ry

     iteration # 16     ecut=    30.00 Ry     beta= 0.50
     Davidson diagonalization with overlap
     ethr =  4.30E-09,  avg # of iterations =  3.0

     total cpu time spent up to now is        6.9 secs

     total energy              =    -501.31825582 Ry
     estimated scf accuracy    <       0.00001049 Ry

     iteration # 17     ecut=    30.00 Ry     beta= 0.50
     Davidson diagonalization with overlap
     ethr =  4.10E-09,  avg # of iterations =  2.0

     total cpu time spent up to now is        7.0 secs

     total energy              =    -501.31825599 Ry
     estimated scf accuracy    <       0.00000698 Ry

     iteration # 18     ecut=    30.00 Ry     beta= 0.50
     Davidson diagonalization with overlap
     ethr =  2.73E-09,  avg # of iterations =  1.0

     total cpu time spent up to now is        7.1 secs

     End of self-consistent calculation

          k = 0.0000 0.0000 0.0000 ( 11168 PWs)   bands (ev):

    -5.1556  -4.2009  -4.0727  -3.9873  -3.8465  -3.8214  -3.7676  -3.1420
    -2.9975  -2.9301  -2.9003  -2.8136  -2.7497  -2.6666  -2.6267  -2.5684
    -2.4973  -2.4720  -2.3696  -1.9847  -1.7332  -1.6870  -1.5643  -1.5560
    -1.3580  -1.2389  -1.1375  -0.6817  -0.4806  -0.4575  -0.3103  -0.2083
    -0.0183   0.0119   0.0888   0.2034   0.3296   0.3452   0.4555   0.5201
     0.5326   0.6669   0.7611   0.8262   0.8808   0.9242   1.1325   1.2215
     1.2742   1.3242   1.3707   1.5364   1.5650   1.6382   1.6684   1.6918
     1.8229   1.9363   2.1618   2.2116   2.2215   2.3495   2.3925   2.5013
     2.7054   2.7204   2.8651   2.8966   2.9445   2.9902   3.0950   3.1528
     3.2432   3.3183   3.3610   3.4256   3.5025   3.5486   3.6176   3.8014
     3.8925   4.3096   4.4551   4.5080   4.5926   4.6427   4.7506   4.8437
     4.9145   4.9915   5.0570   5.1515   5.2049   5.2766   5.3165   5.4139
     5.4700   5.5619   5.5924   5.6759   5.7252   5.8165   5.8355   5.9042
     5.9273   6.0101   6.0803   6.1031   6.1823   6.2542   6.2670   6.3074
     6.3706   6.4975   6.5484   6.6004   6.6904   6.7245   6.7549   6.7668
     6.8790   6.9139   6.9421   7.0309   7.1537   7.1624   7.2381   7.2735
     7.3430   7.4052   7.4316   7.5048   7.5531   7.6149   7.6546   7.6750
     7.7163   7.7951   7.8479   7.9067   7.9591   8.0081   8.1386   8.2248
     8.2509   8.2938   8.3428   8.4038   8.4480   8.4978   8.5417   8.6495
     8.7084   8.7566

     the Fermi energy is     7.3034 ev

!    total energy              =    -501.31825599 Ry
     estimated scf accuracy    <       0.00000075 Ry
     smearing contrib. (-TS)   =      -0.16149434 Ry
     internal energy E=F+TS    =    -501.15676165 Ry

     The total energy is F=E-TS. E is the sum of the following terms:
     one-electron contribution =     204.13281690 Ry
     hartree contribution      =      17.40910908 Ry
     xc contribution           =    -150.11010508 Ry
     ewald contribution        =    -572.58858255 Ry

     convergence has been achieved in  18 iterations

     Forces acting on atoms (cartesian axes, Ry/au):

     atom    1 type  1   force =     0.03524734   -0.03792843    0.04150139
     atom    2 type  1   force =     0.00266216    0.00509126   -0.01049372
     atom    3 type  1   force =     0.01908813   -0.00579510    0.01697729
     atom    4 type  1   force =     0.01457979    0.03261462    0.01410908
     atom    5 type  1   force =    -0.02400496    0.00854745   -0.01921559
     atom    6 type  1   force =    -0.00669640   -0.03245962    0.01817521
     atom    7 type  1   force =     0.00210927    0.01408125   -0.03023243
     atom    8 type  1   force =    -0.01431025    0.00588356   -0.00271091
     atom    9 type  1   force =     0.00580265   -0.00651472    0.00908817
     atom   10 type  1   force =    -0.01066391    0.00596930   -0.01473993
     atom   11 type  1   force =    -0.00244700   -0.00718492    0.00309563
     atom   12 type  1   force =     0.00592328   -0.00606770   -0.01060199
     atom   13 type  1   force =    -0.00525847   -0.01184119    0.00952741
     atom   14 type  1   force =     0.02015245   -0.01192656    0.01634153
     atom   15 type  1   force =     0.00189039   -0.00383006    0.01355786
     atom   16 type  1   force =    -0.01832471   -0.03186629    0.00020734
     atom   17 type  1   force =     0.01690787   -0.00290156   -0.00108921
     atom   18 type  1   force =     0.01048552    0.00952552    0.00237281
     atom   19 type  1   force =    -0.00995950    0.01060323   -0.01177648
     atom   20 type  1   force =    -0.00833899   -0.00248351    0.01587778
     atom   21 type  1   force =     0.00600968   -0.00773806    0.00322652
     atom   22 type  1   force =     0.01087436   -0.01197029   -0.00123055
     atom   23 type  1   force =     0.02456659   -0.04132478   -0.00375608
     atom   24 type  1   force =     0.01129519   -0.00310953   -0.02283323
     atom   25 type  1   force =    -0.00982963    0.00181884   -0.00783163
     atom   26 type  1   force =     0.03101696   -0.04947885   -0.00132382
     atom   27 type  1   force =    -0.02015016    0.02612951   -0.01237001
     atom   28 type  1   force =     0.02075714    0.01399762   -0.00208446
     atom   29 type  1   force =    -0.00941118   -0.01482492    0.01412346
     atom   30 type  1   force =    -0.00981810   -0.01466240   -0.03757668
     atom   31 type  1   force =    -0.00656499    0.00682550    0.01268604
     atom   32 type  1   force =    -0.04651804   -0.03899564    0.00819713
     atom   33 type  1   force =     0.02152669    0.03981329   -0.01005412
     atom   34 type  1   force =    -0.00100482    0.00048805   -0.00503957
     atom   35 type  1   force =    -0.00716888   -0.02032060   -0.01210922
     atom   36 type  1   force =     0.03793734   -0.00173867   -0.01930540
     atom   37 type  1   force =     0.08714132    0.09200295    0.00871688
     atom   38 type  1   force =    -0.01673200    0.00512487    0.00293263
     atom   39 type  1   force =    -0.06726430   -0.10189487    0.00801272
     atom   40 type  1   force =     0.01075359    0.01082489    0.01675577
     atom   41 type  1   force =     0.00013433    0.00614924    0.01860278
     atom   42 type  1   force =     0.02154759   -0.01503913    0.00953813
     atom   43 type  1   force =    -0.00537179   -0.01419883    0.00111486
     atom   44 type  1   force =     0.00403041    0.02082976    0.00607643
     atom   45 type  1   force =     0.00396504   -0.05586337    0.00399385
     atom   46 type  1   force =    -0.00449004    0.01043227    0.03225003
     atom   47 type  1   force =     0.05371599    0.03686413   -0.01597519
     atom   48 type  1   force =     0.01163991    0.03879864    0.02401100
     atom   49 type  1   force =    -0.01437018    0.00376358   -0.01050526
     atom   50 type  1   force =    -0.03992560    0.01476094   -0.01987417
     atom   51 type  1   force =    -0.02352835   -0.01252993   -0.01417909
     atom   52 type  1   force =    -0.03358993    0.00408105    0.01391442
     atom   53 type  1   force =    -0.01030919   -0.01978147    0.01291477
     atom   54 type  1   force =     0.00468430    0.01492002   -0.01162589
     atom   55 type  1   force =     0.00334900   -0.01920689   -0.02579500
     atom   56 type  1   force =    -0.01962596   -0.00492783    0.02543372
     atom   57 type  1   force =    -0.06808556    0.01191048    0.01702574
     atom   58 type  1   force =    -0.00605705    0.00738285    0.00096648
     atom   59 type  1   force =    -0.00918202    0.00821905    0.01206596
     atom   60 type  1   force =     0.02635936    0.06407182   -0.03384749
     atom   61 type  1   force =    -0.00255736    0.03876412    0.01343629
     atom   62 type  1   force =     0.02201559   -0.01231737   -0.00427788
     atom   63 type  1   force =    -0.01220505    0.04220208   -0.00928680
     atom   64 type  1   force =    -0.00440486    0.00823132   -0.04508531

     Total force =     0.324672     Total SCF correction =     0.001715


     Computing stress (Cartesian axis) and pressure

          total   stress  (Ry/bohr**3)                   (kbar)     P=      -50.22
  -0.00030335   0.00000403  -0.00001682          -44.62        0.59       -2.47
   0.00000403  -0.00031578   0.00002580            0.59      -46.45        3.80
  -0.00001682   0.00002580  -0.00040507           -2.47        3.80      -59.59

 
     init_run     :      1.08s CPU      4.93s WALL (       1 calls)
     electrons    :      1.95s CPU      2.10s WALL (       1 calls)
     forces       :      0.04s CPU      0.04s WALL (       1 calls)
     stress       :      0.15s CPU      0.16s WALL (       1 calls)

     Called by init_run:
     wfcinit      :      0.53s CPU      4.22s WALL (       1 calls)
                                        4.22s GPU  (       1 calls)
     potinit      :      0.05s CPU      0.14s WALL (       1 calls)
     hinit0       :      0.47s CPU      0.50s WALL (       1 calls)

     Called by electrons:
     c_bands      :      1.17s CPU      1.24s WALL (      19 calls)
     sum_band     :      0.39s CPU      0.44s WALL (      19 calls)
     v_of_rho     :      0.19s CPU      0.29s WALL (      19 calls)
     mix_rho      :      0.18s CPU      0.19s WALL (      19 calls)

     Called by c_bands:
     init_us_2    :      0.07s CPU      0.07s WALL (      39 calls)
     init_us_2:gp :      0.07s CPU      0.07s WALL (      39 calls)
     regterg      :      1.00s CPU      1.06s WALL (      19 calls)

     Called by *egterg:
     rdiaghg      :      0.40s CPU      1.17s WALL (      87 calls)
                                        1.15s GPU  (      87 calls)
     h_psi        :      0.95s CPU      3.91s WALL (      89 calls)
                                        3.91s GPU  (      89 calls)
     g_psi        :      0.00s CPU      0.00s WALL (      69 calls)
                                        0.00s GPU  (      69 calls)

     Called by h_psi:
     h_psi:calbec :      0.51s CPU      3.39s WALL (      89 calls)
                                        3.39s GPU  (      89 calls)
     vloc_psi     :      0.38s CPU      0.46s WALL (      89 calls)
                                        0.46s GPU  (      89 calls)
     add_vuspsi   :      0.04s CPU      0.05s WALL (      89 calls)
                                        0.05s GPU  (      89 calls)

     General routines
     calbec       :      0.51s CPU      3.39s WALL (      94 calls)
     fft          :      0.63s CPU      0.75s WALL (     159 calls)
                                        0.13s GPU  (     101 calls)
     ffts         :      0.05s CPU      0.05s WALL (      19 calls)
     fftw         :      0.47s CPU      0.62s WALL (    2007 calls)
                                        0.54s GPU  (    2007 calls)
 
     Parallel routines
 
     PWSCF        :      3.27s CPU      7.35s WALL

 
   This run was terminated on:  10:38:36  10May2023            

=------------------------------------------------------------------------------=
   JOB DONE.
=------------------------------------------------------------------------------=
