An instance of this daemon is already running

     Program PWSCF v.7.1 starts on 10May2023 at 10:51:26 

     This program is part of the open-source Quantum ESPRESSO suite
     for quantum simulation of materials; please cite
         "P. Giannozzi et al., J. Phys.:Condens. Matter 21 395502 (2009);
         "P. Giannozzi et al., J. Phys.:Condens. Matter 29 465901 (2017);
         "P. Giannozzi et al., J. Chem. Phys. 152 154105 (2020);
          URL http://www.quantum-espresso.org", 
     in publications or presentations arising from this work. More details at
     http://www.quantum-espresso.org/quote

     Parallel version (MPI & OpenMP), running on       4 processor cores
     Number of MPI processes:                 4
     Threads/MPI process:                     1

     MPI processes distributed on     1 nodes
     753526 MiB available memory on the printing compute node when the environment starts
 
     Reading input from pw-si-86.in
Warning: card &CELL ignored
Warning: card / ignored

     Current dimensions of program PWSCF are:
     Max number of different atomic species (ntypx) = 10
     Max number of k-points (npk) =  40000
     Max angular momentum in pseudopotentials (lmaxx) =  4

     IMPORTANT: XC functional enforced from input :
     Exchange-correlation= PBE
                           (   1   4   3   4   0   0   0)
     Any further DFT definition will be discarded
     Please, verify this is what you really want


     gamma-point specific algorithms are used
 
     K-points division:     npool     =       2
     R & G space division:  proc/nbgrp/npool/nimage =       2
     Subspace diagonalization in iterative solution of the eigenvalue problem:
     a serial algorithm will be used

     Message from routine divide_et_impera:
     suboptimal parallelization: some nodes have no k-points
 
     Parallelization info
     --------------------
     sticks:   dense  smooth     PW     G-vecs:    dense   smooth      PW
     Min        1904    1904    502                88752    88752   12054
     Max        1905    1905    503                88757    88757   12057
     Sum        3809    3809   1005               177509   177509   24111
 
     Using Slab Decomposition
 


     bravais-lattice index     =            0
     lattice parameter (alat)  =      19.9987  a.u.
     unit-cell volume          =    7998.4876 (a.u.)^3
     number of atoms/cell      =           64
     number of atomic types    =            1
     number of electrons       =       256.00
     number of Kohn-Sham states=          154
     kinetic-energy cutoff     =      30.0000  Ry
     charge density cutoff     =     120.0000  Ry
     scf convergence threshold =      1.0E-06
     mixing beta               =       0.5000
     number of iterations used =            8  plain     mixing
     Exchange-correlation= PBE
                           (   1   4   3   4   0   0   0)

     GPU acceleration is ACTIVE.
     GPU-aware MPI enabled

     Message from routine print_cuda_info:
     High GPU oversubscription detected. Are you sure this is what you want?

     celldm(1)=  19.998740  celldm(2)=   0.000000  celldm(3)=   0.000000
     celldm(4)=   0.000000  celldm(5)=   0.000000  celldm(6)=   0.000000

     crystal axes: (cart. coord. in units of alat)
               a(1) = (   1.000000   0.000000   0.000000 )  
               a(2) = (   0.000000   1.000000   0.000000 )  
               a(3) = (   0.000000   0.000000   1.000000 )  

     reciprocal axes: (cart. coord. in units 2 pi/alat)
               b(1) = (  1.000000  0.000000  0.000000 )  
               b(2) = (  0.000000  1.000000  0.000000 )  
               b(3) = (  0.000000  0.000000  1.000000 )  


     PseudoPot. # 1 for Si read from file:
     /home/ppiaggi/pseudos/Si_ONCV_PBE_sr.upf
     MD5 check sum: 8553c464762ac42b85b1eed164b4d029
     Pseudo is Norm-conserving, Zval =  4.0
     Generated using ONCVPSP code by D. R. Hamann
     Using radial grid of 1510 points,  4 beta functions with: 
                l(1) =   0
                l(2) =   0
                l(3) =   1
                l(4) =   1

     atomic species   valence    mass     pseudopotential
        Si             4.00    28.08500     Si( 1.00)

     No symmetry found



   Cartesian axes

     site n.     atom                  positions (alat units)
         1           Si  tau(   1) = (   0.5140590   0.6583490   0.1209740  )
         2           Si  tau(   2) = (   0.4509160   0.9184470   0.6965270  )
         3           Si  tau(   3) = (   0.3429580   0.3355470   0.2188820  )
         4           Si  tau(   4) = (   0.2855090   0.6833910   0.8130050  )
         5           Si  tau(   5) = (   0.1104960   0.3937600   0.3199110  )
         6           Si  tau(   6) = (   0.2941670   0.9210720   0.1553080  )
         7           Si  tau(   7) = (   0.9144980   0.8882820   0.4011620  )
         8           Si  tau(   8) = (   0.8811500   0.7888060   0.8902820  )
         9           Si  tau(   9) = (   0.5137750   0.8944380   0.2202870  )
        10           Si  tau(  10) = (   0.5041690   0.7182290   0.9039590  )
        11           Si  tau(  11) = (   0.8861750   0.4343730   0.7475000  )
        12           Si  tau(  12) = (   0.2240220   0.1464740   0.1553200  )
        13           Si  tau(  13) = (   0.7392840   0.2855240   0.9879790  )
        14           Si  tau(  14) = (   0.9613040   0.8556530   0.6558440  )
        15           Si  tau(  15) = (   0.0861205   0.4411130   0.9123000  )
        16           Si  tau(  16) = (   0.6503610   0.1591800   0.7934180  )
        17           Si  tau(  17) = (   0.3428740   0.0937109   0.4059030  )
        18           Si  tau(  18) = (   0.8090740   0.5695990   0.9283230  )
        19           Si  tau(  19) = (   0.6914890   0.1995170   0.4395190  )
        20           Si  tau(  20) = (   0.8978090   0.0424287   0.0012009  )
        21           Si  tau(  21) = (   0.1699710   0.7512220   0.6007860  )
        22           Si  tau(  22) = (   0.9482990   0.5874890   0.5953330  )
        23           Si  tau(  23) = (   0.6059240   0.0806764   0.0631258  )
        24           Si  tau(  24) = (   0.1974620   0.2046210   0.7186790  )
        25           Si  tau(  25) = (   0.6621580   0.4041170   0.7036370  )
        26           Si  tau(  26) = (   0.5125000   0.1535480   0.2857370  )
        27           Si  tau(  27) = (   0.9788220   0.1014910   0.2829700  )
        28           Si  tau(  28) = (   0.5568370   0.3301860   0.5454710  )
        29           Si  tau(  29) = (   0.1799200   0.7394680   0.1643310  )
        30           Si  tau(  30) = (   0.0910329   0.7174420   0.9503770  )
        31           Si  tau(  31) = (   0.4847620   0.7032040   0.6458630  )
        32           Si  tau(  32) = (   0.4331590   0.1321860   0.8755870  )
        33           Si  tau(  33) = (   0.6528740   0.8893240   0.8763760  )
        34           Si  tau(  34) = (   0.3893910   0.6877900   0.3509590  )
        35           Si  tau(  35) = (   0.2412940   0.5572130   0.4396680  )
        36           Si  tau(  36) = (   0.9447530   0.2859800   0.0959695  )
        37           Si  tau(  37) = (   0.7325300   0.6803920   0.6729860  )
        38           Si  tau(  38) = (   0.6204530   0.4329720   0.1991590  )
        39           Si  tau(  39) = (   0.3020170   0.4729480   0.9197040  )
        40           Si  tau(  40) = (   0.7315920   0.8136270   0.3557200  )
        41           Si  tau(  41) = (   0.3197680   0.9342640   0.9445440  )
        42           Si  tau(  42) = (   0.3501940   0.4757250   0.6755810  )
        43           Si  tau(  43) = (   0.4733190   0.4343790   0.3782100  )
        44           Si  tau(  44) = (   0.9923770   0.5179960   0.1176870  )
        45           Si  tau(  45) = (   0.5818570   0.4969520   0.8719440  )
        46           Si  tau(  46) = (   0.8682650   0.4995360   0.3866640  )
        47           Si  tau(  47) = (   0.1099370   0.3742360   0.6061390  )
        48           Si  tau(  48) = (   0.0344878   0.6806490   0.3386040  )
        49           Si  tau(  49) = (   0.6713470   0.6047500   0.4552790  )
        50           Si  tau(  50) = (   0.4069290   0.1864020   0.6177840  )
        51           Si  tau(  51) = (   0.4669710   0.3330700   0.0057534  )
        52           Si  tau(  52) = (   0.7652590   0.8933180   0.1016430  )
        53           Si  tau(  53) = (   0.1246190   0.1861520   0.4256430  )
        54           Si  tau(  54) = (   0.5888820   0.9494800   0.4632730  )
        55           Si  tau(  55) = (   0.1094500   0.9552620   0.8983930  )
        56           Si  tau(  56) = (   0.7885400   0.3171750   0.2858930  )
        57           Si  tau(  57) = (   0.3079740   0.5502130   0.1325310  )
        58           Si  tau(  58) = (   0.7407370   0.6440520   0.1707290  )
        59           Si  tau(  59) = (   0.7394320   0.9345230   0.6582520  )
        60           Si  tau(  60) = (   0.1639110   0.9832180   0.6400140  )
        61           Si  tau(  61) = (   0.3391410   0.8941820   0.4731490  )
        62           Si  tau(  62) = (   0.9027460   0.1704230   0.7677620  )
        63           Si  tau(  63) = (   0.8880720   0.1088820   0.5543950  )
        64           Si  tau(  64) = (   0.1620540   0.1802860   0.9379860  )

     number of k points=     1  Fermi-Dirac smearing, width (Ry)=  0.0100
                       cart. coord. in units 2pi/alat
        k(    1) = (   0.0000000   0.0000000   0.0000000), wk =   2.0000000

     Dense  grid:    88755 G-vectors     FFT dimensions: (  72,  72,  72)

     Estimated max dynamical RAM per process >     142.82 MB

     Estimated total dynamical RAM >     549.61 MB

     Initial potential from superposition of free atoms

     starting charge     255.9608, renormalised to     256.0000
     Starting wfcs are  256 randomized atomic wfcs

     total cpu time spent up to now is        5.0 secs

     Self-consistent Calculation

     iteration #  1     ecut=    30.00 Ry     beta= 0.50
     Davidson diagonalization with overlap
     ethr =  1.00E-02,  avg # of iterations =  3.0

     Threshold (ethr) on eigenvalues was too large:
     Diagonalizing with lowered threshold

     Davidson diagonalization with overlap
     ethr =  4.07E-04,  avg # of iterations =  5.0

     total cpu time spent up to now is        5.3 secs

     total energy              =    -501.05671854 Ry
     estimated scf accuracy    <       1.27167791 Ry

     iteration #  2     ecut=    30.00 Ry     beta= 0.50
     Davidson diagonalization with overlap
     ethr =  4.97E-04,  avg # of iterations =  5.0

     total cpu time spent up to now is        5.4 secs

     total energy              =    -500.59300178 Ry
     estimated scf accuracy    <       5.53276223 Ry

     iteration #  3     ecut=    30.00 Ry     beta= 0.50
     Davidson diagonalization with overlap
     ethr =  4.97E-04,  avg # of iterations =  4.0

     total cpu time spent up to now is        5.6 secs

     total energy              =    -501.09947424 Ry
     estimated scf accuracy    <       2.55069482 Ry

     iteration #  4     ecut=    30.00 Ry     beta= 0.50
     Davidson diagonalization with overlap
     ethr =  4.97E-04,  avg # of iterations =  2.0

     total cpu time spent up to now is        5.7 secs

     total energy              =    -501.27743626 Ry
     estimated scf accuracy    <       0.61483334 Ry

     iteration #  5     ecut=    30.00 Ry     beta= 0.50
     Davidson diagonalization with overlap
     ethr =  2.40E-04,  avg # of iterations =  2.0

     total cpu time spent up to now is        5.7 secs

     total energy              =    -501.31214478 Ry
     estimated scf accuracy    <       0.30214025 Ry

     iteration #  6     ecut=    30.00 Ry     beta= 0.50
     Davidson diagonalization with overlap
     ethr =  1.18E-04,  avg # of iterations =  2.0

     total cpu time spent up to now is        5.8 secs

     total energy              =    -501.34232412 Ry
     estimated scf accuracy    <       0.16959410 Ry

     iteration #  7     ecut=    30.00 Ry     beta= 0.50
     Davidson diagonalization with overlap
     ethr =  6.62E-05,  avg # of iterations =  1.0

     total cpu time spent up to now is        5.9 secs

     total energy              =    -501.35530515 Ry
     estimated scf accuracy    <       0.01127181 Ry

     iteration #  8     ecut=    30.00 Ry     beta= 0.50
     Davidson diagonalization with overlap
     c_bands:  1 eigenvalues not converged
     ethr =  4.40E-06,  avg # of iterations = 20.0

     total cpu time spent up to now is        6.1 secs

     total energy              =    -501.35615566 Ry
     estimated scf accuracy    <       0.02610688 Ry

     iteration #  9     ecut=    30.00 Ry     beta= 0.50
     Davidson diagonalization with overlap
     ethr =  4.40E-06,  avg # of iterations =  8.0

     total cpu time spent up to now is        6.3 secs

     total energy              =    -501.35832600 Ry
     estimated scf accuracy    <       0.00472164 Ry

     iteration # 10     ecut=    30.00 Ry     beta= 0.50
     Davidson diagonalization with overlap
     ethr =  1.84E-06,  avg # of iterations =  2.0

     total cpu time spent up to now is        6.4 secs

     total energy              =    -501.35876203 Ry
     estimated scf accuracy    <       0.00061439 Ry

     iteration # 11     ecut=    30.00 Ry     beta= 0.50
     Davidson diagonalization with overlap
     ethr =  2.40E-07,  avg # of iterations =  3.0

     total cpu time spent up to now is        6.5 secs

     total energy              =    -501.35879118 Ry
     estimated scf accuracy    <       0.00036461 Ry

     iteration # 12     ecut=    30.00 Ry     beta= 0.50
     Davidson diagonalization with overlap
     ethr =  1.42E-07,  avg # of iterations =  3.0

     total cpu time spent up to now is        6.6 secs

     total energy              =    -501.35881120 Ry
     estimated scf accuracy    <       0.00080420 Ry

     iteration # 13     ecut=    30.00 Ry     beta= 0.50
     Davidson diagonalization with overlap
     ethr =  1.42E-07,  avg # of iterations =  2.0

     total cpu time spent up to now is        6.7 secs

     total energy              =    -501.35886044 Ry
     estimated scf accuracy    <       0.00006286 Ry

     iteration # 14     ecut=    30.00 Ry     beta= 0.50
     Davidson diagonalization with overlap
     ethr =  2.46E-08,  avg # of iterations =  3.0

     total cpu time spent up to now is        6.8 secs

     total energy              =    -501.35886709 Ry
     estimated scf accuracy    <       0.00003796 Ry

     iteration # 15     ecut=    30.00 Ry     beta= 0.50
     Davidson diagonalization with overlap
     ethr =  1.48E-08,  avg # of iterations =  2.0

     total cpu time spent up to now is        6.9 secs

     total energy              =    -501.35886895 Ry
     estimated scf accuracy    <       0.00000988 Ry

     iteration # 16     ecut=    30.00 Ry     beta= 0.50
     Davidson diagonalization with overlap
     ethr =  3.86E-09,  avg # of iterations =  3.0

     total cpu time spent up to now is        7.0 secs

     total energy              =    -501.35887035 Ry
     estimated scf accuracy    <       0.00000988 Ry

     iteration # 17     ecut=    30.00 Ry     beta= 0.50
     Davidson diagonalization with overlap
     ethr =  3.86E-09,  avg # of iterations =  1.0

     total cpu time spent up to now is        7.1 secs

     total energy              =    -501.35887085 Ry
     estimated scf accuracy    <       0.00000130 Ry

     iteration # 18     ecut=    30.00 Ry     beta= 0.50
     Davidson diagonalization with overlap
     ethr =  5.09E-10,  avg # of iterations =  5.0

     total cpu time spent up to now is        7.2 secs

     total energy              =    -501.35887093 Ry
     estimated scf accuracy    <       0.00000252 Ry

     iteration # 19     ecut=    30.00 Ry     beta= 0.50
     Davidson diagonalization with overlap
     ethr =  5.09E-10,  avg # of iterations =  2.0

     total cpu time spent up to now is        7.2 secs

     End of self-consistent calculation

          k = 0.0000 0.0000 0.0000 ( 11060 PWs)   bands (ev):

    -5.2493  -4.2556  -4.1767  -4.1438  -3.9631  -3.8617  -3.7920  -3.2365
    -3.1236  -3.0759  -3.0156  -2.9510  -2.8560  -2.8365  -2.7578  -2.6312
    -2.4739  -2.4042  -2.3098  -1.7624  -1.7023  -1.6277  -1.5906  -1.4789
    -1.3842  -1.2134  -1.1269  -0.9459  -0.7604  -0.5573  -0.4884  -0.3329
    -0.2626   0.1118   0.1760   0.2805   0.3355   0.3835   0.4130   0.5439
     0.6148   0.6999   0.7728   0.9013   0.9732   1.0700   1.1070   1.1484
     1.2399   1.2687   1.4204   1.5071   1.5696   1.6354   1.6918   1.8103
     1.8743   2.0363   2.1717   2.2167   2.2665   2.3665   2.5520   2.5763
     2.6498   2.7124   2.8272   2.8821   3.0076   3.0733   3.1072   3.1647
     3.2404   3.3009   3.3667   3.4563   3.4763   3.5785   3.7264   3.9294
     4.0915   4.2160   4.3543   4.5209   4.6076   4.6728   4.7493   4.8011
     4.8784   4.9767   5.0551   5.1827   5.2719   5.3636   5.3933   5.4355
     5.4787   5.5495   5.6631   5.6909   5.7488   5.8296   5.8625   5.9040
     5.9985   6.0051   6.0185   6.1022   6.2233   6.2545   6.2911   6.3441
     6.4613   6.5044   6.5058   6.5863   6.6672   6.7315   6.8862   6.9033
     6.9498   7.0004   7.0180   7.0618   7.1871   7.2453   7.2989   7.3470
     7.4455   7.4612   7.5033   7.5727   7.6173   7.6367   7.7149   7.7380
     7.8500   7.8815   8.0117   8.0287   8.1270   8.1640   8.2016   8.2458
     8.2749   8.3619   8.4093   8.5215   8.5941   8.7049   8.7648   8.7799
     8.8629   8.9187

     the Fermi energy is     7.3720 ev

!    total energy              =    -501.35887108 Ry
     estimated scf accuracy    <       0.00000007 Ry
     smearing contrib. (-TS)   =      -0.15859819 Ry
     internal energy E=F+TS    =    -501.20027289 Ry

     The total energy is F=E-TS. E is the sum of the following terms:
     one-electron contribution =     195.08186417 Ry
     hartree contribution      =      22.59476994 Ry
     xc contribution           =    -151.07387081 Ry
     ewald contribution        =    -567.80303620 Ry

     convergence has been achieved in  19 iterations

     Forces acting on atoms (cartesian axes, Ry/au):

     atom    1 type  1   force =    -0.00871818    0.01538847    0.01625598
     atom    2 type  1   force =    -0.00549603    0.01605951   -0.01039529
     atom    3 type  1   force =    -0.00460666   -0.01101694   -0.01150427
     atom    4 type  1   force =     0.01029506   -0.00128650   -0.01856113
     atom    5 type  1   force =     0.02227693    0.01520393    0.00463791
     atom    6 type  1   force =     0.03205997    0.04717206    0.03568834
     atom    7 type  1   force =     0.11774823    0.03506940    0.04064757
     atom    8 type  1   force =     0.00793912    0.00028293   -0.02095723
     atom    9 type  1   force =     0.01047306    0.00902389    0.00329056
     atom   10 type  1   force =    -0.01616864   -0.01633806   -0.02715004
     atom   11 type  1   force =     0.02297447   -0.02712040    0.02673617
     atom   12 type  1   force =    -0.02087791   -0.01263816    0.00555353
     atom   13 type  1   force =    -0.02604530   -0.03165439    0.00655012
     atom   14 type  1   force =     0.01660465   -0.00785314    0.00043471
     atom   15 type  1   force =    -0.02307283   -0.03070433    0.02890528
     atom   16 type  1   force =     0.03472634    0.02132232    0.00737195
     atom   17 type  1   force =    -0.03495738    0.05064687    0.02737361
     atom   18 type  1   force =    -0.01904138   -0.00564879   -0.00780762
     atom   19 type  1   force =     0.00915948   -0.06041396   -0.00180918
     atom   20 type  1   force =     0.03320464    0.02094928   -0.00802185
     atom   21 type  1   force =     0.00034225   -0.02152001   -0.01738704
     atom   22 type  1   force =     0.00231293    0.00766177   -0.02270849
     atom   23 type  1   force =     0.00979853   -0.00220741   -0.00090676
     atom   24 type  1   force =     0.03212555   -0.02834106   -0.00284301
     atom   25 type  1   force =     0.06728064   -0.00562377    0.03218426
     atom   26 type  1   force =     0.03044611   -0.01847125   -0.02470709
     atom   27 type  1   force =    -0.00791816   -0.00614679   -0.02681073
     atom   28 type  1   force =    -0.04222684   -0.01853358   -0.02574889
     atom   29 type  1   force =    -0.04561527   -0.04800547    0.00118311
     atom   30 type  1   force =     0.00235821    0.00824149    0.01680089
     atom   31 type  1   force =     0.00804470   -0.02984754    0.01150811
     atom   32 type  1   force =     0.01368868    0.00299724    0.02448645
     atom   33 type  1   force =     0.00377275    0.02105251   -0.00001705
     atom   34 type  1   force =     0.02699465    0.02807006   -0.00676792
     atom   35 type  1   force =    -0.04203464   -0.01979222    0.02861353
     atom   36 type  1   force =    -0.00398549   -0.00996070    0.01284049
     atom   37 type  1   force =    -0.00917367    0.00581647   -0.00814261
     atom   38 type  1   force =    -0.01826068    0.01103722   -0.03577950
     atom   39 type  1   force =     0.01729299   -0.00406569   -0.02199321
     atom   40 type  1   force =    -0.10017321   -0.06085065   -0.04001255
     atom   41 type  1   force =     0.04548952    0.01666177   -0.05869585
     atom   42 type  1   force =    -0.00784967    0.02144017    0.01673682
     atom   43 type  1   force =    -0.00393283    0.04592724   -0.02868939
     atom   44 type  1   force =     0.00418137   -0.03038725   -0.00680542
     atom   45 type  1   force =    -0.00260558    0.03917928    0.06178570
     atom   46 type  1   force =     0.03192650    0.03179528    0.01672370
     atom   47 type  1   force =    -0.01265346    0.02483797   -0.02782199
     atom   48 type  1   force =    -0.00679773    0.00273370    0.00941204
     atom   49 type  1   force =     0.00447626    0.02499145    0.01027328
     atom   50 type  1   force =    -0.03413368   -0.03783501    0.00404221
     atom   51 type  1   force =     0.01908383    0.00570043    0.01465705
     atom   52 type  1   force =    -0.03564116   -0.00748181   -0.00971588
     atom   53 type  1   force =     0.00833362    0.02508420    0.01174684
     atom   54 type  1   force =    -0.02236079    0.02527062    0.00463571
     atom   55 type  1   force =    -0.04789190    0.00149485   -0.04267535
     atom   56 type  1   force =     0.04747651   -0.00940220   -0.03410751
     atom   57 type  1   force =     0.00858479    0.00862586   -0.01703811
     atom   58 type  1   force =    -0.00207632    0.00895458   -0.00282215
     atom   59 type  1   force =    -0.02424847    0.01428602    0.00694608
     atom   60 type  1   force =    -0.02409323    0.00696702    0.03173130
     atom   61 type  1   force =     0.00696449   -0.06950426    0.03548048
     atom   62 type  1   force =    -0.01735650    0.03204323    0.03753405
     atom   63 type  1   force =    -0.01699823   -0.03692494   -0.03513279
     atom   64 type  1   force =    -0.02142505    0.01758716    0.01076805

     Total force =     0.373645     Total SCF correction =     0.000423


     Computing stress (Cartesian axis) and pressure

          total   stress  (Ry/bohr**3)                   (kbar)     P=      -27.34
  -0.00009561  -0.00003859   0.00002674          -14.06       -5.68        3.93
  -0.00003859  -0.00026665  -0.00002920           -5.68      -39.22       -4.30
   0.00002674  -0.00002920  -0.00019521            3.93       -4.30      -28.72

 
     init_run     :      1.09s CPU      4.94s WALL (       1 calls)
     electrons    :      2.07s CPU      2.24s WALL (       1 calls)
     forces       :      0.03s CPU      0.04s WALL (       1 calls)
     stress       :      0.15s CPU      0.15s WALL (       1 calls)

     Called by init_run:
     wfcinit      :      0.54s CPU      4.22s WALL (       1 calls)
                                        4.22s GPU  (       1 calls)
     potinit      :      0.06s CPU      0.15s WALL (       1 calls)
     hinit0       :      0.47s CPU      0.50s WALL (       1 calls)

     Called by electrons:
     c_bands      :      1.24s CPU      1.33s WALL (      20 calls)
     sum_band     :      0.41s CPU      0.45s WALL (      20 calls)
     v_of_rho     :      0.20s CPU      0.30s WALL (      20 calls)
     mix_rho      :      0.19s CPU      0.21s WALL (      20 calls)

     Called by c_bands:
     init_us_2    :      0.07s CPU      0.08s WALL (      41 calls)
     init_us_2:gp :      0.07s CPU      0.08s WALL (      41 calls)
     regterg      :      1.08s CPU      1.15s WALL (      20 calls)

     Called by *egterg:
     rdiaghg      :      0.45s CPU      1.22s WALL (      97 calls)
                                        1.20s GPU  (      97 calls)
     h_psi        :      0.98s CPU      3.94s WALL (      99 calls)
                                        3.93s GPU  (      99 calls)
     g_psi        :      0.00s CPU      0.00s WALL (      78 calls)
                                        0.00s GPU  (      78 calls)

     Called by h_psi:
     h_psi:calbec :      0.52s CPU      3.40s WALL (      99 calls)
                                        3.40s GPU  (      99 calls)
     vloc_psi     :      0.39s CPU      0.47s WALL (      99 calls)
                                        0.47s GPU  (      99 calls)
     add_vuspsi   :      0.04s CPU      0.06s WALL (      99 calls)
                                        0.06s GPU  (      99 calls)

     General routines
     calbec       :      0.52s CPU      3.40s WALL (     104 calls)
     fft          :      0.64s CPU      0.76s WALL (     167 calls)
                                        0.14s GPU  (     106 calls)
     ffts         :      0.05s CPU      0.05s WALL (      20 calls)
     fftw         :      0.49s CPU      0.64s WALL (    2118 calls)
                                        0.56s GPU  (    2118 calls)
 
     Parallel routines
 
     PWSCF        :      3.39s CPU      7.46s WALL

 
   This run was terminated on:  10:51:33  10May2023            

=------------------------------------------------------------------------------=
   JOB DONE.
=------------------------------------------------------------------------------=
