LAMMPS data file via write_data, version 23 Jun 2022, timestep = 100000

64 atoms
1 atom types

-0.3266623940786113 11.188062394078626 xlo xhi
-0.3266623940786113 11.188062394078626 ylo yhi
-0.3266623940786113 11.188062394078626 zlo zhi

Masses

1 28.0855

Atoms # atomic

20 1 4.188465458004388 0.17018723286085358 0.8766905205057014 4 -1 -3
42 1 3.1216394968004417 4.222736428104198 1.9923593201961078 0 4 -2
62 1 3.985265736108155 3.73305751458982 4.8869499573471575 -1 0 0
60 1 1.479217681022266 4.951235662329445 5.103485805928809 3 -2 -2
59 1 7.010319115552349 0.33037418460983237 2.785184224195792 2 1 -1
29 1 6.417923586119091 2.0067661197311835 0.12945657843746972 -1 -1 3
38 1 7.33230134231138 5.191028716446453 3.8704420537504918 2 4 -2
48 1 6.722317568734594 4.555933735906557 0.9330915414577774 2 -3 -1
45 1 7.725627641395806 2.97127041709004 3.0246133462031874 -4 1 1
36 1 9.36159342931155 5.1875424775198775 0.002423550590858692 0 1 0
39 1 8.799662662048114 1.4695620441928001 0.9733744152545931 0 -3 -4
51 1 10.143861907767786 3.7703190831777684 1.7006788751409379 -1 4 1
64 1 6.222251197633555 -0.3163726897004462 5.128566525320627 2 -2 -2
21 1 9.442552971613203 4.341752608241978 4.00090311510045 -1 -1 0
50 1 3.005072985979678 6.261926480033023 3.432532602151228 1 0 1
6 1 5.342248763247785 7.268057634063444 4.534081317722269 -5 -4 -1
26 1 3.9791673561490883 10.548524461217436 3.5052756197889363 1 2 0
33 1 4.8418872550699925 9.461318685266193 1.1004046479043774 4 1 -1
41 1 3.072433937985374 8.321614509382208 2.1371013766350773 1 2 -2
58 1 1.2232909138200283 8.256252383749882 4.202361035338649 0 -3 -2
63 1 -0.21801365804007133 8.937990956695938 2.4521961918247506 4 2 -2
27 1 8.255527995597156 6.381162560313113 1.669698965317013 -1 1 -4
30 1 8.938884378905758 9.537988695554251 3.1293584442206748 1 -3 1
52 1 7.923104925642348 10.299925613405144 1.0536311387723032 1 -4 4
46 1 9.505044895551293 8.466985284705292 0.7950031505403676 1 5 1
5 1 10.440697055402492 6.3615211159184675 3.597870374928957 -8 1 2
11 1 8.05685253405293 7.654159431751937 4.933952096465895 2 -3 1
13 1 9.795064242462772 9.04922484694448 5.374235090640861 -8 -2 1
15 1 6.536271215671679 8.440126799411608 2.852972293004767 -1 -1 -4
31 1 2.328742540542319 3.0072659711070213 7.044564283409022 1 0 -2
37 1 4.34189525176591 2.300265210819142 8.802968828503008 -1 5 0
49 1 3.1768150473382093 4.799837153519447 8.272145629403425 -3 -4 1
43 1 1.9578844213363147 1.575115219563887 8.844318062045154 2 3 1
9 1 5.167628421446228 0.4469804586646364 10.065610804545482 4 0 2
61 1 0.5476638380488393 4.6057190805903465 7.396516440343639 4 0 2
35 1 7.698552842050364 0.19246319379151688 10.436283285229841 4 -1 1
22 1 7.860787527448578 1.8670539811285924 8.464909168043302 -2 2 2
55 1 8.323428748736546 3.9354117321608397 9.700453190947659 1 -2 -1
17 1 7.541855937189196 1.955757975010902 5.896968061597275 1 2 -1
2 1 5.734677928653996 0.1649696166551411 7.774876559641384 -1 4 2
28 1 6.050536331488081 3.7146552406399627 9.552151559795458 0 -2 3
44 1 9.627191142167327 4.407731480612562 6.502952873550963 -2 -3 0
19 1 10.460412378991457 2.00081581133198 8.230559755115625 0 -1 -2
12 1 0.13167190931631362 9.681387843284782 10.89443964495349 1 1 2
7 1 0.08157843944991333 6.992063214725266 6.1299330472492874 -2 -1 4
25 1 4.99413062626263 5.601436635022808 6.461848273617712 -1 -2 0
23 1 2.7964880754261205 7.015928145804471 9.47961406531244 -1 3 -1
18 1 3.6788860146659994 10.571831459073593 8.520563401118782 2 -1 1
10 1 3.813819563302898 9.149042745607115 5.617216226321349 -3 -4 2
47 1 0.5627387251913086 9.23579752370786 6.357582853804646 1 4 2
3 1 2.4985203303241024 6.948322014781961 6.278791792696307 1 -1 -8
54 1 0.9003454282370884 8.504597456764106 8.853735083054314 -1 3 -2
16 1 4.313725779514117 8.553957161303597 8.314899731995354 0 0 1
57 1 0.9057902419381305 11.046305066029376 8.720424845632035 1 2 2
1 1 4.923407396839093 8.987254543377954 10.350196070509504 1 -2 1
34 1 5.5698080994015475 5.759264104470239 10.993492184183484 -2 0 3
32 1 7.167838994186036 8.907282098571997 10.714888831269114 -1 0 -1
4 1 5.781602393196047 9.408250122677615 6.6547217566308765 2 -1 6
8 1 6.667041864193193 7.279631569800815 6.787740395302194 3 -1 -2
53 1 8.17682174099043 7.694053213895061 8.587181295019477 -3 -1 -3
40 1 7.041936103872496 5.632498693045408 8.537731101430733 1 1 2
56 1 10.395032088945552 6.344302579713635 9.330433880966094 -2 -5 0
24 1 9.933062907042927 11.004737973418923 7.375307965773451 -2 0 3
14 1 10.2536595795684 8.754393149022576 8.675391648084169 -4 3 -5

Velocities

20 -9.005322225024406 1.914591481311762 -9.298114738168595
42 3.0836613947592584 10.122494541703547 3.730780100434352
62 9.595013352233185 -2.512821020837094 -4.352286066216146
60 2.0098409324948907 7.118399525467889 -12.790553653763448
59 7.223378107251234 -5.746391116338289 1.5072595775757651
29 10.325033209224118 -5.149160797735708 13.92849078356638
38 -9.679684458919546 -3.4137119288468494 -6.190828308139494
48 -2.2633728905393755 1.2648139291962266 4.77236796478035
45 2.13826308534687 -5.766350716571008 4.546654750631503
36 13.647381294246154 -12.032900067306942 -10.205599027153927
39 15.326829445832303 8.46481369369374 -0.020469921575851164
51 8.145777048499575 -1.2822576702312525 -12.188576266829145
64 -3.1008874469362295 -2.1868828713017794 -4.277488121442187
21 2.266726214520675 2.0814128134688588 15.326001299621447
50 9.469708477229036 1.7701299864374374 2.1382804001258946
6 5.03737241613064 2.168702055368574 16.30046671947688
26 -3.7032995629645886 -1.9754799927477171 5.025678073136212
33 8.876371484834474 0.4253266009745735 0.6192012870605968
41 -2.763609954480579 3.1619227438200626 -0.2356304812487548
58 -2.3417506701787394 -9.565009917378893 -2.800581329593202
63 -1.356163859968739 -1.656422941598541 -9.869616428421319
27 -13.130230894238897 -2.5535113584245304 -7.563953973024382
30 8.486537108763672 13.130794116400763 -3.4577083028123283
52 2.6294674710577426 -13.762686528253054 3.159878642484696
46 1.7027950964469847 3.9475966819061497 4.571117384842473
5 -9.58593418582053 -1.139051794086931 13.344048600315753
11 -7.101026894322474 7.554318726546536 -3.9578390294918653
13 0.5719633750916845 4.859046457873149 7.925341927301309
15 6.3560243184722856 11.292186528461135 4.9519914297400796
31 1.7594620675268247 -6.458611665402643 3.44393031802728
37 9.742229953951961 8.956899529202325 -9.66689397256873
49 2.905557478923658 4.420378420820484 -0.4924018517310263
43 -3.2938428376694846 2.082671616536942 0.13779728181130735
9 -6.830634779213004 14.123156486923431 0.24002680715908323
61 -2.3766105830349966 -14.215558951311891 -4.3375229430789854
35 0.05973338183360455 2.64123041420536 -8.157520718516295
22 -1.5412489484145502 -0.8706619733630554 14.936677507071906
55 -2.3984991910357176 -0.4219976330034253 4.557533660334877
17 -1.2860707751959304 -4.968387577464203 3.715745209236998
2 -0.7322075528097627 -7.058079279880283 -10.80565027684903
28 -13.262517860680578 2.1271471550158267 13.29065560710621
44 -5.010022875525167 11.3497978865775 0.7006383935851211
19 2.3975795109368656 6.01230381721063 -6.638507646674113
12 -3.35347549608317 -5.711708217863638 11.883029411826657
7 -7.271454079360395 -2.483803320904283 -2.268212698538641
25 -7.307566329685562 -0.7084846526778392 9.333257900518733
23 -5.633383748559971 9.296496777618929 4.532869584322892
18 -7.833070808368745 -4.982815660850008 -0.6242846714059237
10 3.5891916519795886 -12.785505032557298 -0.898720508539741
47 0.9347029931150111 9.323457502085175 -10.510318788689538
3 9.678758536622464 6.116933496996246 -7.805736658439879
54 8.768189454241675 -7.009394081283362 -8.53108860362971
16 -12.749696139099173 0.12642067402021379 -10.236392413988133
57 11.815253521755672 5.413666121046899 -6.864889706865306
1 1.585230834583213 -8.269487881443878 13.19353096722488
34 -18.341329213091257 -12.187016486979 8.194448343463698
32 -14.02538072977418 -4.0259535445512835 2.067963484121807
4 8.999365110629203 1.775053977906049 -2.794013261695257
8 -2.1862678392811583 -14.656674441056001 10.080367533362574
53 -11.864941115520299 6.727500974940909 4.118591875770618
40 9.100476063573524 -0.023952657750308585 -22.556508904424447
56 -8.491982684131347 -4.649937064165131 -7.949300520519501
24 11.86951576256183 -3.7491539938267504 1.324645845749124
14 -0.27590352474133606 14.21015810425555 0.7479411222474578
