LAMMPS data file via write_data, version 23 Jun 2022, timestep = 1000

64 atoms
1 atom types

0.018942199823966277 10.842457800175595 xlo xhi
0.018942199823966277 10.842457800175595 ylo yhi
0.018942199823966277 10.842457800175595 zlo zhi

Masses

1 28.0855

Atoms # atomic

7 1 2.4663212419070875 0.18192253278963033 2.3820820474619055 0 0 0
55 1 2.980007165172373 2.3009034992564086 1.0207237151259672 0 0 1
40 1 5.294920187455788 4.8550712778611596 2.138749211182357 0 0 0
26 1 0.25656553821451483 4.1074324073460105 0.22712254693097167 1 0 0
54 1 5.176206511363742 2.4591969867899883 1.942688627731503 0 1 0
44 1 1.3889533625305328 3.4832206079197947 4.958135920741259 1 0 0
30 1 2.235605221554497 5.38743909139179 0.0521288639975747 0 0 0
64 1 1.1162244482256003 2.251415942245837 2.6725944665581 1 0 0
51 1 3.5972248402883062 3.6191470348126917 3.3734913052234745 0 0 0
19 1 5.361431175146716 0.9162158145914413 0.45316982154735763 0 0 1
46 1 1.3513041094540195 4.87389460740264 2.3398935440403394 1 0 1
57 1 5.232160969490397 1.4527877463062344 4.807786725848322 0 1 0
16 1 10.342570302384479 4.649400772352154 3.968082555127801 0 0 0
60 1 7.188106524814479 0.9182959780293525 3.2403163956096344 0 1 0
56 1 6.542309395407378 3.6261651527813847 4.145523598703374 0 0 0
11 1 8.736978780520362 0.7924883025220817 0.42300875497930346 0 0 1
50 1 10.034012650767533 0.6419058193634749 3.5361444534231405 0 1 0
28 1 4.674142056832138 10.350302785469927 2.773310132251127 1 -1 0
49 1 2.9855783826873084 9.025792754540621 0.519622947487043 0 0 0
47 1 2.236403340535452 6.442535740364663 4.184109055050721 0 0 0
43 1 3.3580598301345246 6.584038680082945 1.8192895849051207 0 0 1
58 1 4.1433959004874765 8.319394557245248 4.256789284462357 0 0 0
4 1 4.9974451480140765 7.843593289743845 0.6393819012146417 0 -1 1
45 1 1.7904432936899162 8.224684315160157 2.2073081426191687 0 0 0
22 1 1.6590418085321894 8.959070181192585 4.983813481769751 0 0 0
35 1 6.355851130968789 7.653963246496904 3.2208501761862487 0 0 1
52 1 7.081578275372564 9.957391625400684 1.575069035706529 0 -1 1
10 1 8.530252030079703 6.942465227907416 2.4896723356704666 0 -1 0
34 1 7.561945917064738 7.981293330362264 0.7451702349336599 -1 0 0
5 1 10.632331311018286 10.04163654789585 1.587317855742057 0 -1 1
62 1 10.384917114899027 8.023799311375713 3.974090032502662 -1 0 -1
2 1 8.461622894321119 6.143305246410095 4.801308719570314 0 0 0
18 1 4.19279630342928 0.6500068898062639 7.023150479419746 0 0 0
20 1 4.787044513021725 4.292231660481046 5.760847197778233 0 1 0
59 1 0.38102662852629926 1.1289523079619748 5.632091019907196 1 1 0
1 1 2.258460761711781 1.8290445255212846 7.087723391694864 0 0 0
21 1 3.09507283330097 3.8775534714648394 8.643509134517057 0 0 -1
15 1 1.0827674254081412 2.2403784102585775 9.0459246886736 0 1 -1
6 1 2.407395236408784 5.33355825153517 6.29723502847381 1 0 0
36 1 6.4056448406023625 3.2789243344605796 7.018167331737701 0 0 0
17 1 7.403090634962731 1.2714929143180997 7.192839184888488 0 0 0
33 1 7.630629500249473 2.2316001649612973 10.027782642183377 0 1 0
13 1 9.096029884754676 0.2784116620633957 5.838575012652049 -1 0 0
3 1 9.753150127160213 3.4870335585001766 8.566344945945229 -1 0 0
61 1 9.556447285397363 1.004470262414086 8.7431393555307 0 0 0
63 1 5.485208854875461 2.4972906808597313 9.332570427569694 0 0 0
31 1 9.805813995065028 4.308340046201434 6.197512098499994 0 1 0
25 1 8.281449357754244 5.0830739546903345 9.355741706564569 0 0 0
38 1 0.8169801847441481 9.737605783975761 7.054568732561355 0 -1 -1
9 1 5.357321253814074 5.558728671255969 8.258070480150176 0 0 1
23 1 1.8025641402064423 10.164888463923944 9.376297161822327 0 0 0
29 1 4.83874524651392 9.025783334997959 9.468623629060094 0 -1 0
27 1 0.8684447715866493 5.45945699335894 8.164677404750103 0 0 -1
12 1 3.4868561328409444 9.393144627561705 6.561202367862802 0 -1 0
41 1 9.937383316847688 7.033591221892874 7.5331350287863845 -1 0 -1
32 1 10.620133545777636 9.009705487816946 10.481009185816982 -1 0 -1
42 1 6.333526521853038 6.033904283116779 5.767252855769672 0 0 0
39 1 5.8964508283563 9.778255918882943 5.827178476263135 0 0 0
37 1 8.098533468425662 7.835018040253236 9.348609024481108 0 0 0
24 1 7.135548141328446 10.135529140472372 9.73120765172932 0 0 0
53 1 8.753088352618986 9.668984293885964 8.015120374081654 -1 -1 0
48 1 6.3074715250296975 5.9827303931334415 10.424508423672675 0 0 0
8 1 10.105134150697788 6.971771202080818 10.197993781773738 0 0 -1
14 1 6.108907755493835 8.116748250101358 7.503618636013945 0 0 -1

Velocities

7 1.5493858809374605 8.528470138317745 7.1364702081262426
55 -1.6843264781423262 -13.74472780122638 1.2943535350189572
40 1.7719260873313043 -6.703954160159869 6.241051152470441
26 -0.6016892098021274 -7.256189969506432 4.8178983127051325
54 -4.077606250063258 -5.655106178570269 10.211041559269427
44 11.520113815969017 4.36131846389366 -6.2538264127211605
30 -9.58868944032428 4.320382920980286 -4.908226758120172
64 -6.470123249333621 -9.203858552834594 4.014441294298393
51 2.9626705298425415 -2.4679697710576622 21.2817463441041
19 -1.8488260762812119 0.27272128873648954 -3.7535443326508564
46 8.296389544032527 -6.781074833335838 -0.16103867471163263
57 -1.635408859237066 11.536320350908722 -13.997696711794777
16 19.618422406216002 -7.40240486269968 14.076977755399353
60 -0.7128313306232181 -1.8135618566162353 7.510285085123453
56 -12.626829736463796 12.19465688741801 2.9159959068442274
11 -1.373837821114727 -5.1455185699977575 0.7540481038319016
50 -5.323562027411437 0.7112206985475417 -3.74812955920664
28 18.45970714480575 5.615099288916904 -17.487315282246303
49 9.971642832693131 0.44014521807605694 7.729174661204239
47 0.06080794319653183 15.353663192500278 8.202521986331638
43 -0.95255350328231 -3.8352851125108365 -3.974929438173006
58 -8.643006867292796 2.6058645440859123 8.707558992557283
4 3.0491254006096926 -0.01661788882309852 3.7504637898731783
45 -5.668813097521618 8.598557721207817 -1.4876514671489527
22 -1.9255352839507631 2.116773970447468 13.069331712242835
35 5.391956931076366 4.738496694462722 -0.705518967396208
52 -8.135830173943267 -5.888234433219448 -1.270284601427645
10 -2.105659901739201 -0.4176490542403925 -10.594098529356259
34 14.508246916020138 -6.885581986423559 1.9482256395415178
5 10.689924465243747 2.686200044843946 -5.912794939474693
62 -0.5839146847330592 -7.222195461618382 0.8129672139973952
2 -9.846114487826112 -1.7443421285776564 3.199967461128555
18 -0.33035232169968926 -10.818800743725168 -0.3299198952611221
20 -4.276761640851796 4.564234590595005 -8.306625450744628
59 -0.5736665428292076 -5.385775016047316 -6.147308036507148
1 -7.586820220721056 3.7374985546072756 1.1764427639400312
21 0.5947831076759342 -3.5847457169887167 -2.299145095091054
15 -1.7648430613538868 -4.836586394646809 -3.018935612058511
6 -2.5693973470032887 -0.1401156857491417 -8.698655131252956
36 12.616271793563037 -0.5512450983366352 2.3317325762203436
17 -1.3567392852720992 1.0116316739190316 8.652162640460173
33 4.952194404687177 -0.045158720531616826 -6.448350826284633
13 2.101802046397891 -6.066536705398137 2.565219552437398
3 -3.994802237357721 9.274537403378279 -1.6229536694982782
61 -0.3716407731066263 -7.414354538315386 12.002222129068452
63 10.36334545998354 0.44225672241252095 -0.1548152397534442
31 -1.139378477967199 -11.669180861858694 -16.208923208793674
25 -3.32340736719174 -3.200088207976767 1.3363795603722022
38 4.510797674953777 -1.0314617921206235 2.84875446910946
9 11.940885666263885 4.365322595680178 -2.4179924815753373
23 -15.05137529221551 4.6861097925058175 1.6298138151324089
29 -10.538025651549859 12.106177101192047 10.208437330128355
27 -8.894685791104447 -4.35772546766627 -3.5994424206683386
12 4.244348596535637 -5.396071929058151 3.06291894122041
41 -4.337923408397681 3.84944756035077 -5.450434025380758
32 2.1544963487454303 6.043091425547048 -7.952015495131238
42 -9.34287973944199 0.5260702214318752 -3.47811331928985
39 2.2805328147706616 13.739318589652443 1.3616151813831752
37 8.881914474269998 15.33795345827175 1.572561093370514
24 -9.648931869495971 1.7548190574507883 -4.482923247504272
53 1.7030936610422966 -2.641826583719425 -14.892350109184274
48 -6.37869107248073 -4.850811114803522 5.087915714725805
8 2.5153830857680157 2.556520211196303 -6.613086265489314
14 -1.4246884535044715 -3.9001231831742746 -5.133651277739896
