/scratch/gpfs/ppiaggi/Simulations/TutorialWorkshop/Iteration5/run-simulations/liquid-64-1700K-1bar
della-l08g5
Thu May 11 15:01:14 EDT 2023
LAMMPS (23 Jun 2022 - Update 1)
  using 8 OpenMP thread(s) per MPI task
Loaded 1 plugins from /home/ppiaggi/.conda/envs/deepmd-2.1.3/lib/deepmd_lmp
Loaded 1 plugins from /home/ppiaggi/.conda/envs/deepmd-2.1.3/lib/deepmd_lmp
Loaded 0 plugins from 

variable	temperature equal 1700.0
variable	tempDamp equal 0.1
variable        pressure equal 1.
variable        pressureDamp equal 1.0 # This is 1 ps
variable	out_freq equal 1000

variable        seed equal 745823

units		metal
atom_style	atomic
read_data       si-64-liquid.lammps-data
Reading data file ...
  orthogonal box = (0.0189422 0.0189422 0.0189422) to (10.842458 10.842458 10.842458)
  1 by 1 by 1 MPI processor grid
  reading atoms ...
  64 atoms
  reading velocities ...
  64 velocities
  read_data CPU = 0.002 seconds

timestep	0.001
neigh_modify    delay 10 every 1
pair_style      deepmd ../frozen_model_1_compressed.pb ../frozen_model_2_compressed.pb ../frozen_model_3_compressed.pb ../frozen_model_4_compressed.pb out_file md.out out_freq ${out_freq}
pair_style      deepmd ../frozen_model_1_compressed.pb ../frozen_model_2_compressed.pb ../frozen_model_3_compressed.pb ../frozen_model_4_compressed.pb out_file md.out out_freq 1000
Summary of lammps deepmd module ...
  >>> Info of deepmd-kit:
  installed to:       /home/ppiaggi/.conda/envs/deepmd-2.1.3
  source:             v2.1.3
  source branch:       HEAD
  source commit:      5a32c49e
  source commit at:   2022-07-01 09:52:58 +0800
  surpport model ver.:1.1 
  build float prec:   double
  build with tf inc:  /home/ppiaggi/.conda/envs/deepmd-2.1.3/include;/home/ppiaggi/.conda/envs/deepmd-2.1.3/include
  build with tf lib:  /home/ppiaggi/.conda/envs/deepmd-2.1.3/lib/libtensorflow_cc.so;/home/ppiaggi/.conda/envs/deepmd-2.1.3/lib/libtensorflow_framework.so
  set tf intra_op_parallelism_threads: 809055289
  set tf inter_op_parallelism_threads: 540490035
  >>> Info of lammps module:
DeePMD-kit WARNING: Environmental variable TF_INTRA_OP_PARALLELISM_THREADS is not set. Tune TF_INTRA_OP_PARALLELISM_THREADS for the best performance.
DeePMD-kit WARNING: Environmental variable TF_INTER_OP_PARALLELISM_THREADS is not set. Tune TF_INTER_OP_PARALLELISM_THREADS for the best performance.
2023-05-11 15:01:15.317992: I tensorflow/core/platform/cpu_feature_guard.cc:193] This TensorFlow binary is optimized with oneAPI Deep Neural Network Library (oneDNN) to use the following CPU instructions in performance-critical operations:  SSE4.1 SSE4.2 AVX AVX2 FMA
To enable them in other operations, rebuild TensorFlow with the appropriate compiler flags.
2023-05-11 15:01:15.723088: I tensorflow/core/common_runtime/gpu/gpu_device.cc:1532] Created device /job:localhost/replica:0/task:0/device:GPU:0 with 73105 MB memory:  -> device: 0, name: NVIDIA A100-SXM4-80GB, pci bus id: 0000:c1:00.0, compute capability: 8.0
2023-05-11 15:01:15.723406: I tensorflow/core/common_runtime/process_util.cc:146] Creating new thread pool with default inter op setting: 2. Tune using inter_op_parallelism_threads for best performance.
2023-05-11 15:01:15.737555: I tensorflow/compiler/mlir/mlir_graph_optimization_pass.cc:354] MLIR V1 optimization pass is not enabled
DeePMD-kit WARNING: Environmental variable TF_INTRA_OP_PARALLELISM_THREADS is not set. Tune TF_INTRA_OP_PARALLELISM_THREADS for the best performance.
DeePMD-kit WARNING: Environmental variable TF_INTER_OP_PARALLELISM_THREADS is not set. Tune TF_INTER_OP_PARALLELISM_THREADS for the best performance.
2023-05-11 15:01:15.794967: I tensorflow/core/common_runtime/gpu/gpu_device.cc:1532] Created device /job:localhost/replica:0/task:0/device:GPU:0 with 73105 MB memory:  -> device: 0, name: NVIDIA A100-SXM4-80GB, pci bus id: 0000:c1:00.0, compute capability: 8.0
2023-05-11 15:01:15.801166: I tensorflow/core/common_runtime/gpu/gpu_device.cc:1532] Created device /job:localhost/replica:0/task:0/device:GPU:0 with 73105 MB memory:  -> device: 0, name: NVIDIA A100-SXM4-80GB, pci bus id: 0000:c1:00.0, compute capability: 8.0
2023-05-11 15:01:15.929935: I tensorflow/core/common_runtime/gpu/gpu_device.cc:1532] Created device /job:localhost/replica:0/task:0/device:GPU:0 with 73105 MB memory:  -> device: 0, name: NVIDIA A100-SXM4-80GB, pci bus id: 0000:c1:00.0, compute capability: 8.0
2023-05-11 15:01:15.936040: I tensorflow/core/common_runtime/gpu/gpu_device.cc:1532] Created device /job:localhost/replica:0/task:0/device:GPU:0 with 73105 MB memory:  -> device: 0, name: NVIDIA A100-SXM4-80GB, pci bus id: 0000:c1:00.0, compute capability: 8.0
  use deepmd-kit at:  /home/ppiaggi/.conda/envs/deepmd-2.1.3  >>> Info of model(s):
  using   4 model(s): ../frozen_model_1_compressed.pb ../frozen_model_2_compressed.pb ../frozen_model_3_compressed.pb ../frozen_model_4_compressed.pb 
  rcut in model:      6
  ntypes in model:    1
pair_coeff      * *
thermo          ${out_freq}
thermo          1000
thermo_style 	custom step temp pe etotal epair emol press lx ly lz vol
restart 	${out_freq} restart.lmp restart2.lmp
restart 	1000 restart.lmp restart2.lmp

dump            myDump all atom ${out_freq} si.lammps-dump-text
dump            myDump all atom 1000 si.lammps-dump-text

timer           timeout 00:55:00 every 1000
New timer settings: style=normal  mode=nosync  timeout=00:55:00

fix             thermo_print all print ${out_freq} "$(step) $(enthalpy) $(vol)" file thermo.txt screen no title "#step enthalpy vol"
fix             thermo_print all print 1000 "$(step) $(enthalpy) $(vol)" file thermo.txt screen no title "#step enthalpy vol"
fix             1 all nph iso ${pressure} ${pressure} ${pressureDamp}
fix             1 all nph iso 1 ${pressure} ${pressureDamp}
fix             1 all nph iso 1 1 ${pressureDamp}
fix             1 all nph iso 1 1 1
fix             2 all temp/csvr ${temperature} ${temperature} ${tempDamp} ${seed}
fix             2 all temp/csvr 1700 ${temperature} ${tempDamp} ${seed}
fix             2 all temp/csvr 1700 1700 ${tempDamp} ${seed}
fix             2 all temp/csvr 1700 1700 0.1 ${seed}
fix             2 all temp/csvr 1700 1700 0.1 745823
fix             3 all momentum 10000 linear 1 1 1 rescale

velocity 	all create ${temperature} ${seed} dist gaussian
velocity 	all create 1700 ${seed} dist gaussian
velocity 	all create 1700 745823 dist gaussian

run             100000 upto # 100 ps

CITE-CITE-CITE-CITE-CITE-CITE-CITE-CITE-CITE-CITE-CITE-CITE-CITE

Your simulation uses code contributions which should be cited:
- USER-DEEPMD package:
The log file lists these citations in BibTeX format.

CITE-CITE-CITE-CITE-CITE-CITE-CITE-CITE-CITE-CITE-CITE-CITE-CITE

Generated 0 of 0 mixed pair_coeff terms from geometric mixing rule
Neighbor list info ...
  update every 1 steps, delay 10 steps, check yes
  max neighbors/atom: 2000, page size: 100000
  master list distance cutoff = 8
  ghost atom cutoff = 8
  binsize = 4, bins = 3 3 3
  1 neighbor lists, perpetual/occasional/extra = 1 0 0
  (1) pair deepmd, perpetual
      attributes: full, newton on
      pair build: full/bin/atomonly
      stencil: full/bin/3d
      bin: standard
Setting up Verlet run ...
  Unit style    : metal
  Current step  : 0
  Time step     : 0.001
  Walltime left : 0:54:59.99
Per MPI rank memory allocation (min/avg/max) = 10.3 | 10.3 | 10.3 Mbytes
   Step          Temp          PotEng         TotEng         E_pair         E_mol          Press            Lx             Ly             Lz           Volume    
         0   1700          -6814.2169     -6800.3731     -6814.2169      0              7646.4614      10.823516      10.823516      10.823516      1267.9585    
      1000   1973.8179     -6814.6906     -6798.617      -6814.6906      0              10999.746      10.988752      10.988752      10.988752      1326.921     
      2000   1657.5009     -6813.5527     -6800.055      -6813.5527      0              3860.7579      10.873733      10.873733      10.873733      1285.689     
      3000   1852.4717     -6815.9349     -6800.8495     -6815.9349      0             -12884.864      10.888986      10.888986      10.888986      1291.1073    
      4000   1570.8582     -6814.297      -6801.5049     -6814.297       0              12332.847      10.859474      10.859474      10.859474      1280.6381    
      5000   1773.688      -6814.5811     -6800.1373     -6814.5811      0             -8599.8572      11.02632       11.02632       11.02632       1340.5771    
      6000   1999.98       -6818.1675     -6801.8809     -6818.1675      0              5779.0116      10.684372      10.684372      10.684372      1219.683     
      7000   1634.7693     -6813.8429     -6800.5303     -6813.8429      0             -18593.829      11.073898      11.073898      11.073898      1358.0055    
      8000   1607.4211     -6813.5704     -6800.4805     -6813.5704      0              7739.1617      10.947299      10.947299      10.947299      1311.961     
      9000   1716.8387     -6812.3025     -6798.3216     -6812.3025      0              12023.552      11.077511      11.077511      11.077511      1359.3351    
     10000   1853.5774     -6815.0905     -6799.9961     -6815.0905      0             -3094.1838      10.918195      10.918195      10.918195      1301.525     
     11000   1672.4641     -6814.0671     -6800.4476     -6814.0671      0             -16960.099      10.884549      10.884549      10.884549      1289.5296    
     12000   2086.5565     -6813.1473     -6796.1557     -6813.1473      0              7521.2097      10.961387      10.961387      10.961387      1317.0327    
     13000   1817.5535     -6811.4708     -6796.6698     -6811.4708      0             -1857.6643      11.285316      11.285316      11.285316      1437.2793    
     14000   1532.5001     -6813.5989     -6801.1191     -6813.5989      0             -1123.267       10.94907       10.94907       10.94907       1312.5978    
     15000   1714.7041     -6814.8857     -6800.9222     -6814.8857      0              19287.402      10.798903      10.798903      10.798903      1259.3281    
     16000   1725.5891     -6815.5361     -6801.484      -6815.5361      0              7399.4164      10.944384      10.944384      10.944384      1310.9134    
     17000   1870.9501     -6813.362      -6798.1262     -6813.362       0             -2016.6154      10.915235      10.915235      10.915235      1300.4667    
     18000   1589.9081     -6816.1169     -6803.1696     -6816.1169      0             -1402.1055      10.942019      10.942019      10.942019      1310.0636    
     19000   1804.2538     -6818.3331     -6803.6404     -6818.3331      0              18410.34       10.684885      10.684885      10.684885      1219.8589    
     20000   1684.6787     -6817.1715     -6803.4525     -6817.1715      0              20354.229      10.722793      10.722793      10.722793      1232.8883    
     21000   2000.8615     -6816.1722     -6799.8784     -6816.1722      0              15865.885      10.992788      10.992788      10.992788      1328.3836    
     22000   2012.6968     -6815.9609     -6799.5707     -6815.9609      0             -6381.0911      10.929791      10.929791      10.929791      1305.6764    
     23000   2009.0781     -6814.7592     -6798.3985     -6814.7592      0              6814.0034      10.941303      10.941303      10.941303      1309.8064    
     24000   1851.5612     -6813.3639     -6798.2859     -6813.3639      0              32815.095      10.795006      10.795006      10.795006      1257.9652    
     25000   1613.1343     -6812.1649     -6799.0285     -6812.1649      0             -2568.2547      11.015889      11.015889      11.015889      1336.776     
     26000   1624.9403     -6816.0585     -6802.826      -6816.0585      0              652.31401      10.77077       10.77077       10.77077       1249.5116    
     27000   1918.354      -6814.851      -6799.2291     -6814.851       0              11088.07       10.832572      10.832572      10.832572      1271.144     
     28000   1715.5734     -6815.506      -6801.5354     -6815.506       0             -3741.1879      10.895803      10.895803      10.895803      1293.5335    
     29000   1741.7822     -6815.8434     -6801.6594     -6815.8434      0             -907.50533      10.811009      10.811009      10.811009      1263.5682    
     30000   1956.7256     -6815.2664     -6799.332      -6815.2664      0             -6872.9798      10.836012      10.836012      10.836012      1272.3554    
     31000   1623.1781     -6813.8629     -6800.6447     -6813.8629      0              27623.414      10.768566      10.768566      10.768566      1248.7447    
     32000   2093.144      -6815.3178     -6798.2725     -6815.3178      0              8381.4988      10.815166      10.815166      10.815166      1265.0264    
     33000   1481.6482     -6815.8602     -6803.7945     -6815.8602      0              20866.282      10.774228      10.774228      10.774228      1250.7153    
     34000   1637.2935     -6815.0001     -6801.667      -6815.0001      0             -26415.982      11.013521      11.013521      11.013521      1335.914     
     35000   1834.7095     -6812.618      -6797.6772     -6812.618       0              2786.4512      10.973909      10.973909      10.973909      1321.5515    
     36000   1832.936      -6812.8638     -6797.9375     -6812.8638      0             -5633.0313      10.99275       10.99275       10.99275       1328.3699    
     37000   1627.5854     -6814.0118     -6800.7578     -6814.0118      0             -13939.89       10.945109      10.945109      10.945109      1311.1738    
     38000   1675.5039     -6813.7732     -6800.1289     -6813.7732      0             -2665.8198      10.913199      10.913199      10.913199      1299.7391    
     39000   1617.0985     -6813.4515     -6800.2828     -6813.4515      0             -14175.777      10.959979      10.959979      10.959979      1316.5251    
     40000   1635.3309     -6814.7586     -6801.4414     -6814.7586      0             -13012.183      10.942166      10.942166      10.942166      1310.1166    
     41000   1958.9099     -6815.1144     -6799.1623     -6815.1144      0              8455.1382      10.791971      10.791971      10.791971      1256.9045    
     42000   1500.1754     -6816.5908     -6804.3743     -6816.5908      0             -15419.305      10.911259      10.911259      10.911259      1299.0463    
     43000   1748.4966     -6815.401      -6801.1624     -6815.401       0              2698.2801      10.775851      10.775851      10.775851      1251.2808    
     44000   1432.9192     -6813.051      -6801.3821     -6813.051       0             -2440.5513      11.069426      11.069426      11.069426      1356.3609    
     45000   1512.6602     -6813.6297     -6801.3115     -6813.6297      0             -6875.5585      11.036723      11.036723      11.036723      1344.375     
     46000   1724.2734     -6814.7145     -6800.673      -6814.7145      0              8494.9157      10.871871      10.871871      10.871871      1285.0288    
     47000   1556.5363     -6814.3784     -6801.7029     -6814.3784      0             -2866.8292      10.99008       10.99008       10.99008       1327.4022    
     48000   1880.7616     -6810.5987     -6795.283      -6810.5987      0             -5645.8622      11.25354       11.25354       11.25354       1425.1728    
     49000   1892.7936     -6815.5478     -6800.134      -6815.5478      0             -3986.4412      10.866363      10.866363      10.866363      1283.0768    
     50000   1837.3184     -6814.0999     -6799.1379     -6814.0999      0              150.66341      10.970673      10.970673      10.970673      1320.3827    
     51000   1422.9117     -6817.9105     -6806.3231     -6817.9105      0             -9781.4415      10.747195      10.747195      10.747195      1241.3245    
     52000   1797.1979     -6816.6908     -6802.0556     -6816.6908      0              6003.4282      10.734874      10.734874      10.734874      1237.0603    
     53000   1921.7047     -6816.5996     -6800.9504     -6816.5996      0              8773.9543      10.737437      10.737437      10.737437      1237.9464    
     54000   1730.1511     -6816.4571     -6802.3678     -6816.4571      0              12118.498      10.739865      10.739865      10.739865      1238.7865    
     55000   1668.6442     -6815.3536     -6801.7652     -6815.3536      0              11812.846      10.839043      10.839043      10.839043      1273.4234    
     56000   1903.5351     -6816.5547     -6801.0535     -6816.5547      0              14486.809      10.770428      10.770428      10.770428      1249.3926    
     57000   1528.578      -6814.9407     -6802.4929     -6814.9407      0             -3672.4187      10.876964      10.876964      10.876964      1286.8357    
     58000   1581.6293     -6814.8448     -6801.965      -6814.8448      0             -7963.3612      10.939696      10.939696      10.939696      1309.2294    
     59000   1962.8996     -6812.6539     -6796.6692     -6812.6539      0             -21949.663      11.09887       11.09887       11.09887       1367.2135    
     60000   1696.8294     -6813.9126     -6800.0947     -6813.9126      0             -1115.4339      10.910723      10.910723      10.910723      1298.8549    
     61000   1758.3078     -6814.6614     -6800.3428     -6814.6614      0              19853.463      10.723145      10.723145      10.723145      1233.0097    
     62000   1842.0021     -6816.4841     -6801.484      -6816.4841      0              3506.2512      10.929045      10.929045      10.929045      1305.4092    
     63000   1651.4202     -6814.0534     -6800.6053     -6814.0534      0              193.94344      10.887231      10.887231      10.887231      1290.483     
     64000   2046.3017     -6814.6042     -6797.9404     -6814.6042      0             -605.69256      10.833461      10.833461      10.833461      1271.457     
     65000   1719.4192     -6816.0556     -6802.0537     -6816.0556      0              6221.9414      10.802074      10.802074      10.802074      1260.4379    
     66000   1620.6308     -6814.4311     -6801.2337     -6814.4311      0             -4055.4476      10.92771       10.92771       10.92771       1304.9309    
     67000   1905.8359     -6814.3244     -6798.8044     -6814.3244      0              328.75002      10.85823       10.85823       10.85823       1280.1978    
     68000   1933.6111     -6816.6221     -6800.876      -6816.6221      0              16312.526      10.745614      10.745614      10.745614      1240.7771    
     69000   1914.3887     -6814.0613     -6798.4717     -6814.0613      0              26501.626      10.79453       10.79453       10.79453       1257.7988    
     70000   1851.7679     -6819.3648     -6804.2851     -6819.3648      0              10989.951      10.72681       10.72681       10.72681       1234.2744    
     71000   1534.4986     -6816.3244     -6803.8284     -6816.3244      0              7145.898       10.835791      10.835791      10.835791      1272.2775    
     72000   1701.6687     -6812.3631     -6798.5057     -6812.3631      0              12545.933      10.985557      10.985557      10.985557      1325.7641    
     73000   1539.9913     -6815.5752     -6803.0345     -6815.5752      0              518.77623      10.855527      10.855527      10.855527      1279.242     
     74000   1592.596      -6813.4563     -6800.4871     -6813.4563      0             -7082.4346      10.900218      10.900218      10.900218      1295.1069    
     75000   1741.0548     -6814.6352     -6800.4572     -6814.6352      0              13652.628      10.79915       10.79915       10.79915       1259.4147    
     76000   1591.6066     -6814.6349     -6801.6739     -6814.6349      0             -5120.2715      10.736885      10.736885      10.736885      1237.7556    
     77000   1827.8567     -6816.6312     -6801.7463     -6816.6312      0              4204.5672      10.750686      10.750686      10.750686      1242.5347    
     78000   1644.7527     -6813.0784     -6799.6845     -6813.0784      0             -11758.14       11.259389      11.259389      11.259389      1427.396     
     79000   1508.9511     -6813.6157     -6801.3277     -6813.6157      0              11896.937      11.06884       11.06884       11.06884       1356.1457    
     80000   1852.3883     -6816.7063     -6801.6216     -6816.7063      0              15620.733      10.827641      10.827641      10.827641      1269.4091    
     81000   1821.3505     -6816.1359     -6801.304      -6816.1359      0              290.20683      10.901464      10.901464      10.901464      1295.5509    
     82000   1435.5812     -6811.7421     -6800.0516     -6811.7421      0             -29541.261      11.204559      11.204559      11.204559      1406.6444    
     83000   2029.1022     -6814.7522     -6798.2284     -6814.7522      0              11647.778      10.851687      10.851687      10.851687      1277.8849    
     84000   1493.0795     -6813.0326     -6800.8739     -6813.0326      0              16251.284      10.904724      10.904724      10.904724      1296.7134    
     85000   1540.2858     -6814.7482     -6802.2051     -6814.7482      0             -6966.5672      10.983653      10.983653      10.983653      1325.0749    
     86000   2024.7643     -6813.8744     -6797.386      -6813.8744      0              9047.4324      10.831898      10.831898      10.831898      1270.9066    
     87000   1679.4327     -6816.6071     -6802.9308     -6816.6071      0             -1012.597       10.803523      10.803523      10.803523      1260.9453    
     88000   1632.3581     -6814.011      -6800.7181     -6814.011       0             -11521.415      10.991546      10.991546      10.991546      1327.9337    
     89000   1528.1581     -6815.8189     -6803.3745     -6815.8189      0              19745.575      10.786781      10.786781      10.786781      1255.0922    
     90000   1688.2993     -6816.8823     -6803.1338     -6816.8823      0              10794.106      10.754075      10.754075      10.754075      1243.7102    
     91000   1774.7477     -6816.4671     -6802.0147     -6816.4671      0              393.03108      10.717403      10.717403      10.717403      1231.03      
     92000   1475.6628     -6815.9136     -6803.8967     -6815.9136      0              14723.765      10.770379      10.770379      10.770379      1249.3753    
     93000   1371.8416     -6814.0558     -6802.8844     -6814.0558      0             -172.22083      10.961286      10.961286      10.961286      1316.9964    
     94000   1584.3497     -6815.2911     -6802.3891     -6815.2911      0              6210.2956      10.985444      10.985444      10.985444      1325.7233    
     95000   1944.2604     -6817.6801     -6801.8472     -6817.6801      0             -681.90959      10.768805      10.768805      10.768805      1248.8276    
     96000   1655.0595     -6814.6727     -6801.195      -6814.6727      0             -15821.15       10.945923      10.945923      10.945923      1311.4665    
     97000   1906.1522     -6816.0221     -6800.4995     -6816.0221      0              8033.428       10.951462      10.951462      10.951462      1313.4582    
     98000   1752.7843     -6812.8309     -6798.5573     -6812.8309      0              122.26109      11.010994      11.010994      11.010994      1334.9948    
     99000   1652.5354     -6815.1928     -6801.7356     -6815.1928      0             -699.73509      10.877805      10.877805      10.877805      1287.1342    
    100000   2009.2347     -6810.2354     -6793.8735     -6810.2354      0              947.49529      11.514725      11.514725      11.514725      1526.7245    
Loop time of 78.7817 on 8 procs for 100000 steps with 64 atoms

Performance: 109.670 ns/day, 0.219 hours/ns, 1269.330 timesteps/s
126.4% CPU use with 1 MPI tasks x 8 OpenMP threads

MPI task timing breakdown:
Section |  min time  |  avg time  |  max time  |%varavg| %total
---------------------------------------------------------------
Pair    | 77.534     | 77.534     | 77.534     |   0.0 | 98.42
Neigh   | 0.47223    | 0.47223    | 0.47223    |   0.0 |  0.60
Comm    | 0.28855    | 0.28855    | 0.28855    |   0.0 |  0.37
Output  | 0.044206   | 0.044206   | 0.044206   |   0.0 |  0.06
Modify  | 0.3804     | 0.3804     | 0.3804     |   0.0 |  0.48
Other   |            | 0.06238    |            |       |  0.08

Nlocal:             64 ave          64 max          64 min
Histogram: 1 0 0 0 0 0 0 0 0 0
Nghost:            823 ave         823 max         823 min
Histogram: 1 0 0 0 0 0 0 0 0 0
Neighs:              0 ave           0 max           0 min
Histogram: 1 0 0 0 0 0 0 0 0 0
FullNghs:         5692 ave        5692 max        5692 min
Histogram: 1 0 0 0 0 0 0 0 0 0

Total # of neighbors = 5692
Ave neighs/atom = 88.9375
Neighbor list builds = 2223
Dangerous builds = 0

write_data	data.final
System init for write_data ...
Generated 0 of 0 mixed pair_coeff terms from geometric mixing rule

write_restart   restart.lmp
System init for write_restart ...
Generated 0 of 0 mixed pair_coeff terms from geometric mixing rule
Total wall time: 0:01:20
Thu May 11 15:02:36 EDT 2023
