Removing intel version 2021.1.2
Removing oclfpga version 2021.1.2
Removing intel-dpl version 2021.1.2
Removing intel-debugger version 10.0.0
Removing intel-mkl version 2021.1.1
Removing intel-tbb version 2021.1.1
Removing intel-rt version 2021.1.2
An instance of this daemon is already running

     Program PWSCF v.7.1 starts on  8May2023 at 14:30:33 

     This program is part of the open-source Quantum ESPRESSO suite
     for quantum simulation of materials; please cite
         "P. Giannozzi et al., J. Phys.:Condens. Matter 21 395502 (2009);
         "P. Giannozzi et al., J. Phys.:Condens. Matter 29 465901 (2017);
         "P. Giannozzi et al., J. Chem. Phys. 152 154105 (2020);
          URL http://www.quantum-espresso.org", 
     in publications or presentations arising from this work. More details at
     http://www.quantum-espresso.org/quote

     Parallel version (MPI & OpenMP), running on       4 processor cores
     Number of MPI processes:                 4
     Threads/MPI process:                     1

     MPI processes distributed on     1 nodes
     621778 MiB available memory on the printing compute node when the environment starts
 
     Reading input from pw-si.in

     Current dimensions of program PWSCF are:
     Max number of different atomic species (ntypx) = 10
     Max number of k-points (npk) =  40000
     Max angular momentum in pseudopotentials (lmaxx) =  4

     IMPORTANT: XC functional enforced from input :
     Exchange-correlation= PBE
                           (   1   4   3   4   0   0   0)
     Any further DFT definition will be discarded
     Please, verify this is what you really want


     gamma-point specific algorithms are used
     Found identity + (  0.0000  0.2500  0.2500) symmetry
     This is a supercell, fractional translations are disabled
     Message from routine setup:
     using ibrav=0 with symmetry is DISCOURAGED, use correct ibrav instead
 
     K-points division:     npool     =       2
     R & G space division:  proc/nbgrp/npool/nimage =       2
     Subspace diagonalization in iterative solution of the eigenvalue problem:
     a serial algorithm will be used

     Message from routine divide_et_impera:
     suboptimal parallelization: some nodes have no k-points
 
     Parallelization info
     --------------------
     sticks:   dense  smooth     PW     G-vecs:    dense   smooth      PW
     Min        2008    2008    533                95867    95867   13000
     Max        2009    2009    536                95868    95868   13001
     Sum        4017    4017   1069               191735   191735   26001
 
     Using Slab Decomposition
 


     bravais-lattice index     =            0
     lattice parameter (alat)  =      20.5251  a.u.
     unit-cell volume          =    8646.7724 (a.u.)^3
     number of atoms/cell      =           64
     number of atomic types    =            1
     number of electrons       =       256.00
     number of Kohn-Sham states=          128
     kinetic-energy cutoff     =      30.0000  Ry
     charge density cutoff     =     120.0000  Ry
     scf convergence threshold =      1.0E-06
     mixing beta               =       0.5000
     number of iterations used =            8  plain     mixing
     energy convergence thresh.=      1.0E-04
     force convergence thresh. =      1.0E-03
     press convergence thresh. =      5.0E-01
     Exchange-correlation= PBE
                           (   1   4   3   4   0   0   0)
     nstep                     =           50


     GPU acceleration is ACTIVE.
     GPU-aware MPI enabled

     Message from routine print_cuda_info:
     High GPU oversubscription detected. Are you sure this is what you want?

     celldm(1)=  20.525071  celldm(2)=   0.000000  celldm(3)=   0.000000
     celldm(4)=   0.000000  celldm(5)=   0.000000  celldm(6)=   0.000000

     crystal axes: (cart. coord. in units of alat)
               a(1) = (   1.000000   0.000000   0.000000 )  
               a(2) = (   0.000000   1.000000   0.000000 )  
               a(3) = (   0.000000   0.000000   1.000000 )  

     reciprocal axes: (cart. coord. in units 2 pi/alat)
               b(1) = (  1.000000  0.000000  0.000000 )  
               b(2) = (  0.000000  1.000000  0.000000 )  
               b(3) = (  0.000000  0.000000  1.000000 )  


     PseudoPot. # 1 for Si read from file:
     /home/ppiaggi/pseudos/Si_ONCV_PBE_sr.upf
     MD5 check sum: 8553c464762ac42b85b1eed164b4d029
     Pseudo is Norm-conserving, Zval =  4.0
     Generated using ONCVPSP code by D. R. Hamann
     Using radial grid of 1510 points,  4 beta functions with: 
                l(1) =   0
                l(2) =   0
                l(3) =   1
                l(4) =   1

     atomic species   valence    mass     pseudopotential
        Si             4.00    28.08550     Si( 1.00)

     24 Sym. Ops. (no inversion) found



   Cartesian axes

     site n.     atom                  positions (alat units)
         1           Si  tau(   1) = (   0.0000000   0.0000000   0.0000000  )
         2           Si  tau(   2) = (   0.0000000   0.2500000   0.2500000  )
         3           Si  tau(   3) = (   0.2500000   0.0000000   0.2500000  )
         4           Si  tau(   4) = (   0.2500000   0.2500000   0.0000000  )
         5           Si  tau(   5) = (   0.1250000   0.1250000   0.1250000  )
         6           Si  tau(   6) = (   0.5000000   0.0000000   0.0000000  )
         7           Si  tau(   7) = (   0.5000000   0.2500000   0.2500000  )
         8           Si  tau(   8) = (   0.6250000   0.1250000   0.1250000  )
         9           Si  tau(   9) = (   0.7500000   0.0000000   0.2500000  )
        10           Si  tau(  10) = (   0.7500000   0.2500000   0.0000000  )
        11           Si  tau(  11) = (   0.0000000   0.5000000   0.0000000  )
        12           Si  tau(  12) = (   0.2500000   0.5000000   0.2500000  )
        13           Si  tau(  13) = (   0.1250000   0.6250000   0.1250000  )
        14           Si  tau(  14) = (   0.3750000   0.3750000   0.1250000  )
        15           Si  tau(  15) = (   0.5000000   0.5000000   0.0000000  )
        16           Si  tau(  16) = (   0.6250000   0.6250000   0.1250000  )
        17           Si  tau(  17) = (   0.8750000   0.3750000   0.1250000  )
        18           Si  tau(  18) = (   0.7500000   0.5000000   0.2500000  )
        19           Si  tau(  19) = (   0.0000000   0.7500000   0.2500000  )
        20           Si  tau(  20) = (   0.2500000   0.7500000   0.0000000  )
        21           Si  tau(  21) = (   0.3750000   0.8750000   0.1250000  )
        22           Si  tau(  22) = (   0.5000000   0.7500000   0.2500000  )
        23           Si  tau(  23) = (   0.7500000   0.7500000   0.0000000  )
        24           Si  tau(  24) = (   0.8750000   0.8750000   0.1250000  )
        25           Si  tau(  25) = (   0.0000000   0.0000000   0.5000000  )
        26           Si  tau(  26) = (   0.2500000   0.2500000   0.5000000  )
        27           Si  tau(  27) = (   0.1250000   0.1250000   0.6250000  )
        28           Si  tau(  28) = (   0.3750000   0.1250000   0.3750000  )
        29           Si  tau(  29) = (   0.5000000   0.0000000   0.5000000  )
        30           Si  tau(  30) = (   0.6250000   0.1250000   0.6250000  )
        31           Si  tau(  31) = (   0.8750000   0.1250000   0.3750000  )
        32           Si  tau(  32) = (   0.7500000   0.2500000   0.5000000  )
        33           Si  tau(  33) = (   0.1250000   0.3750000   0.3750000  )
        34           Si  tau(  34) = (   0.0000000   0.5000000   0.5000000  )
        35           Si  tau(  35) = (   0.1250000   0.6250000   0.6250000  )
        36           Si  tau(  36) = (   0.6250000   0.3750000   0.3750000  )
        37           Si  tau(  37) = (   0.3750000   0.6250000   0.3750000  )
        38           Si  tau(  38) = (   0.3750000   0.3750000   0.6250000  )
        39           Si  tau(  39) = (   0.5000000   0.5000000   0.5000000  )
        40           Si  tau(  40) = (   0.6250000   0.6250000   0.6250000  )
        41           Si  tau(  41) = (   0.8750000   0.6250000   0.3750000  )
        42           Si  tau(  42) = (   0.8750000   0.3750000   0.6250000  )
        43           Si  tau(  43) = (   0.1250000   0.8750000   0.3750000  )
        44           Si  tau(  44) = (   0.2500000   0.7500000   0.5000000  )
        45           Si  tau(  45) = (   0.6250000   0.8750000   0.3750000  )
        46           Si  tau(  46) = (   0.3750000   0.8750000   0.6250000  )
        47           Si  tau(  47) = (   0.7500000   0.7500000   0.5000000  )
        48           Si  tau(  48) = (   0.8750000   0.8750000   0.6250000  )
        49           Si  tau(  49) = (   0.0000000   0.2500000   0.7500000  )
        50           Si  tau(  50) = (   0.2500000   0.0000000   0.7500000  )
        51           Si  tau(  51) = (   0.3750000   0.1250000   0.8750000  )
        52           Si  tau(  52) = (   0.5000000   0.2500000   0.7500000  )
        53           Si  tau(  53) = (   0.7500000   0.0000000   0.7500000  )
        54           Si  tau(  54) = (   0.8750000   0.1250000   0.8750000  )
        55           Si  tau(  55) = (   0.1250000   0.3750000   0.8750000  )
        56           Si  tau(  56) = (   0.2500000   0.5000000   0.7500000  )
        57           Si  tau(  57) = (   0.6250000   0.3750000   0.8750000  )
        58           Si  tau(  58) = (   0.3750000   0.6250000   0.8750000  )
        59           Si  tau(  59) = (   0.7500000   0.5000000   0.7500000  )
        60           Si  tau(  60) = (   0.8750000   0.6250000   0.8750000  )
        61           Si  tau(  61) = (   0.0000000   0.7500000   0.7500000  )
        62           Si  tau(  62) = (   0.1250000   0.8750000   0.8750000  )
        63           Si  tau(  63) = (   0.5000000   0.7500000   0.7500000  )
        64           Si  tau(  64) = (   0.6250000   0.8750000   0.8750000  )

     number of k points=     1
                       cart. coord. in units 2pi/alat
        k(    1) = (   0.0000000   0.0000000   0.0000000), wk =   2.0000000

     Dense  grid:    95868 G-vectors     FFT dimensions: (  72,  72,  72)

     Estimated max dynamical RAM per process >     140.68 MB

     Estimated total dynamical RAM >     539.32 MB

     Initial potential from superposition of free atoms

     starting charge     255.9608, renormalised to     256.0000
     Starting wfcs are  256 randomized atomic wfcs

     total cpu time spent up to now is        5.6 secs

     Self-consistent Calculation

     iteration #  1     ecut=    30.00 Ry     beta= 0.50
     Davidson diagonalization with overlap
     ethr =  1.00E-02,  avg # of iterations =  2.0

     Threshold (ethr) on eigenvalues was too large:
     Diagonalizing with lowered threshold

     Davidson diagonalization with overlap
     ethr =  6.79E-04,  avg # of iterations =  2.0

     total cpu time spent up to now is        5.9 secs

     total energy              =    -503.95723197 Ry
     estimated scf accuracy    <       1.93805507 Ry

     iteration #  2     ecut=    30.00 Ry     beta= 0.50
     Davidson diagonalization with overlap
     ethr =  7.57E-04,  avg # of iterations =  1.0

     total cpu time spent up to now is        5.9 secs

     total energy              =    -503.92704567 Ry
     estimated scf accuracy    <       0.37624715 Ry

     iteration #  3     ecut=    30.00 Ry     beta= 0.50
     Davidson diagonalization with overlap
     ethr =  1.47E-04,  avg # of iterations =  2.0

     total cpu time spent up to now is        6.0 secs

     total energy              =    -503.95588582 Ry
     estimated scf accuracy    <       0.00625567 Ry

     iteration #  4     ecut=    30.00 Ry     beta= 0.50
     Davidson diagonalization with overlap
     ethr =  2.44E-06,  avg # of iterations =  3.0

     total cpu time spent up to now is        6.1 secs

     total energy              =    -503.95861643 Ry
     estimated scf accuracy    <       0.00073514 Ry

     iteration #  5     ecut=    30.00 Ry     beta= 0.50
     Davidson diagonalization with overlap
     ethr =  2.87E-07,  avg # of iterations =  3.0

     total cpu time spent up to now is        6.2 secs

     total energy              =    -503.95884162 Ry
     estimated scf accuracy    <       0.00001438 Ry

     iteration #  6     ecut=    30.00 Ry     beta= 0.50
     Davidson diagonalization with overlap
     ethr =  5.62E-09,  avg # of iterations =  9.0

     total cpu time spent up to now is        6.4 secs

     total energy              =    -503.95886674 Ry
     estimated scf accuracy    <       0.00000589 Ry

     iteration #  7     ecut=    30.00 Ry     beta= 0.50
     Davidson diagonalization with overlap
     ethr =  2.30E-09,  avg # of iterations =  2.0

     total cpu time spent up to now is        6.5 secs

     total energy              =    -503.95886890 Ry
     estimated scf accuracy    <       0.00000120 Ry

     iteration #  8     ecut=    30.00 Ry     beta= 0.50
     Davidson diagonalization with overlap
     ethr =  4.70E-10,  avg # of iterations =  2.0

     total cpu time spent up to now is        6.5 secs

     total energy              =    -503.95886876 Ry
     estimated scf accuracy    <       0.00000110 Ry

     iteration #  9     ecut=    30.00 Ry     beta= 0.50
     Davidson diagonalization with overlap
     ethr =  4.31E-10,  avg # of iterations =  1.0

     total cpu time spent up to now is        6.6 secs

     End of self-consistent calculation

          k = 0.0000 0.0000 0.0000 ( 11936 PWs)   bands (ev):

    -5.6952  -4.6127  -4.6127  -4.6127  -4.6127  -4.6127  -4.6126  -3.6501
    -3.6501  -3.6501  -3.6501  -3.6501  -3.6501  -3.6500  -3.6500  -3.6500
    -3.6500  -3.6500  -3.6500  -3.3615  -3.3615  -3.3615  -3.3615  -1.5482
    -1.5482  -1.5482  -1.5482  -1.5482  -1.5482  -1.3836  -1.3836  -1.3836
    -1.3836  -1.3836  -1.3836  -1.3836  -1.3836  -1.3835  -1.3835  -1.3835
    -1.3835  -0.7045  -0.7045  -0.7044  -0.7044   0.7891   0.7891   0.7891
     0.7891   0.7891   0.7892   0.7892   0.7892   0.7892   0.7892   0.7892
     0.7892   2.4129   2.4130   2.4130   2.4130   2.4130   2.4130   2.4130
     2.4130   2.4130   2.4130   2.4130   2.4130   2.5130   2.5130   2.5130
     2.5130   2.5131   2.5131   2.5131   2.5131   2.5131   2.5131   2.5131
     2.5131   2.7549   2.7549   2.7549   2.7549   2.7549   2.7549   3.4199
     3.4199   3.4199   3.4199   3.4199   3.4199   4.3830   4.3831   4.3831
     4.3831   4.3831   4.3831   4.3831   4.3831   4.3831   4.3831   4.3831
     4.3831   4.9480   4.9480   4.9480   4.9480   4.9480   4.9480   4.9480
     4.9480   4.9480   4.9480   4.9480   4.9480   5.0786   5.0786   5.0786
     5.0786   5.0786   5.0786   5.0786   5.0786   6.2791   6.2791   6.2791

     highest occupied level (ev):     6.2791

!    total energy              =    -503.95886871 Ry
     estimated scf accuracy    <       0.00000017 Ry

     The total energy is the sum of the following terms:
     one-electron contribution =     151.90400267 Ry
     hartree contribution      =      36.10979214 Ry
     xc contribution           =    -154.47575461 Ry
     ewald contribution        =    -537.49690892 Ry

     convergence has been achieved in   9 iterations

     Forces acting on atoms (cartesian axes, Ry/au):

     atom    1 type  1   force =     0.00000000    0.00000000    0.00000000
     atom    2 type  1   force =    -0.00000004   -0.00000200   -0.00000200
     atom    3 type  1   force =    -0.00000200   -0.00000004   -0.00000200
     atom    4 type  1   force =    -0.00000200   -0.00000200   -0.00000004
     atom    5 type  1   force =    -0.00000240   -0.00000240   -0.00000240
     atom    6 type  1   force =     0.00000000    0.00000000    0.00000000
     atom    7 type  1   force =    -0.00000010   -0.00000146   -0.00000146
     atom    8 type  1   force =     0.00000092   -0.00000218   -0.00000218
     atom    9 type  1   force =     0.00000200    0.00000004   -0.00000200
     atom   10 type  1   force =     0.00000200   -0.00000200    0.00000004
     atom   11 type  1   force =     0.00000000    0.00000000    0.00000000
     atom   12 type  1   force =    -0.00000146   -0.00000010   -0.00000146
     atom   13 type  1   force =    -0.00000218    0.00000092   -0.00000218
     atom   14 type  1   force =    -0.00000079   -0.00000079   -0.00000132
     atom   15 type  1   force =     0.00000000    0.00000000    0.00000000
     atom   16 type  1   force =     0.00000079    0.00000079   -0.00000132
     atom   17 type  1   force =     0.00000218   -0.00000092   -0.00000218
     atom   18 type  1   force =     0.00000146    0.00000010   -0.00000146
     atom   19 type  1   force =     0.00000004    0.00000200   -0.00000200
     atom   20 type  1   force =    -0.00000200    0.00000200    0.00000004
     atom   21 type  1   force =    -0.00000092    0.00000218   -0.00000218
     atom   22 type  1   force =     0.00000010    0.00000146   -0.00000146
     atom   23 type  1   force =     0.00000200    0.00000200   -0.00000004
     atom   24 type  1   force =     0.00000240    0.00000240   -0.00000240
     atom   25 type  1   force =     0.00000000    0.00000000    0.00000000
     atom   26 type  1   force =    -0.00000146   -0.00000146   -0.00000010
     atom   27 type  1   force =    -0.00000218   -0.00000218    0.00000092
     atom   28 type  1   force =    -0.00000079   -0.00000132   -0.00000079
     atom   29 type  1   force =     0.00000000    0.00000000    0.00000000
     atom   30 type  1   force =     0.00000079   -0.00000132    0.00000079
     atom   31 type  1   force =     0.00000218   -0.00000218   -0.00000092
     atom   32 type  1   force =     0.00000146   -0.00000146    0.00000010
     atom   33 type  1   force =    -0.00000132   -0.00000079   -0.00000079
     atom   34 type  1   force =     0.00000000    0.00000000    0.00000000
     atom   35 type  1   force =    -0.00000132    0.00000079    0.00000079
     atom   36 type  1   force =     0.00000109   -0.00000109   -0.00000109
     atom   37 type  1   force =    -0.00000109    0.00000109   -0.00000109
     atom   38 type  1   force =    -0.00000109   -0.00000109    0.00000109
     atom   39 type  1   force =     0.00000000    0.00000000    0.00000000
     atom   40 type  1   force =     0.00000109    0.00000109    0.00000109
     atom   41 type  1   force =     0.00000132    0.00000079   -0.00000079
     atom   42 type  1   force =     0.00000132   -0.00000079    0.00000079
     atom   43 type  1   force =    -0.00000218    0.00000218   -0.00000092
     atom   44 type  1   force =    -0.00000146    0.00000146    0.00000010
     atom   45 type  1   force =     0.00000079    0.00000132   -0.00000079
     atom   46 type  1   force =    -0.00000079    0.00000132    0.00000079
     atom   47 type  1   force =     0.00000146    0.00000146   -0.00000010
     atom   48 type  1   force =     0.00000218    0.00000218    0.00000092
     atom   49 type  1   force =     0.00000004   -0.00000200    0.00000200
     atom   50 type  1   force =    -0.00000200    0.00000004    0.00000200
     atom   51 type  1   force =    -0.00000092   -0.00000218    0.00000218
     atom   52 type  1   force =     0.00000010   -0.00000146    0.00000146
     atom   53 type  1   force =     0.00000200   -0.00000004    0.00000200
     atom   54 type  1   force =     0.00000240   -0.00000240    0.00000240
     atom   55 type  1   force =    -0.00000218   -0.00000092    0.00000218
     atom   56 type  1   force =    -0.00000146    0.00000010    0.00000146
     atom   57 type  1   force =     0.00000079   -0.00000079    0.00000132
     atom   58 type  1   force =    -0.00000079    0.00000079    0.00000132
     atom   59 type  1   force =     0.00000146   -0.00000010    0.00000146
     atom   60 type  1   force =     0.00000218    0.00000092    0.00000218
     atom   61 type  1   force =    -0.00000004    0.00000200    0.00000200
     atom   62 type  1   force =    -0.00000240    0.00000240    0.00000240
     atom   63 type  1   force =    -0.00000010    0.00000146    0.00000146
     atom   64 type  1   force =     0.00000092    0.00000218    0.00000218

     Total force =     0.000020     Total SCF correction =     0.000202
     SCF correction compared to forces is large: reduce conv_thr to get better values


     Computing stress (Cartesian axis) and pressure

          total   stress  (Ry/bohr**3)                   (kbar)     P=       31.36
   0.00021319   0.00000000   0.00000000           31.36        0.00        0.00
   0.00000000   0.00021319   0.00000000            0.00       31.36        0.00
   0.00000000   0.00000000   0.00021319            0.00        0.00       31.36


     BFGS Geometry Optimization
     Energy error            =      0.0E+00 Ry
     Gradient error          =      2.4E-06 Ry/Bohr
     Cell gradient error     =      3.1E+01 kbar

     number of scf cycles    =   1
     number of bfgs steps    =   0

     enthalpy           new  =    -503.9588687148 Ry

     new trust radius        =       0.0991182736 bohr
     new conv_thr            =       0.0000010000 Ry

     new unit-cell volume =   8785.76268 a.u.^3 (  1301.91571 Ang^3 )
     density =      2.29260 g/cm^3

CELL_PARAMETERS (angstrom)
  10.919287198   0.000000000   0.000000000
   0.000000000  10.919287198   0.000000000
   0.000000000   0.000000000  10.919287198

ATOMIC_POSITIONS (angstrom)
Si            0.0000000000        0.0000000000        0.0000000000
Si           -0.0000000189        2.7298207359        2.7298207359
Si            2.7298207359       -0.0000000189        2.7298207359
Si            2.7298207359        2.7298207359       -0.0000000189
Si            1.3649096253        1.3649096253        1.3649096253
Si            5.4596435990        0.0000000000        0.0000000000
Si            5.4596435465        2.7298210239        2.7298210239
Si            6.8245549873        1.3649097381        1.3649097381
Si            8.1894664622        0.0000000189        2.7298207359
Si            8.1894664622        2.7298207359        0.0000000189
Si            0.0000000000        5.4596435990        0.0000000000
Si            2.7298210239        5.4596435465        2.7298210239
Si            1.3649097381        6.8245549873        1.3649097381
Si            4.0947322800        4.0947322800        1.3649101990
Si            5.4596435990        5.4596435990        0.0000000000
Si            6.8245549181        6.8245549181        1.3649101990
Si            9.5543774599        4.0947322108        1.3649097381
Si            8.1894661742        5.4596436516        2.7298210239
Si            0.0000000189        8.1894664622        2.7298207359
Si            2.7298207359        8.1894664622        0.0000000189
Si            4.0947322108        9.5543774599        1.3649097381
Si            5.4596436516        8.1894661742        2.7298210239
Si            8.1894664622        8.1894664622       -0.0000000189
Si            9.5543775728        9.5543775728        1.3649096253
Si            0.0000000000        0.0000000000        5.4596435990
Si            2.7298210239        2.7298210239        5.4596435465
Si            1.3649097381        1.3649097381        6.8245549873
Si            4.0947322800        1.3649101990        4.0947322800
Si            5.4596435990        0.0000000000        5.4596435990
Si            6.8245549181        1.3649101990        6.8245549181
Si            9.5543774599        1.3649097381        4.0947322108
Si            8.1894661742        2.7298210239        5.4596436516
Si            1.3649101990        4.0947322800        4.0947322800
Si            0.0000000000        5.4596435990        5.4596435990
Si            1.3649101990        6.8245549181        6.8245549181
Si            6.8245550775        4.0947321206        4.0947321206
Si            4.0947321206        6.8245550775        4.0947321206
Si            4.0947321206        4.0947321206        6.8245550775
Si            5.4596435990        5.4596435990        5.4596435990
Si            6.8245550775        6.8245550775        6.8245550775
Si            9.5543769990        6.8245549181        4.0947322800
Si            9.5543769990        4.0947322800        6.8245549181
Si            1.3649097381        9.5543774599        4.0947322108
Si            2.7298210239        8.1894661742        5.4596436516
Si            6.8245549181        9.5543769990        4.0947322800
Si            4.0947322800        9.5543769990        6.8245549181
Si            8.1894661742        8.1894661742        5.4596435465
Si            9.5543774599        9.5543774599        6.8245549873
Si            0.0000000189        2.7298207359        8.1894664622
Si            2.7298207359        0.0000000189        8.1894664622
Si            4.0947322108        1.3649097381        9.5543774599
Si            5.4596436516        2.7298210239        8.1894661742
Si            8.1894664622       -0.0000000189        8.1894664622
Si            9.5543775728        1.3649096253        9.5543775728
Si            1.3649097381        4.0947322108        9.5543774599
Si            2.7298210239        5.4596436516        8.1894661742
Si            6.8245549181        4.0947322800        9.5543769990
Si            4.0947322800        6.8245549181        9.5543769990
Si            8.1894661742        5.4596435465        8.1894661742
Si            9.5543774599        6.8245549873        9.5543774599
Si           -0.0000000189        8.1894664622        8.1894664622
Si            1.3649096253        9.5543775728        9.5543775728
Si            5.4596435465        8.1894661742        8.1894661742
Si            6.8245549873        9.5543774599        9.5543774599



     Writing config-only to output data dir ./pwscf.save/
     NEW-OLD atomic charge density approx. for the potential
     extrapolated charge  260.04929, renormalised to  256.00000

     total cpu time spent up to now is        7.9 secs

     Self-consistent Calculation

     iteration #  1     ecut=    30.00 Ry     beta= 0.50
     Davidson diagonalization with overlap
     ethr =  1.00E-06,  avg # of iterations =  5.0

     total cpu time spent up to now is        8.0 secs

     total energy              =    -503.97586205 Ry
     estimated scf accuracy    <       0.00257117 Ry

     iteration #  2     ecut=    30.00 Ry     beta= 0.50
     Davidson diagonalization with overlap
     ethr =  1.00E-06,  avg # of iterations =  4.0

     total cpu time spent up to now is        8.1 secs

     total energy              =    -503.98112042 Ry
     estimated scf accuracy    <       0.00109285 Ry

     iteration #  3     ecut=    30.00 Ry     beta= 0.50
     Davidson diagonalization with overlap
     ethr =  4.27E-07,  avg # of iterations =  1.0

     total cpu time spent up to now is        8.2 secs

     total energy              =    -503.98095365 Ry
     estimated scf accuracy    <       0.00047860 Ry

     iteration #  4     ecut=    30.00 Ry     beta= 0.50
     Davidson diagonalization with overlap
     ethr =  1.87E-07,  avg # of iterations =  2.0

     total cpu time spent up to now is        8.3 secs

     total energy              =    -503.98100403 Ry
     estimated scf accuracy    <       0.00003407 Ry

     iteration #  5     ecut=    30.00 Ry     beta= 0.50
     Davidson diagonalization with overlap
     ethr =  1.33E-08,  avg # of iterations =  2.0

     total cpu time spent up to now is        8.4 secs

     total energy              =    -503.98100178 Ry
     estimated scf accuracy    <       0.00001205 Ry

     iteration #  6     ecut=    30.00 Ry     beta= 0.50
     Davidson diagonalization with overlap
     ethr =  4.71E-09,  avg # of iterations =  1.0

     total cpu time spent up to now is        8.4 secs

     total energy              =    -503.98100078 Ry
     estimated scf accuracy    <       0.00000301 Ry

     iteration #  7     ecut=    30.00 Ry     beta= 0.50
     Davidson diagonalization with overlap
     ethr =  1.18E-09,  avg # of iterations =  2.0

     total cpu time spent up to now is        8.5 secs

     End of self-consistent calculation

          k = 0.0000 0.0000 0.0000 ( 11936 PWs)   bands (ev):

    -5.7518  -4.6841  -4.6841  -4.6841  -4.6841  -4.6841  -4.6841  -3.7369
    -3.7369  -3.7369  -3.7369  -3.7369  -3.7369  -3.7369  -3.7369  -3.7369
    -3.7369  -3.7369  -3.7369  -3.4583  -3.4583  -3.4583  -3.4583  -1.6626
    -1.6626  -1.6626  -1.6626  -1.6626  -1.6626  -1.5051  -1.5051  -1.5051
    -1.5051  -1.5051  -1.5051  -1.5051  -1.5051  -1.5051  -1.5051  -1.5051
    -1.5051  -0.7959  -0.7959  -0.7959  -0.7959   0.6523   0.6523   0.6523
     0.6523   0.6523   0.6523   0.6523   0.6523   0.6523   0.6523   0.6523
     0.6523   2.3145   2.3145   2.3145   2.3145   2.3145   2.3145   2.3145
     2.3145   2.3145   2.3145   2.3145   2.3145   2.4085   2.4085   2.4085
     2.4085   2.4085   2.4085   2.4085   2.4085   2.4085   2.4085   2.4085
     2.4085   2.5861   2.5861   2.5861   2.5861   2.5861   2.5861   3.2958
     3.2958   3.2958   3.2958   3.2958   3.2958   4.2469   4.2469   4.2469
     4.2469   4.2469   4.2469   4.2469   4.2469   4.2469   4.2469   4.2469
     4.2469   4.8001   4.8001   4.8001   4.8001   4.8001   4.8001   4.8001
     4.8001   4.8001   4.8001   4.8001   4.8001   4.9267   4.9267   4.9267
     4.9267   4.9267   4.9267   4.9267   4.9267   6.1134   6.1134   6.1134

     highest occupied level (ev):     6.1134

!    total energy              =    -503.98100119 Ry
     estimated scf accuracy    <       0.00000002 Ry

     The total energy is the sum of the following terms:
     one-electron contribution =     148.06162902 Ry
     hartree contribution      =      36.54445092 Ry
     xc contribution           =    -153.93964302 Ry
     ewald contribution        =    -534.64743811 Ry

     convergence has been achieved in   7 iterations

     Forces acting on atoms (cartesian axes, Ry/au):

     atom    1 type  1   force =     0.00000000    0.00000000    0.00000000
     atom    2 type  1   force =     0.00000015    0.00000082    0.00000082
     atom    3 type  1   force =     0.00000082    0.00000015    0.00000082
     atom    4 type  1   force =     0.00000082    0.00000082    0.00000015
     atom    5 type  1   force =     0.00000064    0.00000064    0.00000064
     atom    6 type  1   force =     0.00000000    0.00000000    0.00000000
     atom    7 type  1   force =     0.00000006    0.00000064    0.00000064
     atom    8 type  1   force =    -0.00000063    0.00000059    0.00000059
     atom    9 type  1   force =    -0.00000082   -0.00000015    0.00000082
     atom   10 type  1   force =    -0.00000082    0.00000082   -0.00000015
     atom   11 type  1   force =     0.00000000    0.00000000    0.00000000
     atom   12 type  1   force =     0.00000064    0.00000006    0.00000064
     atom   13 type  1   force =     0.00000059   -0.00000063    0.00000059
     atom   14 type  1   force =     0.00000051    0.00000051    0.00000033
     atom   15 type  1   force =     0.00000000    0.00000000    0.00000000
     atom   16 type  1   force =    -0.00000051   -0.00000051    0.00000033
     atom   17 type  1   force =    -0.00000059    0.00000063    0.00000059
     atom   18 type  1   force =    -0.00000064   -0.00000006    0.00000064
     atom   19 type  1   force =    -0.00000015   -0.00000082    0.00000082
     atom   20 type  1   force =     0.00000082   -0.00000082   -0.00000015
     atom   21 type  1   force =     0.00000063   -0.00000059    0.00000059
     atom   22 type  1   force =    -0.00000006   -0.00000064    0.00000064
     atom   23 type  1   force =    -0.00000082   -0.00000082    0.00000015
     atom   24 type  1   force =    -0.00000064   -0.00000064    0.00000064
     atom   25 type  1   force =     0.00000000    0.00000000    0.00000000
     atom   26 type  1   force =     0.00000064    0.00000064    0.00000006
     atom   27 type  1   force =     0.00000059    0.00000059   -0.00000063
     atom   28 type  1   force =     0.00000051    0.00000033    0.00000051
     atom   29 type  1   force =     0.00000000    0.00000000    0.00000000
     atom   30 type  1   force =    -0.00000051    0.00000033   -0.00000051
     atom   31 type  1   force =    -0.00000059    0.00000059    0.00000063
     atom   32 type  1   force =    -0.00000064    0.00000064   -0.00000006
     atom   33 type  1   force =     0.00000033    0.00000051    0.00000051
     atom   34 type  1   force =     0.00000000    0.00000000    0.00000000
     atom   35 type  1   force =     0.00000033   -0.00000051   -0.00000051
     atom   36 type  1   force =    -0.00000069    0.00000069    0.00000069
     atom   37 type  1   force =     0.00000069   -0.00000069    0.00000069
     atom   38 type  1   force =     0.00000069    0.00000069   -0.00000069
     atom   39 type  1   force =     0.00000000    0.00000000    0.00000000
     atom   40 type  1   force =    -0.00000069   -0.00000069   -0.00000069
     atom   41 type  1   force =    -0.00000033   -0.00000051    0.00000051
     atom   42 type  1   force =    -0.00000033    0.00000051   -0.00000051
     atom   43 type  1   force =     0.00000059   -0.00000059    0.00000063
     atom   44 type  1   force =     0.00000064   -0.00000064   -0.00000006
     atom   45 type  1   force =    -0.00000051   -0.00000033    0.00000051
     atom   46 type  1   force =     0.00000051   -0.00000033   -0.00000051
     atom   47 type  1   force =    -0.00000064   -0.00000064    0.00000006
     atom   48 type  1   force =    -0.00000059   -0.00000059   -0.00000063
     atom   49 type  1   force =    -0.00000015    0.00000082   -0.00000082
     atom   50 type  1   force =     0.00000082   -0.00000015   -0.00000082
     atom   51 type  1   force =     0.00000063    0.00000059   -0.00000059
     atom   52 type  1   force =    -0.00000006    0.00000064   -0.00000064
     atom   53 type  1   force =    -0.00000082    0.00000015   -0.00000082
     atom   54 type  1   force =    -0.00000064    0.00000064   -0.00000064
     atom   55 type  1   force =     0.00000059    0.00000063   -0.00000059
     atom   56 type  1   force =     0.00000064   -0.00000006   -0.00000064
     atom   57 type  1   force =    -0.00000051    0.00000051   -0.00000033
     atom   58 type  1   force =     0.00000051   -0.00000051   -0.00000033
     atom   59 type  1   force =    -0.00000064    0.00000006   -0.00000064
     atom   60 type  1   force =    -0.00000059   -0.00000063   -0.00000059
     atom   61 type  1   force =     0.00000015   -0.00000082   -0.00000082
     atom   62 type  1   force =     0.00000064   -0.00000064   -0.00000064
     atom   63 type  1   force =     0.00000006   -0.00000064   -0.00000064
     atom   64 type  1   force =    -0.00000063   -0.00000059   -0.00000059

     Total force =     0.000008     Total SCF correction =     0.000242
     SCF correction compared to forces is large: reduce conv_thr to get better values


     Computing stress (Cartesian axis) and pressure

          total   stress  (Ry/bohr**3)                   (kbar)     P=       15.72
   0.00010683   0.00000000   0.00000000           15.72        0.00        0.00
   0.00000000   0.00010683   0.00000000            0.00       15.72        0.00
   0.00000000   0.00000000   0.00010683            0.00        0.00       15.72

     Energy error            =      2.2E-02 Ry
     Gradient error          =      8.2E-07 Ry/Bohr
     Cell gradient error     =      1.6E+01 kbar

     number of scf cycles    =   2
     number of bfgs steps    =   1

     enthalpy           old  =    -503.9588687148 Ry
     enthalpy           new  =    -503.9810011915 Ry

     CASE: enthalpy          _new < enthalpy          _old

     new trust radius        =       0.1019961484 bohr
     new conv_thr            =       0.0000000100 Ry

     new unit-cell volume =   8929.94949 a.u.^3 (  1323.28199 Ang^3 )
     density =      2.25558 g/cm^3

CELL_PARAMETERS (angstrom)
  10.978697031   0.000000000   0.000000000
   0.000000000  10.978697031   0.000000000
   0.000000000   0.000000000  10.978697031

ATOMIC_POSITIONS (angstrom)
Si            0.0000000000        0.0000000000        0.0000000000
Si            0.0000001482        2.7446740841        2.7446740841
Si            2.7446740841        0.0000001482        2.7446740841
Si            2.7446740841        2.7446740841        0.0000001482
Si            1.3723365409        1.3723365409        1.3723365409
Si            5.4893485155        0.0000000000        0.0000000000
Si            5.4893485314        2.7446741718        2.7446741718
Si            6.8616854438        1.3723366037        1.3723366037
Si            8.2340229470       -0.0000001482        2.7446740841
Si            8.2340229470        2.7446740841       -0.0000001482
Si            0.0000000000        5.4893485155        0.0000000000
Si            2.7446741718        5.4893485314        2.7446741718
Si            1.3723366037        6.8616854438        1.3723366037
Si            4.1170115261        4.1170115261        1.3723367872
Si            5.4893485155        5.4893485155        0.0000000000
Si            6.8616855050        6.8616855050        1.3723367872
Si            9.6063604273        4.1170115873        1.3723366037
Si            8.2340228593        5.4893484997        2.7446741718
Si           -0.0000001482        8.2340229470        2.7446740841
Si            2.7446740841        8.2340229470       -0.0000001482
Si            4.1170115873        9.6063604273        1.3723366037
Si            5.4893484997        8.2340228593        2.7446741718
Si            8.2340229470        8.2340229470        0.0000001482
Si            9.6063604901        9.6063604901        1.3723365409
Si            0.0000000000        0.0000000000        5.4893485155
Si            2.7446741718        2.7446741718        5.4893485314
Si            1.3723366037        1.3723366037        6.8616854438
Si            4.1170115261        1.3723367872        4.1170115261
Si            5.4893485155        0.0000000000        5.4893485155
Si            6.8616855050        1.3723367872        6.8616855050
Si            9.6063604273        1.3723366037        4.1170115873
Si            8.2340228593        2.7446741718        5.4893484997
Si            1.3723367872        4.1170115261        4.1170115261
Si            0.0000000000        5.4893485155        5.4893485155
Si            1.3723367872        6.8616855050        6.8616855050
Si            6.8616854780        4.1170115530        4.1170115530
Si            4.1170115530        6.8616854780        4.1170115530
Si            4.1170115530        4.1170115530        6.8616854780
Si            5.4893485155        5.4893485155        5.4893485155
Si            6.8616854780        6.8616854780        6.8616854780
Si            9.6063602439        6.8616855050        4.1170115261
Si            9.6063602439        4.1170115261        6.8616855050
Si            1.3723366037        9.6063604273        4.1170115873
Si            2.7446741718        8.2340228593        5.4893484997
Si            6.8616855050        9.6063602439        4.1170115261
Si            4.1170115261        9.6063602439        6.8616855050
Si            8.2340228593        8.2340228593        5.4893485314
Si            9.6063604273        9.6063604273        6.8616854438
Si           -0.0000001482        2.7446740841        8.2340229470
Si            2.7446740841       -0.0000001482        8.2340229470
Si            4.1170115873        1.3723366037        9.6063604273
Si            5.4893484997        2.7446741718        8.2340228593
Si            8.2340229470        0.0000001482        8.2340229470
Si            9.6063604901        1.3723365409        9.6063604901
Si            1.3723366037        4.1170115873        9.6063604273
Si            2.7446741718        5.4893484997        8.2340228593
Si            6.8616855050        4.1170115261        9.6063602439
Si            4.1170115261        6.8616855050        9.6063602439
Si            8.2340228593        5.4893485314        8.2340228593
Si            9.6063604273        6.8616854438        9.6063604273
Si            0.0000001482        8.2340229470        8.2340229470
Si            1.3723365409        9.6063604901        9.6063604901
Si            5.4893485314        8.2340228593        8.2340228593
Si            6.8616854438        9.6063604273        9.6063604273



     Writing config-only to output data dir ./pwscf.save/
     NEW-OLD atomic charge density approx. for the potential
     extrapolated charge  260.13285, renormalised to  256.00000

     total cpu time spent up to now is        9.8 secs

     Self-consistent Calculation

     iteration #  1     ecut=    30.00 Ry     beta= 0.50
     Davidson diagonalization with overlap
     ethr =  1.00E-06,  avg # of iterations =  6.0

     total cpu time spent up to now is        9.9 secs

     total energy              =    -503.98358415 Ry
     estimated scf accuracy    <       0.00272546 Ry

     iteration #  2     ecut=    30.00 Ry     beta= 0.50
     Davidson diagonalization with overlap
     ethr =  1.06E-06,  avg # of iterations =  4.0

     total cpu time spent up to now is       10.0 secs

     total energy              =    -503.98912807 Ry
     estimated scf accuracy    <       0.00114401 Ry

     iteration #  3     ecut=    30.00 Ry     beta= 0.50
     Davidson diagonalization with overlap
     ethr =  4.47E-07,  avg # of iterations =  1.0

     total cpu time spent up to now is       10.1 secs

     total energy              =    -503.98895408 Ry
     estimated scf accuracy    <       0.00049948 Ry

     iteration #  4     ecut=    30.00 Ry     beta= 0.50
     Davidson diagonalization with overlap
     ethr =  1.95E-07,  avg # of iterations =  2.0

     total cpu time spent up to now is       10.2 secs

     total energy              =    -503.98900607 Ry
     estimated scf accuracy    <       0.00003238 Ry

     iteration #  5     ecut=    30.00 Ry     beta= 0.50
     Davidson diagonalization with overlap
     ethr =  1.26E-08,  avg # of iterations =  2.0

     total cpu time spent up to now is       10.3 secs

     total energy              =    -503.98900545 Ry
     estimated scf accuracy    <       0.00001162 Ry

     iteration #  6     ecut=    30.00 Ry     beta= 0.50
     Davidson diagonalization with overlap
     ethr =  4.54E-09,  avg # of iterations =  1.0

     total cpu time spent up to now is       10.3 secs

     total energy              =    -503.98900374 Ry
     estimated scf accuracy    <       0.00000649 Ry

     iteration #  7     ecut=    30.00 Ry     beta= 0.50
     Davidson diagonalization with overlap
     ethr =  2.54E-09,  avg # of iterations =  2.0

     total cpu time spent up to now is       10.4 secs

     total energy              =    -503.98900311 Ry
     estimated scf accuracy    <       0.00000259 Ry

     iteration #  8     ecut=    30.00 Ry     beta= 0.50
     Davidson diagonalization with overlap
     ethr =  1.01E-09,  avg # of iterations =  2.0

     total cpu time spent up to now is       10.5 secs

     total energy              =    -503.98900336 Ry
     estimated scf accuracy    <       0.00000030 Ry

     iteration #  9     ecut=    30.00 Ry     beta= 0.50
     Davidson diagonalization with overlap
     ethr =  1.15E-10,  avg # of iterations =  2.0

     total cpu time spent up to now is       10.6 secs

     total energy              =    -503.98900340 Ry
     estimated scf accuracy    <       0.00000011 Ry

     iteration # 10     ecut=    30.00 Ry     beta= 0.50
     Davidson diagonalization with overlap
     ethr =  4.21E-11,  avg # of iterations =  2.0

     total cpu time spent up to now is       10.7 secs

     total energy              =    -503.98900338 Ry
     estimated scf accuracy    <       0.00000007 Ry

     iteration # 11     ecut=    30.00 Ry     beta= 0.50
     Davidson diagonalization with overlap
     ethr =  2.78E-11,  avg # of iterations =  2.0

     total cpu time spent up to now is       10.8 secs

     End of self-consistent calculation

          k = 0.0000 0.0000 0.0000 ( 11936 PWs)   bands (ev):

    -5.8088  -4.7561  -4.7561  -4.7561  -4.7561  -4.7561  -4.7561  -3.8245
    -3.8245  -3.8245  -3.8245  -3.8245  -3.8245  -3.8245  -3.8245  -3.8245
    -3.8245  -3.8245  -3.8245  -3.5556  -3.5556  -3.5556  -3.5556  -1.7781
    -1.7781  -1.7781  -1.7781  -1.7781  -1.7781  -1.6275  -1.6275  -1.6275
    -1.6275  -1.6275  -1.6275  -1.6275  -1.6275  -1.6275  -1.6275  -1.6275
    -1.6275  -0.8885  -0.8885  -0.8885  -0.8885   0.5139   0.5139   0.5139
     0.5139   0.5139   0.5139   0.5139   0.5139   0.5139   0.5139   0.5139
     0.5139   2.2152   2.2152   2.2152   2.2152   2.2152   2.2152   2.2152
     2.2152   2.2152   2.2152   2.2152   2.2152   2.3033   2.3033   2.3033
     2.3033   2.3033   2.3033   2.3033   2.3033   2.3033   2.3033   2.3033
     2.3033   2.4156   2.4156   2.4156   2.4156   2.4156   2.4156   3.1710
     3.1710   3.1710   3.1710   3.1710   3.1710   4.1099   4.1099   4.1099
     4.1099   4.1099   4.1099   4.1099   4.1099   4.1099   4.1099   4.1099
     4.1099   4.6513   4.6513   4.6513   4.6513   4.6513   4.6513   4.6513
     4.6513   4.6513   4.6513   4.6513   4.6513   4.7740   4.7740   4.7740
     4.7740   4.7740   4.7740   4.7740   4.7740   5.9465   5.9465   5.9465

     highest occupied level (ev):     5.9465

!    total energy              =    -503.98900338 Ry
     estimated scf accuracy    <          4.8E-09 Ry

     The total energy is the sum of the following terms:
     one-electron contribution =     144.17006338 Ry
     hartree contribution      =      36.99337993 Ry
     xc contribution           =    -153.39818571 Ry
     ewald contribution        =    -531.75426099 Ry

     convergence has been achieved in  11 iterations

     Forces acting on atoms (cartesian axes, Ry/au):

     atom    1 type  1   force =     0.00000000    0.00000000    0.00000000
     atom    2 type  1   force =    -0.00000000   -0.00000087   -0.00000087
     atom    3 type  1   force =    -0.00000087   -0.00000000   -0.00000087
     atom    4 type  1   force =    -0.00000087   -0.00000087   -0.00000000
     atom    5 type  1   force =    -0.00000039   -0.00000039   -0.00000039
     atom    6 type  1   force =     0.00000000    0.00000000    0.00000000
     atom    7 type  1   force =    -0.00000004   -0.00000085   -0.00000085
     atom    8 type  1   force =     0.00000074   -0.00000043   -0.00000043
     atom    9 type  1   force =     0.00000087    0.00000000   -0.00000087
     atom   10 type  1   force =     0.00000087   -0.00000087    0.00000000
     atom   11 type  1   force =     0.00000000    0.00000000    0.00000000
     atom   12 type  1   force =    -0.00000085   -0.00000004   -0.00000085
     atom   13 type  1   force =    -0.00000043    0.00000074   -0.00000043
     atom   14 type  1   force =    -0.00000067   -0.00000067   -0.00000039
     atom   15 type  1   force =     0.00000000    0.00000000    0.00000000
     atom   16 type  1   force =     0.00000067    0.00000067   -0.00000039
     atom   17 type  1   force =     0.00000043   -0.00000074   -0.00000043
     atom   18 type  1   force =     0.00000085    0.00000004   -0.00000085
     atom   19 type  1   force =     0.00000000    0.00000087   -0.00000087
     atom   20 type  1   force =    -0.00000087    0.00000087    0.00000000
     atom   21 type  1   force =    -0.00000074    0.00000043   -0.00000043
     atom   22 type  1   force =     0.00000004    0.00000085   -0.00000085
     atom   23 type  1   force =     0.00000087    0.00000087   -0.00000000
     atom   24 type  1   force =     0.00000039    0.00000039   -0.00000039
     atom   25 type  1   force =     0.00000000    0.00000000    0.00000000
     atom   26 type  1   force =    -0.00000085   -0.00000085   -0.00000004
     atom   27 type  1   force =    -0.00000043   -0.00000043    0.00000074
     atom   28 type  1   force =    -0.00000067   -0.00000039   -0.00000067
     atom   29 type  1   force =     0.00000000    0.00000000    0.00000000
     atom   30 type  1   force =     0.00000067   -0.00000039    0.00000067
     atom   31 type  1   force =     0.00000043   -0.00000043   -0.00000074
     atom   32 type  1   force =     0.00000085   -0.00000085    0.00000004
     atom   33 type  1   force =    -0.00000039   -0.00000067   -0.00000067
     atom   34 type  1   force =     0.00000000    0.00000000    0.00000000
     atom   35 type  1   force =    -0.00000039    0.00000067    0.00000067
     atom   36 type  1   force =     0.00000054   -0.00000054   -0.00000054
     atom   37 type  1   force =    -0.00000054    0.00000054   -0.00000054
     atom   38 type  1   force =    -0.00000054   -0.00000054    0.00000054
     atom   39 type  1   force =     0.00000000    0.00000000    0.00000000
     atom   40 type  1   force =     0.00000054    0.00000054    0.00000054
     atom   41 type  1   force =     0.00000039    0.00000067   -0.00000067
     atom   42 type  1   force =     0.00000039   -0.00000067    0.00000067
     atom   43 type  1   force =    -0.00000043    0.00000043   -0.00000074
     atom   44 type  1   force =    -0.00000085    0.00000085    0.00000004
     atom   45 type  1   force =     0.00000067    0.00000039   -0.00000067
     atom   46 type  1   force =    -0.00000067    0.00000039    0.00000067
     atom   47 type  1   force =     0.00000085    0.00000085   -0.00000004
     atom   48 type  1   force =     0.00000043    0.00000043    0.00000074
     atom   49 type  1   force =     0.00000000   -0.00000087    0.00000087
     atom   50 type  1   force =    -0.00000087    0.00000000    0.00000087
     atom   51 type  1   force =    -0.00000074   -0.00000043    0.00000043
     atom   52 type  1   force =     0.00000004   -0.00000085    0.00000085
     atom   53 type  1   force =     0.00000087   -0.00000000    0.00000087
     atom   54 type  1   force =     0.00000039   -0.00000039    0.00000039
     atom   55 type  1   force =    -0.00000043   -0.00000074    0.00000043
     atom   56 type  1   force =    -0.00000085    0.00000004    0.00000085
     atom   57 type  1   force =     0.00000067   -0.00000067    0.00000039
     atom   58 type  1   force =    -0.00000067    0.00000067    0.00000039
     atom   59 type  1   force =     0.00000085   -0.00000004    0.00000085
     atom   60 type  1   force =     0.00000043    0.00000074    0.00000043
     atom   61 type  1   force =    -0.00000000    0.00000087    0.00000087
     atom   62 type  1   force =    -0.00000039    0.00000039    0.00000039
     atom   63 type  1   force =    -0.00000004    0.00000085    0.00000085
     atom   64 type  1   force =     0.00000074    0.00000043    0.00000043

     Total force =     0.000008     Total SCF correction =     0.000111
     SCF correction compared to forces is large: reduce conv_thr to get better values


     Computing stress (Cartesian axis) and pressure

          total   stress  (Ry/bohr**3)                   (kbar)     P=        0.81
   0.00000554   0.00000000   0.00000000            0.81        0.00        0.00
   0.00000000   0.00000554   0.00000000            0.00        0.81        0.00
   0.00000000   0.00000000   0.00000554            0.00        0.00        0.81

     Energy error            =      8.0E-03 Ry
     Gradient error          =      8.7E-07 Ry/Bohr
     Cell gradient error     =      8.1E-01 kbar

     number of scf cycles    =   3
     number of bfgs steps    =   2

     enthalpy           old  =    -503.9810011915 Ry
     enthalpy           new  =    -503.9890033846 Ry

     CASE: enthalpy          _new < enthalpy          _old

     new trust radius        =       0.0056567078 bohr
     new conv_thr            =       0.0000000100 Ry

     new unit-cell volume =   8937.97014 a.u.^3 (  1324.47053 Ang^3 )
     density =      2.25356 g/cm^3

CELL_PARAMETERS (angstrom)
  10.981982974   0.000000000   0.000000000
   0.000000000  10.981982974   0.000000000
   0.000000000   0.000000000  10.981982974

ATOMIC_POSITIONS (angstrom)
Si            0.0000000000        0.0000000000        0.0000000000
Si            0.0000001519        2.7454950961        2.7454950961
Si            2.7454950961        0.0000001519        2.7454950961
Si            2.7454950961        2.7454950961        0.0000001519
Si            1.3727470781        1.3727470781        1.3727470781
Si            5.4909914871        0.0000000000        0.0000000000
Si            5.4909914805        2.7454951919        2.7454951919
Si            6.8637395584        1.3727471167        1.3727471167
Si            8.2364878781       -0.0000001519        2.7454950961
Si            8.2364878781        2.7454950961       -0.0000001519
Si            0.0000000000        5.4909914871        0.0000000000
Si            2.7454951919        5.4909914805        2.7454951919
Si            1.3727471167        6.8637395584        1.3727471167
Si            4.1182433856        4.1182433856        1.3727473193
Si            5.4909914871        5.4909914871        0.0000000000
Si            6.8637395886        6.8637395886        1.3727473193
Si            9.6092358575        4.1182434159        1.3727471167
Si            8.2364877824        5.4909914938        2.7454951919
Si           -0.0000001519        8.2364878781        2.7454950961
Si            2.7454950961        8.2364878781       -0.0000001519
Si            4.1182434159        9.6092358575        1.3727471167
Si            5.4909914938        8.2364877824        2.7454951919
Si            8.2364878781        8.2364878781        0.0000001519
Si            9.6092358962        9.6092358962        1.3727470781
Si            0.0000000000        0.0000000000        5.4909914871
Si            2.7454951919        2.7454951919        5.4909914805
Si            1.3727471167        1.3727471167        6.8637395584
Si            4.1182433856        1.3727473193        4.1182433856
Si            5.4909914871        0.0000000000        5.4909914871
Si            6.8637395886        1.3727473193        6.8637395886
Si            9.6092358575        1.3727471167        4.1182434159
Si            8.2364877824        2.7454951919        5.4909914938
Si            1.3727473193        4.1182433856        4.1182433856
Si            0.0000000000        5.4909914871        5.4909914871
Si            1.3727473193        6.8637395886        6.8637395886
Si            6.8637394821        4.1182434922        4.1182434922
Si            4.1182434922        6.8637394821        4.1182434922
Si            4.1182434922        4.1182434922        6.8637394821
Si            5.4909914871        5.4909914871        5.4909914871
Si            6.8637394821        6.8637394821        6.8637394821
Si            9.6092356550        6.8637395886        4.1182433856
Si            9.6092356550        4.1182433856        6.8637395886
Si            1.3727471167        9.6092358575        4.1182434159
Si            2.7454951919        8.2364877824        5.4909914938
Si            6.8637395886        9.6092356550        4.1182433856
Si            4.1182433856        9.6092356550        6.8637395886
Si            8.2364877824        8.2364877824        5.4909914805
Si            9.6092358575        9.6092358575        6.8637395584
Si           -0.0000001519        2.7454950961        8.2364878781
Si            2.7454950961       -0.0000001519        8.2364878781
Si            4.1182434159        1.3727471167        9.6092358575
Si            5.4909914938        2.7454951919        8.2364877824
Si            8.2364878781        0.0000001519        8.2364878781
Si            9.6092358962        1.3727470781        9.6092358962
Si            1.3727471167        4.1182434159        9.6092358575
Si            2.7454951919        5.4909914938        8.2364877824
Si            6.8637395886        4.1182433856        9.6092356550
Si            4.1182433856        6.8637395886        9.6092356550
Si            8.2364877824        5.4909914805        8.2364877824
Si            9.6092358575        6.8637395584        9.6092358575
Si            0.0000001519        8.2364878781        8.2364878781
Si            1.3727470781        9.6092358962        9.6092358962
Si            5.4909914805        8.2364877824        8.2364877824
Si            6.8637395584        9.6092358575        9.6092358575



     Writing config-only to output data dir ./pwscf.save/
     NEW-OLD atomic charge density approx. for the potential
     extrapolated charge  256.22969, renormalised to  256.00000

     total cpu time spent up to now is       12.0 secs

     Self-consistent Calculation

     iteration #  1     ecut=    30.00 Ry     beta= 0.50
     Davidson diagonalization with overlap
     ethr =  1.00E-06,  avg # of iterations =  1.0

     Threshold (ethr) on eigenvalues was too large:
     Diagonalizing with lowered threshold

     Davidson diagonalization with overlap
     ethr =  3.60E-09,  avg # of iterations =  4.0

     total cpu time spent up to now is       12.2 secs

     total energy              =    -503.98900921 Ry
     estimated scf accuracy    <       0.00000895 Ry

     iteration #  2     ecut=    30.00 Ry     beta= 0.50
     Davidson diagonalization with overlap
     ethr =  3.50E-09,  avg # of iterations =  4.0

     total cpu time spent up to now is       12.3 secs

     total energy              =    -503.98902638 Ry
     estimated scf accuracy    <       0.00000355 Ry

     iteration #  3     ecut=    30.00 Ry     beta= 0.50
     Davidson diagonalization with overlap
     ethr =  1.39E-09,  avg # of iterations =  1.0

     total cpu time spent up to now is       12.4 secs

     total energy              =    -503.98902608 Ry
     estimated scf accuracy    <       0.00000147 Ry

     iteration #  4     ecut=    30.00 Ry     beta= 0.50
     Davidson diagonalization with overlap
     ethr =  5.74E-10,  avg # of iterations =  1.0

     total cpu time spent up to now is       12.4 secs

     total energy              =    -503.98902602 Ry
     estimated scf accuracy    <       0.00000029 Ry

     iteration #  5     ecut=    30.00 Ry     beta= 0.50
     Davidson diagonalization with overlap
     ethr =  1.12E-10,  avg # of iterations =  2.0

     total cpu time spent up to now is       12.5 secs

     total energy              =    -503.98902606 Ry
     estimated scf accuracy    <       0.00000003 Ry

     iteration #  6     ecut=    30.00 Ry     beta= 0.50
     Davidson diagonalization with overlap
     ethr =  1.36E-11,  avg # of iterations =  2.0

     total cpu time spent up to now is       12.6 secs

     End of self-consistent calculation

          k = 0.0000 0.0000 0.0000 ( 11936 PWs)   bands (ev):

    -5.8119  -4.7601  -4.7601  -4.7601  -4.7601  -4.7601  -4.7601  -3.8293
    -3.8293  -3.8293  -3.8293  -3.8293  -3.8293  -3.8293  -3.8293  -3.8293
    -3.8293  -3.8293  -3.8293  -3.5609  -3.5609  -3.5609  -3.5609  -1.7844
    -1.7844  -1.7844  -1.7844  -1.7844  -1.7844  -1.6342  -1.6342  -1.6342
    -1.6342  -1.6342  -1.6342  -1.6342  -1.6342  -1.6342  -1.6342  -1.6342
    -1.6342  -0.8936  -0.8936  -0.8936  -0.8936   0.5063   0.5063   0.5063
     0.5063   0.5063   0.5063   0.5063   0.5063   0.5063   0.5063   0.5063
     0.5063   2.2098   2.2098   2.2098   2.2098   2.2098   2.2098   2.2098
     2.2098   2.2098   2.2098   2.2098   2.2098   2.2976   2.2976   2.2976
     2.2976   2.2976   2.2976   2.2976   2.2976   2.2976   2.2976   2.2976
     2.2976   2.4063   2.4063   2.4063   2.4063   2.4063   2.4063   3.1642
     3.1642   3.1642   3.1642   3.1642   3.1642   4.1025   4.1025   4.1025
     4.1025   4.1025   4.1025   4.1025   4.1025   4.1025   4.1025   4.1025
     4.1025   4.6432   4.6432   4.6432   4.6432   4.6432   4.6432   4.6432
     4.6432   4.6432   4.6432   4.6432   4.6432   4.7657   4.7657   4.7657
     4.7657   4.7657   4.7657   4.7657   4.7657   5.9375   5.9375   5.9375

     highest occupied level (ev):     5.9375

!    total energy              =    -503.98902605 Ry
     estimated scf accuracy    <          4.7E-09 Ry

     The total energy is the sum of the following terms:
     one-electron contribution =     143.95654210 Ry
     hartree contribution      =      37.01793084 Ry
     xc contribution           =    -153.36834537 Ry
     ewald contribution        =    -531.59515363 Ry

     convergence has been achieved in   6 iterations

     Forces acting on atoms (cartesian axes, Ry/au):

     atom    1 type  1   force =     0.00000000    0.00000000    0.00000000
     atom    2 type  1   force =    -0.00000005   -0.00000035   -0.00000035
     atom    3 type  1   force =    -0.00000035   -0.00000005   -0.00000035
     atom    4 type  1   force =    -0.00000035   -0.00000035   -0.00000005
     atom    5 type  1   force =    -0.00000009   -0.00000009   -0.00000009
     atom    6 type  1   force =     0.00000000    0.00000000    0.00000000
     atom    7 type  1   force =     0.00000008   -0.00000035   -0.00000035
     atom    8 type  1   force =     0.00000042   -0.00000004   -0.00000004
     atom    9 type  1   force =     0.00000035    0.00000005   -0.00000035
     atom   10 type  1   force =     0.00000035   -0.00000035    0.00000005
     atom   11 type  1   force =     0.00000000    0.00000000    0.00000000
     atom   12 type  1   force =    -0.00000035    0.00000008   -0.00000035
     atom   13 type  1   force =    -0.00000004    0.00000042   -0.00000004
     atom   14 type  1   force =    -0.00000031   -0.00000031   -0.00000016
     atom   15 type  1   force =     0.00000000    0.00000000    0.00000000
     atom   16 type  1   force =     0.00000031    0.00000031   -0.00000016
     atom   17 type  1   force =     0.00000004   -0.00000042   -0.00000004
     atom   18 type  1   force =     0.00000035   -0.00000008   -0.00000035
     atom   19 type  1   force =     0.00000005    0.00000035   -0.00000035
     atom   20 type  1   force =    -0.00000035    0.00000035    0.00000005
     atom   21 type  1   force =    -0.00000042    0.00000004   -0.00000004
     atom   22 type  1   force =    -0.00000008    0.00000035   -0.00000035
     atom   23 type  1   force =     0.00000035    0.00000035   -0.00000005
     atom   24 type  1   force =     0.00000009    0.00000009   -0.00000009
     atom   25 type  1   force =     0.00000000    0.00000000    0.00000000
     atom   26 type  1   force =    -0.00000035   -0.00000035    0.00000008
     atom   27 type  1   force =    -0.00000004   -0.00000004    0.00000042
     atom   28 type  1   force =    -0.00000031   -0.00000016   -0.00000031
     atom   29 type  1   force =     0.00000000    0.00000000    0.00000000
     atom   30 type  1   force =     0.00000031   -0.00000016    0.00000031
     atom   31 type  1   force =     0.00000004   -0.00000004   -0.00000042
     atom   32 type  1   force =     0.00000035   -0.00000035   -0.00000008
     atom   33 type  1   force =    -0.00000016   -0.00000031   -0.00000031
     atom   34 type  1   force =     0.00000000    0.00000000    0.00000000
     atom   35 type  1   force =    -0.00000016    0.00000031    0.00000031
     atom   36 type  1   force =     0.00000038   -0.00000038   -0.00000038
     atom   37 type  1   force =    -0.00000038    0.00000038   -0.00000038
     atom   38 type  1   force =    -0.00000038   -0.00000038    0.00000038
     atom   39 type  1   force =     0.00000000    0.00000000    0.00000000
     atom   40 type  1   force =     0.00000038    0.00000038    0.00000038
     atom   41 type  1   force =     0.00000016    0.00000031   -0.00000031
     atom   42 type  1   force =     0.00000016   -0.00000031    0.00000031
     atom   43 type  1   force =    -0.00000004    0.00000004   -0.00000042
     atom   44 type  1   force =    -0.00000035    0.00000035   -0.00000008
     atom   45 type  1   force =     0.00000031    0.00000016   -0.00000031
     atom   46 type  1   force =    -0.00000031    0.00000016    0.00000031
     atom   47 type  1   force =     0.00000035    0.00000035    0.00000008
     atom   48 type  1   force =     0.00000004    0.00000004    0.00000042
     atom   49 type  1   force =     0.00000005   -0.00000035    0.00000035
     atom   50 type  1   force =    -0.00000035    0.00000005    0.00000035
     atom   51 type  1   force =    -0.00000042   -0.00000004    0.00000004
     atom   52 type  1   force =    -0.00000008   -0.00000035    0.00000035
     atom   53 type  1   force =     0.00000035   -0.00000005    0.00000035
     atom   54 type  1   force =     0.00000009   -0.00000009    0.00000009
     atom   55 type  1   force =    -0.00000004   -0.00000042    0.00000004
     atom   56 type  1   force =    -0.00000035   -0.00000008    0.00000035
     atom   57 type  1   force =     0.00000031   -0.00000031    0.00000016
     atom   58 type  1   force =    -0.00000031    0.00000031    0.00000016
     atom   59 type  1   force =     0.00000035    0.00000008    0.00000035
     atom   60 type  1   force =     0.00000004    0.00000042    0.00000004
     atom   61 type  1   force =    -0.00000005    0.00000035    0.00000035
     atom   62 type  1   force =    -0.00000009    0.00000009    0.00000009
     atom   63 type  1   force =     0.00000008    0.00000035    0.00000035
     atom   64 type  1   force =     0.00000042    0.00000004    0.00000004

     Total force =     0.000004     Total SCF correction =     0.000085
     SCF correction compared to forces is large: reduce conv_thr to get better values


     Computing stress (Cartesian axis) and pressure

          total   stress  (Ry/bohr**3)                   (kbar)     P=        0.02
   0.00000011   0.00000000   0.00000000            0.02        0.00        0.00
   0.00000000   0.00000011   0.00000000            0.00        0.02        0.00
   0.00000000   0.00000000   0.00000011            0.00        0.00        0.02

     Energy error            =      2.3E-05 Ry
     Gradient error          =      4.2E-07 Ry/Bohr
     Cell gradient error     =      1.6E-02 kbar

     bfgs converged in   4 scf cycles and   3 bfgs steps
     (criteria: energy <  1.0E-04 Ry, force <  1.0E-03 Ry/Bohr, cell <  5.0E-01 kbar)

     End of BFGS Geometry Optimization

     Final enthalpy           =    -503.9890260545 Ry

     File ./pwscf.bfgs deleted, as requested
Begin final coordinates
     new unit-cell volume =   8937.97014 a.u.^3 (  1324.47053 Ang^3 )
     density =      2.25356 g/cm^3

CELL_PARAMETERS (angstrom)
  10.981982974   0.000000000   0.000000000
   0.000000000  10.981982974   0.000000000
   0.000000000   0.000000000  10.981982974

ATOMIC_POSITIONS (angstrom)
Si            0.0000000000        0.0000000000        0.0000000000
Si            0.0000001519        2.7454950961        2.7454950961
Si            2.7454950961        0.0000001519        2.7454950961
Si            2.7454950961        2.7454950961        0.0000001519
Si            1.3727470781        1.3727470781        1.3727470781
Si            5.4909914871        0.0000000000        0.0000000000
Si            5.4909914805        2.7454951919        2.7454951919
Si            6.8637395584        1.3727471167        1.3727471167
Si            8.2364878781       -0.0000001519        2.7454950961
Si            8.2364878781        2.7454950961       -0.0000001519
Si            0.0000000000        5.4909914871        0.0000000000
Si            2.7454951919        5.4909914805        2.7454951919
Si            1.3727471167        6.8637395584        1.3727471167
Si            4.1182433856        4.1182433856        1.3727473193
Si            5.4909914871        5.4909914871        0.0000000000
Si            6.8637395886        6.8637395886        1.3727473193
Si            9.6092358575        4.1182434159        1.3727471167
Si            8.2364877824        5.4909914938        2.7454951919
Si           -0.0000001519        8.2364878781        2.7454950961
Si            2.7454950961        8.2364878781       -0.0000001519
Si            4.1182434159        9.6092358575        1.3727471167
Si            5.4909914938        8.2364877824        2.7454951919
Si            8.2364878781        8.2364878781        0.0000001519
Si            9.6092358962        9.6092358962        1.3727470781
Si            0.0000000000        0.0000000000        5.4909914871
Si            2.7454951919        2.7454951919        5.4909914805
Si            1.3727471167        1.3727471167        6.8637395584
Si            4.1182433856        1.3727473193        4.1182433856
Si            5.4909914871        0.0000000000        5.4909914871
Si            6.8637395886        1.3727473193        6.8637395886
Si            9.6092358575        1.3727471167        4.1182434159
Si            8.2364877824        2.7454951919        5.4909914938
Si            1.3727473193        4.1182433856        4.1182433856
Si            0.0000000000        5.4909914871        5.4909914871
Si            1.3727473193        6.8637395886        6.8637395886
Si            6.8637394821        4.1182434922        4.1182434922
Si            4.1182434922        6.8637394821        4.1182434922
Si            4.1182434922        4.1182434922        6.8637394821
Si            5.4909914871        5.4909914871        5.4909914871
Si            6.8637394821        6.8637394821        6.8637394821
Si            9.6092356550        6.8637395886        4.1182433856
Si            9.6092356550        4.1182433856        6.8637395886
Si            1.3727471167        9.6092358575        4.1182434159
Si            2.7454951919        8.2364877824        5.4909914938
Si            6.8637395886        9.6092356550        4.1182433856
Si            4.1182433856        9.6092356550        6.8637395886
Si            8.2364877824        8.2364877824        5.4909914805
Si            9.6092358575        9.6092358575        6.8637395584
Si           -0.0000001519        2.7454950961        8.2364878781
Si            2.7454950961       -0.0000001519        8.2364878781
Si            4.1182434159        1.3727471167        9.6092358575
Si            5.4909914938        2.7454951919        8.2364877824
Si            8.2364878781        0.0000001519        8.2364878781
Si            9.6092358962        1.3727470781        9.6092358962
Si            1.3727471167        4.1182434159        9.6092358575
Si            2.7454951919        5.4909914938        8.2364877824
Si            6.8637395886        4.1182433856        9.6092356550
Si            4.1182433856        6.8637395886        9.6092356550
Si            8.2364877824        5.4909914805        8.2364877824
Si            9.6092358575        6.8637395584        9.6092358575
Si            0.0000001519        8.2364878781        8.2364878781
Si            1.3727470781        9.6092358962        9.6092358962
Si            5.4909914805        8.2364877824        8.2364877824
Si            6.8637395584        9.6092358575        9.6092358575
End final coordinates



     Writing config-only to output data dir ./pwscf.save/

     Final scf calculation at the relaxed structure.
     The G-vectors are recalculated for the final unit cell
     Results may differ from those at the preceding step.
 
     Parallelization info
     --------------------
     sticks:   dense  smooth     PW     G-vecs:    dense   smooth      PW
     Min        2057    2057    541                99229    99229   13477
     Max        2060    2060    544                99232    99232   13484
     Sum        4117    4117   1085               198461   198461   26961
 
     Using Slab Decomposition
 


     bravais-lattice index     =            0
     lattice parameter (alat)  =      20.5251  a.u.
     unit-cell volume          =    8937.9701 (a.u.)^3
     number of atoms/cell      =           64
     number of atomic types    =            1
     number of electrons       =       256.00
     number of Kohn-Sham states=          128
     kinetic-energy cutoff     =      30.0000  Ry
     charge density cutoff     =     120.0000  Ry
     scf convergence threshold =      1.0E-08
     mixing beta               =       0.5000
     number of iterations used =            8  plain     mixing
     press convergence thresh. =      5.0E-01
     Exchange-correlation= PBE
                           (   1   4   3   4   0   0   0)

     GPU acceleration is ACTIVE.
     GPU-aware MPI enabled

     Message from routine print_cuda_info:
     High GPU oversubscription detected. Are you sure this is what you want?

     celldm(1)=  20.525071  celldm(2)=   0.000000  celldm(3)=   0.000000
     celldm(4)=   0.000000  celldm(5)=   0.000000  celldm(6)=   0.000000

     crystal axes: (cart. coord. in units of alat)
               a(1) = (   1.011102   0.000000   0.000000 )  
               a(2) = (   0.000000   1.011102   0.000000 )  
               a(3) = (   0.000000   0.000000   1.011102 )  

     reciprocal axes: (cart. coord. in units 2 pi/alat)
               b(1) = (  0.989020  0.000000  0.000000 )  
               b(2) = (  0.000000  0.989020  0.000000 )  
               b(3) = (  0.000000  0.000000  0.989020 )  


     PseudoPot. # 1 for Si read from file:
     /home/ppiaggi/pseudos/Si_ONCV_PBE_sr.upf
     MD5 check sum: 8553c464762ac42b85b1eed164b4d029
     Pseudo is Norm-conserving, Zval =  4.0
     Generated using ONCVPSP code by D. R. Hamann
     Using radial grid of 1510 points,  4 beta functions with: 
                l(1) =   0
                l(2) =   0
                l(3) =   1
                l(4) =   1

     atomic species   valence    mass     pseudopotential
        Si             4.00    28.08550     Si( 1.00)

     24 Sym. Ops. (no inversion) found



   Cartesian axes

     site n.     atom                  positions (alat units)
         1           Si  tau(   1) = (   0.0000000   0.0000000   0.0000000  )
         2           Si  tau(   2) = (   0.0000000   0.2527754   0.2527754  )
         3           Si  tau(   3) = (   0.2527754   0.0000000   0.2527754  )
         4           Si  tau(   4) = (   0.2527754   0.2527754   0.0000000  )
         5           Si  tau(   5) = (   0.1263877   0.1263877   0.1263877  )
         6           Si  tau(   6) = (   0.5055510   0.0000000   0.0000000  )
         7           Si  tau(   7) = (   0.5055510   0.2527754   0.2527754  )
         8           Si  tau(   8) = (   0.6319388   0.1263877   0.1263877  )
         9           Si  tau(   9) = (   0.7583265  -0.0000000   0.2527754  )
        10           Si  tau(  10) = (   0.7583265   0.2527754  -0.0000000  )
        11           Si  tau(  11) = (   0.0000000   0.5055510   0.0000000  )
        12           Si  tau(  12) = (   0.2527754   0.5055510   0.2527754  )
        13           Si  tau(  13) = (   0.1263877   0.6319388   0.1263877  )
        14           Si  tau(  14) = (   0.3791632   0.3791632   0.1263877  )
        15           Si  tau(  15) = (   0.5055510   0.5055510   0.0000000  )
        16           Si  tau(  16) = (   0.6319388   0.6319388   0.1263877  )
        17           Si  tau(  17) = (   0.8847143   0.3791632   0.1263877  )
        18           Si  tau(  18) = (   0.7583265   0.5055510   0.2527754  )
        19           Si  tau(  19) = (  -0.0000000   0.7583265   0.2527754  )
        20           Si  tau(  20) = (   0.2527754   0.7583265  -0.0000000  )
        21           Si  tau(  21) = (   0.3791632   0.8847143   0.1263877  )
        22           Si  tau(  22) = (   0.5055510   0.7583265   0.2527754  )
        23           Si  tau(  23) = (   0.7583265   0.7583265   0.0000000  )
        24           Si  tau(  24) = (   0.8847143   0.8847143   0.1263877  )
        25           Si  tau(  25) = (   0.0000000   0.0000000   0.5055510  )
        26           Si  tau(  26) = (   0.2527754   0.2527754   0.5055510  )
        27           Si  tau(  27) = (   0.1263877   0.1263877   0.6319388  )
        28           Si  tau(  28) = (   0.3791632   0.1263877   0.3791632  )
        29           Si  tau(  29) = (   0.5055510   0.0000000   0.5055510  )
        30           Si  tau(  30) = (   0.6319388   0.1263877   0.6319388  )
        31           Si  tau(  31) = (   0.8847143   0.1263877   0.3791632  )
        32           Si  tau(  32) = (   0.7583265   0.2527754   0.5055510  )
        33           Si  tau(  33) = (   0.1263877   0.3791632   0.3791632  )
        34           Si  tau(  34) = (   0.0000000   0.5055510   0.5055510  )
        35           Si  tau(  35) = (   0.1263877   0.6319388   0.6319388  )
        36           Si  tau(  36) = (   0.6319387   0.3791632   0.3791632  )
        37           Si  tau(  37) = (   0.3791632   0.6319387   0.3791632  )
        38           Si  tau(  38) = (   0.3791632   0.3791632   0.6319387  )
        39           Si  tau(  39) = (   0.5055510   0.5055510   0.5055510  )
        40           Si  tau(  40) = (   0.6319387   0.6319387   0.6319387  )
        41           Si  tau(  41) = (   0.8847143   0.6319388   0.3791632  )
        42           Si  tau(  42) = (   0.8847143   0.3791632   0.6319388  )
        43           Si  tau(  43) = (   0.1263877   0.8847143   0.3791632  )
        44           Si  tau(  44) = (   0.2527754   0.7583265   0.5055510  )
        45           Si  tau(  45) = (   0.6319388   0.8847143   0.3791632  )
        46           Si  tau(  46) = (   0.3791632   0.8847143   0.6319388  )
        47           Si  tau(  47) = (   0.7583265   0.7583265   0.5055510  )
        48           Si  tau(  48) = (   0.8847143   0.8847143   0.6319388  )
        49           Si  tau(  49) = (  -0.0000000   0.2527754   0.7583265  )
        50           Si  tau(  50) = (   0.2527754  -0.0000000   0.7583265  )
        51           Si  tau(  51) = (   0.3791632   0.1263877   0.8847143  )
        52           Si  tau(  52) = (   0.5055510   0.2527754   0.7583265  )
        53           Si  tau(  53) = (   0.7583265   0.0000000   0.7583265  )
        54           Si  tau(  54) = (   0.8847143   0.1263877   0.8847143  )
        55           Si  tau(  55) = (   0.1263877   0.3791632   0.8847143  )
        56           Si  tau(  56) = (   0.2527754   0.5055510   0.7583265  )
        57           Si  tau(  57) = (   0.6319388   0.3791632   0.8847143  )
        58           Si  tau(  58) = (   0.3791632   0.6319388   0.8847143  )
        59           Si  tau(  59) = (   0.7583265   0.5055510   0.7583265  )
        60           Si  tau(  60) = (   0.8847143   0.6319388   0.8847143  )
        61           Si  tau(  61) = (   0.0000000   0.7583265   0.7583265  )
        62           Si  tau(  62) = (   0.1263877   0.8847143   0.8847143  )
        63           Si  tau(  63) = (   0.5055510   0.7583265   0.7583265  )
        64           Si  tau(  64) = (   0.6319388   0.8847143   0.8847143  )

     number of k points=     1
                       cart. coord. in units 2pi/alat
        k(    1) = (   0.0000000   0.0000000   0.0000000), wk =   2.0000000

     Dense  grid:    99231 G-vectors     FFT dimensions: (  75,  75,  75)

     Estimated max dynamical RAM per process >     147.16 MB

     Estimated total dynamical RAM >     564.41 MB

     Initial potential from superposition of free atoms

     starting charge     255.9608, renormalised to     256.0000
     Starting wfcs are  256 randomized atomic wfcs

     total cpu time spent up to now is       13.8 secs

     Self-consistent Calculation

     iteration #  1     ecut=    30.00 Ry     beta= 0.50
     Davidson diagonalization with overlap
     ethr =  1.00E-06,  avg # of iterations = 10.0

     total cpu time spent up to now is       14.0 secs

     total energy              =    -503.98831057 Ry
     estimated scf accuracy    <       1.94306026 Ry

     iteration #  2     ecut=    30.00 Ry     beta= 0.50
     Davidson diagonalization with overlap
     ethr =  7.59E-04,  avg # of iterations =  1.0

     total cpu time spent up to now is       14.1 secs

     total energy              =    -503.96888336 Ry
     estimated scf accuracy    <       0.34913822 Ry

     iteration #  3     ecut=    30.00 Ry     beta= 0.50
     Davidson diagonalization with overlap
     ethr =  1.36E-04,  avg # of iterations =  1.0

     total cpu time spent up to now is       14.2 secs

     total energy              =    -503.98991492 Ry
     estimated scf accuracy    <       0.00497221 Ry

     iteration #  4     ecut=    30.00 Ry     beta= 0.50
     Davidson diagonalization with overlap
     ethr =  1.94E-06,  avg # of iterations =  3.0

     total cpu time spent up to now is       14.3 secs

     total energy              =    -503.99248167 Ry
     estimated scf accuracy    <       0.00006588 Ry

     iteration #  5     ecut=    30.00 Ry     beta= 0.50
     Davidson diagonalization with overlap
     ethr =  2.57E-08,  avg # of iterations =  7.0

     total cpu time spent up to now is       14.5 secs

     total energy              =    -503.99259550 Ry
     estimated scf accuracy    <       0.00001290 Ry

     iteration #  6     ecut=    30.00 Ry     beta= 0.50
     Davidson diagonalization with overlap
     ethr =  5.04E-09,  avg # of iterations =  3.0

     total cpu time spent up to now is       14.6 secs

     total energy              =    -503.99259943 Ry
     estimated scf accuracy    <       0.00000262 Ry

     iteration #  7     ecut=    30.00 Ry     beta= 0.50
     Davidson diagonalization with overlap
     ethr =  1.02E-09,  avg # of iterations =  3.0

     total cpu time spent up to now is       14.7 secs

     total energy              =    -503.99259921 Ry
     estimated scf accuracy    <       0.00000334 Ry

     iteration #  8     ecut=    30.00 Ry     beta= 0.50
     Davidson diagonalization with overlap
     ethr =  1.02E-09,  avg # of iterations =  2.0

     total cpu time spent up to now is       14.8 secs

     total energy              =    -503.99259920 Ry
     estimated scf accuracy    <       0.00000038 Ry

     iteration #  9     ecut=    30.00 Ry     beta= 0.50
     Davidson diagonalization with overlap
     ethr =  1.47E-10,  avg # of iterations =  6.0

     total cpu time spent up to now is       14.9 secs

     total energy              =    -503.99259927 Ry
     estimated scf accuracy    <       0.00000004 Ry

     iteration # 10     ecut=    30.00 Ry     beta= 0.50
     Davidson diagonalization with overlap
     ethr =  1.44E-11,  avg # of iterations =  4.0

     total cpu time spent up to now is       15.0 secs

     End of self-consistent calculation

          k = 0.0000 0.0000 0.0000 ( 12419 PWs)   bands (ev):

    -5.8119  -4.7601  -4.7601  -4.7601  -4.7600  -4.7600  -4.7600  -3.8292
    -3.8292  -3.8292  -3.8292  -3.8292  -3.8292  -3.8292  -3.8292  -3.8292
    -3.8292  -3.8292  -3.8292  -3.5609  -3.5609  -3.5609  -3.5609  -1.7845
    -1.7845  -1.7845  -1.7845  -1.7845  -1.7845  -1.6342  -1.6342  -1.6342
    -1.6342  -1.6342  -1.6342  -1.6342  -1.6342  -1.6342  -1.6342  -1.6342
    -1.6342  -0.8936  -0.8936  -0.8936  -0.8936   0.5063   0.5063   0.5063
     0.5063   0.5063   0.5063   0.5063   0.5063   0.5063   0.5063   0.5063
     0.5063   2.2098   2.2098   2.2098   2.2098   2.2098   2.2098   2.2098
     2.2098   2.2098   2.2098   2.2098   2.2098   2.2975   2.2975   2.2975
     2.2975   2.2975   2.2975   2.2975   2.2975   2.2975   2.2975   2.2975
     2.2975   2.4057   2.4057   2.4057   2.4057   2.4057   2.4057   3.1642
     3.1642   3.1642   3.1642   3.1642   3.1642   4.1022   4.1022   4.1022
     4.1022   4.1022   4.1022   4.1022   4.1022   4.1022   4.1022   4.1022
     4.1022   4.6427   4.6427   4.6427   4.6427   4.6427   4.6427   4.6427
     4.6427   4.6427   4.6427   4.6427   4.6427   4.7654   4.7654   4.7654
     4.7654   4.7654   4.7654   4.7654   4.7654   5.9375   5.9375   5.9375

     highest occupied level (ev):     5.9375

!    total energy              =    -503.99259927 Ry
     estimated scf accuracy    <          8.3E-09 Ry

     The total energy is the sum of the following terms:
     one-electron contribution =     143.95087388 Ry
     hartree contribution      =      37.02038020 Ry
     xc contribution           =    -153.36869972 Ry
     ewald contribution        =    -531.59515363 Ry

     convergence has been achieved in  10 iterations

     Forces acting on atoms (cartesian axes, Ry/au):

     atom    1 type  1   force =     0.00000000    0.00000000    0.00000000
     atom    2 type  1   force =    -0.00000027    0.00000152    0.00000152
     atom    3 type  1   force =     0.00000152   -0.00000027    0.00000152
     atom    4 type  1   force =     0.00000152    0.00000152   -0.00000027
     atom    5 type  1   force =    -0.00000224   -0.00000224   -0.00000224
     atom    6 type  1   force =     0.00000000    0.00000000    0.00000000
     atom    7 type  1   force =     0.00000032    0.00000331    0.00000331
     atom    8 type  1   force =     0.00000262   -0.00000142   -0.00000142
     atom    9 type  1   force =    -0.00000152    0.00000027    0.00000152
     atom   10 type  1   force =    -0.00000152    0.00000152    0.00000027
     atom   11 type  1   force =     0.00000000    0.00000000    0.00000000
     atom   12 type  1   force =     0.00000331    0.00000032    0.00000331
     atom   13 type  1   force =    -0.00000142    0.00000262   -0.00000142
     atom   14 type  1   force =    -0.00000173   -0.00000173   -0.00000081
     atom   15 type  1   force =     0.00000000    0.00000000    0.00000000
     atom   16 type  1   force =     0.00000173    0.00000173   -0.00000081
     atom   17 type  1   force =     0.00000142   -0.00000262   -0.00000142
     atom   18 type  1   force =    -0.00000331   -0.00000032    0.00000331
     atom   19 type  1   force =     0.00000027   -0.00000152    0.00000152
     atom   20 type  1   force =     0.00000152   -0.00000152    0.00000027
     atom   21 type  1   force =    -0.00000262    0.00000142   -0.00000142
     atom   22 type  1   force =    -0.00000032   -0.00000331    0.00000331
     atom   23 type  1   force =    -0.00000152   -0.00000152   -0.00000027
     atom   24 type  1   force =     0.00000224    0.00000224   -0.00000224
     atom   25 type  1   force =     0.00000000    0.00000000    0.00000000
     atom   26 type  1   force =     0.00000331    0.00000331    0.00000032
     atom   27 type  1   force =    -0.00000142   -0.00000142    0.00000262
     atom   28 type  1   force =    -0.00000173   -0.00000081   -0.00000173
     atom   29 type  1   force =     0.00000000    0.00000000    0.00000000
     atom   30 type  1   force =     0.00000173   -0.00000081    0.00000173
     atom   31 type  1   force =     0.00000142   -0.00000142   -0.00000262
     atom   32 type  1   force =    -0.00000331    0.00000331   -0.00000032
     atom   33 type  1   force =    -0.00000081   -0.00000173   -0.00000173
     atom   34 type  1   force =     0.00000000    0.00000000    0.00000000
     atom   35 type  1   force =    -0.00000081    0.00000173    0.00000173
     atom   36 type  1   force =    -0.00000181    0.00000181    0.00000181
     atom   37 type  1   force =     0.00000181   -0.00000181    0.00000181
     atom   38 type  1   force =     0.00000181    0.00000181   -0.00000181
     atom   39 type  1   force =     0.00000000    0.00000000    0.00000000
     atom   40 type  1   force =    -0.00000181   -0.00000181   -0.00000181
     atom   41 type  1   force =     0.00000081    0.00000173   -0.00000173
     atom   42 type  1   force =     0.00000081   -0.00000173    0.00000173
     atom   43 type  1   force =    -0.00000142    0.00000142   -0.00000262
     atom   44 type  1   force =     0.00000331   -0.00000331   -0.00000032
     atom   45 type  1   force =     0.00000173    0.00000081   -0.00000173
     atom   46 type  1   force =    -0.00000173    0.00000081    0.00000173
     atom   47 type  1   force =    -0.00000331   -0.00000331    0.00000032
     atom   48 type  1   force =     0.00000142    0.00000142    0.00000262
     atom   49 type  1   force =     0.00000027    0.00000152   -0.00000152
     atom   50 type  1   force =     0.00000152    0.00000027   -0.00000152
     atom   51 type  1   force =    -0.00000262   -0.00000142    0.00000142
     atom   52 type  1   force =    -0.00000032    0.00000331   -0.00000331
     atom   53 type  1   force =    -0.00000152   -0.00000027   -0.00000152
     atom   54 type  1   force =     0.00000224   -0.00000224    0.00000224
     atom   55 type  1   force =    -0.00000142   -0.00000262    0.00000142
     atom   56 type  1   force =     0.00000331   -0.00000032   -0.00000331
     atom   57 type  1   force =     0.00000173   -0.00000173    0.00000081
     atom   58 type  1   force =    -0.00000173    0.00000173    0.00000081
     atom   59 type  1   force =    -0.00000331    0.00000032   -0.00000331
     atom   60 type  1   force =     0.00000142    0.00000262    0.00000142
     atom   61 type  1   force =    -0.00000027   -0.00000152   -0.00000152
     atom   62 type  1   force =    -0.00000224    0.00000224    0.00000224
     atom   63 type  1   force =     0.00000032   -0.00000331   -0.00000331
     atom   64 type  1   force =     0.00000262    0.00000142    0.00000142

     Total force =     0.000025     Total SCF correction =     0.000095
     SCF correction compared to forces is large: reduce conv_thr to get better values


     Computing stress (Cartesian axis) and pressure

          total   stress  (Ry/bohr**3)                   (kbar)     P=       -0.02
  -0.00000012   0.00000000   0.00000000           -0.02        0.00        0.00
   0.00000000  -0.00000012   0.00000000            0.00       -0.02        0.00
   0.00000000   0.00000000  -0.00000012            0.00        0.00       -0.02


     Writing all to output data dir ./pwscf.save/
 
     init_run     :      2.41s CPU      6.47s WALL (       2 calls)
     electrons    :      4.24s CPU      4.57s WALL (       5 calls)
     update_pot   :      2.90s CPU      2.91s WALL (       3 calls)
     forces       :      0.23s CPU      0.25s WALL (       5 calls)
     stress       :      0.69s CPU      0.71s WALL (       5 calls)

     Called by init_run:
     wfcinit      :      0.60s CPU      4.45s WALL (       2 calls)
                                        4.45s GPU  (       2 calls)
     potinit      :      0.88s CPU      0.99s WALL (       2 calls)
     hinit0       :      0.87s CPU      0.91s WALL (       2 calls)

     Called by electrons:
     c_bands      :      2.59s CPU      2.74s WALL (      45 calls)
     sum_band     :      0.83s CPU      0.92s WALL (      45 calls)
     v_of_rho     :      0.39s CPU      0.53s WALL (      48 calls)
     mix_rho      :      0.32s CPU      0.34s WALL (      45 calls)

     Called by c_bands:
     init_us_2    :      0.16s CPU      0.17s WALL (      92 calls)
     init_us_2:gp :      0.16s CPU      0.17s WALL (      92 calls)
     regterg      :      2.09s CPU      2.22s WALL (      45 calls)

     Called by *egterg:
     rdiaghg      :      0.65s CPU      1.44s WALL (     165 calls)
                                        1.41s GPU  (     165 calls)
     h_psi        :      1.67s CPU      4.82s WALL (     172 calls)
                                        4.81s GPU  (     172 calls)
     g_psi        :      0.00s CPU      0.01s WALL (     125 calls)
                                        0.01s GPU  (     125 calls)

     Called by h_psi:
     h_psi:calbec :      0.57s CPU      3.52s WALL (     172 calls)
                                        3.52s GPU  (     172 calls)
     vloc_psi     :      1.00s CPU      1.19s WALL (     172 calls)
                                        1.18s GPU  (     172 calls)
     add_vuspsi   :      0.06s CPU      0.09s WALL (     172 calls)
                                        0.09s GPU  (     172 calls)

     General routines
     calbec       :      0.60s CPU      3.55s WALL (     197 calls)
     fft          :      0.99s CPU      1.16s WALL (     419 calls)
                                        0.18s GPU  (     273 calls)
     ffts         :      0.11s CPU      0.13s WALL (      45 calls)
     fftw         :      1.12s CPU      1.50s WALL (    4006 calls)
                                        1.33s GPU  (    4006 calls)
 
     Parallel routines
 
     PWSCF        :     10.75s CPU     15.30s WALL

 
   This run was terminated on:  14:30:48   8May2023            

=------------------------------------------------------------------------------=
   JOB DONE.
=------------------------------------------------------------------------------=
Warning: ieee_divide_by_zero is signaling
Warning: ieee_inexact is signaling
FORTRAN STOP
Warning: ieee_inexact is signaling
FORTRAN STOP
Warning: ieee_inexact is signaling
FORTRAN STOP
Warning: ieee_inexact is signaling
FORTRAN STOP
