ITEM: TIMESTEP
0
ITEM: NUMBER OF ATOMS
64
ITEM: BOX BOUNDS pp pp pp
-1.9064790660664865e-01 1.1052047906606898e+01
-1.9064790660664865e-01 1.1052047906606898e+01
-1.9064790660664865e-01 1.1052047906606898e+01
ITEM: ATOMS id type xs ys zs
52 1 0.0808142 0.0433925 0.451227
53 1 0.406382 0.47963 0.366467
32 1 0.340125 0.246599 0.38241
26 1 0.219524 0.180674 0.189008
17 1 0.441289 0.193731 0.129696
54 1 0.0818657 0.366061 0.173858
40 1 0.184485 0.40842 0.329449
24 1 0.327242 0.378192 0.0834823
48 1 0.138989 0.234093 0.43872
7 1 0.00321777 0.207364 0.0489369
10 1 0.317135 0.046312 0.0114328
49 1 0.789006 0.317129 0.200853
55 1 0.543234 0.291852 0.299248
4 1 0.695524 0.471217 0.308458
28 1 0.69291 0.0806404 0.250754
42 1 0.827456 0.352701 0.0105181
14 1 0.948969 0.183524 0.289319
30 1 0.714834 0.246856 0.423923
51 1 0.944347 0.444609 0.397236
61 1 0.897971 0.0479334 0.138829
25 1 0.102032 0.658839 0.22349
43 1 0.181949 0.848315 0.234844
64 1 0.410263 0.813029 0.343201
29 1 0.460019 0.750898 0.154249
44 1 0.230552 0.651795 0.377681
57 1 0.321012 0.589582 0.180815
8 1 0.246898 0.843735 0.0485718
41 1 0.261375 0.952413 0.371911
2 1 0.741078 0.580229 0.10065
38 1 0.952385 0.822997 0.327336
50 1 0.630505 0.691751 0.332657
3 1 0.755559 0.852485 0.403612
60 1 0.960948 0.632816 0.485494
9 1 0.590541 0.915887 0.207379
35 1 0.857862 0.74237 0.100742
45 1 0.121843 0.374051 0.702705
31 1 0.366141 0.366658 0.606277
21 1 0.452222 0.167617 0.733703
56 1 0.130735 0.286006 0.900515
36 1 0.371544 0.347287 0.832567
20 1 0.286402 0.13607 0.833656
6 1 0.17645 0.479671 0.924272
5 1 0.894199 0.161174 0.526726
34 1 0.521298 0.446988 0.962283
1 1 0.905632 0.355578 0.587846
18 1 0.835627 0.271208 0.75698
13 1 0.56699 0.306899 0.624847
15 1 0.676009 0.247967 0.92599
11 1 0.94338 0.110553 0.837527
16 1 0.69281 0.451793 0.572425
23 1 0.365794 0.892623 0.567387
12 1 0.0553551 0.633168 0.983032
62 1 0.130796 0.975557 0.874207
58 1 0.0294887 0.600164 0.740075
46 1 0.402799 0.746785 0.704874
47 1 0.462058 0.534343 0.767297
37 1 0.265595 0.674941 0.900908
33 1 0.178542 0.760279 0.639078
39 1 0.521616 0.942914 0.697765
63 1 0.681733 0.515062 0.867092
27 1 0.920921 0.927327 0.945484
22 1 0.795412 0.635807 0.643666
59 1 0.704359 0.735657 0.955465
19 1 0.67818 0.806696 0.586792
ITEM: TIMESTEP
50
ITEM: NUMBER OF ATOMS
64
ITEM: BOX BOUNDS pp pp pp
-1.9141785774051900e-01 1.1052817857740775e+01
-1.9141785774051900e-01 1.1052817857740775e+01
-1.9141785774051900e-01 1.1052817857740775e+01
ITEM: ATOMS id type xs ys zs
52 1 0.040919 0.0068813 0.453587
53 1 0.383725 0.479317 0.371532
32 1 0.346662 0.226783 0.356157
26 1 0.182798 0.191891 0.216291
17 1 0.395081 0.187388 0.107474
54 1 0.0926987 0.400515 0.200875
40 1 0.18234 0.430391 0.417927
24 1 0.314219 0.384114 0.110601
48 1 0.111836 0.226462 0.456403
7 1 0.00382879 0.238508 0.0575003
10 1 0.363322 0.0135664 0.998994
49 1 0.797764 0.331459 0.200868
55 1 0.579013 0.29694 0.238274
4 1 0.716339 0.486969 0.376251
28 1 0.72806 0.0553958 0.27751
42 1 0.836396 0.40789 0.97182
14 1 0.967788 0.224908 0.295134
30 1 0.738596 0.244324 0.414939
51 1 0.915091 0.455388 0.377773
61 1 0.886776 0.043976 0.140159
25 1 0.0832746 0.592693 0.191451
43 1 0.161784 0.833005 0.241475
64 1 0.432482 0.785025 0.356629
29 1 0.489692 0.70137 0.111341
44 1 0.263853 0.658352 0.391621
57 1 0.318399 0.573825 0.182507
8 1 0.234771 0.850029 0.0309782
41 1 0.271999 0.0264632 0.395491
2 1 0.717824 0.564424 0.134394
38 1 0.965703 0.762257 0.285684
50 1 0.626403 0.690742 0.269287
3 1 0.750944 0.838618 0.382006
60 1 0.00115581 0.681607 0.470823
9 1 0.546179 0.887374 0.22713
35 1 0.897369 0.741567 0.101924
45 1 0.135004 0.39079 0.666829
31 1 0.335856 0.393831 0.597586
21 1 0.483514 0.170203 0.728315
56 1 0.113765 0.281609 0.877732
36 1 0.308357 0.366031 0.797767
20 1 0.278256 0.153482 0.839312
6 1 0.200621 0.503871 0.916684
5 1 0.886043 0.129295 0.534165
34 1 0.487942 0.368843 0.932245
1 1 0.925796 0.367845 0.595211
18 1 0.792782 0.237097 0.754286
13 1 0.605262 0.30662 0.621606
15 1 0.625875 0.235629 0.935397
11 1 0.955885 0.127622 0.851927
16 1 0.724043 0.469988 0.573884
23 1 0.382115 0.888372 0.538074
12 1 0.00833085 0.622414 0.985119
62 1 0.119792 0.00521731 0.892296
58 1 0.0415268 0.600934 0.754981
46 1 0.349789 0.725276 0.745327
47 1 0.503309 0.551273 0.717737
37 1 0.310646 0.676955 0.947063
33 1 0.166677 0.739 0.660938
39 1 0.502571 0.962381 0.713699
63 1 0.682908 0.492418 0.858393
27 1 0.931193 0.921096 0.959326
22 1 0.844637 0.645318 0.603052
59 1 0.680022 0.763208 0.98267
19 1 0.704625 0.84188 0.623466
ITEM: TIMESTEP
100
ITEM: NUMBER OF ATOMS
64
ITEM: BOX BOUNDS pp pp pp
-1.8334627444471163e-01 1.1044746274444964e+01
-1.8334627444471163e-01 1.1044746274444964e+01
-1.8334627444471163e-01 1.1044746274444964e+01
ITEM: ATOMS id type xs ys zs
52 1 0.0103734 0.973685 0.438492
53 1 0.403393 0.430947 0.364648
32 1 0.39387 0.240026 0.330772
26 1 0.160307 0.174389 0.207688
17 1 0.377819 0.18224 0.106823
54 1 0.139843 0.379638 0.262586
40 1 0.139983 0.463507 0.453183
24 1 0.263368 0.389396 0.0840658
48 1 0.0891414 0.208572 0.504268
7 1 0.972332 0.254298 0.0517478
10 1 0.405715 0.0162864 0.969803
49 1 0.803025 0.370005 0.191554
55 1 0.584438 0.29473 0.18493
4 1 0.703271 0.52472 0.375937
28 1 0.745065 0.0157301 0.310722
42 1 0.846763 0.441664 0.976588
14 1 0.95466 0.243851 0.314955
30 1 0.752157 0.226445 0.401882
51 1 0.946047 0.465675 0.349883
61 1 0.896521 0.0739726 0.142965
25 1 0.084249 0.614109 0.147245
43 1 0.161863 0.80755 0.254731
64 1 0.46974 0.762617 0.390875
29 1 0.534549 0.653533 0.0493661
44 1 0.239305 0.659596 0.398921
57 1 0.299516 0.590728 0.194398
8 1 0.211767 0.863923 0.0603559
41 1 0.259751 0.0750218 0.422312
2 1 0.696363 0.522884 0.112308
38 1 0.938395 0.744052 0.290419
50 1 0.632343 0.688054 0.281592
3 1 0.759431 0.825623 0.382984
60 1 0.0638856 0.69977 0.466706
9 1 0.552807 0.900494 0.207944
35 1 0.882931 0.747568 0.0655699
45 1 0.0988206 0.430231 0.6626
31 1 0.357481 0.453603 0.568186
21 1 0.50146 0.197277 0.761777
56 1 0.0914005 0.298393 0.857992
36 1 0.277383 0.377273 0.776882
20 1 0.307553 0.151841 0.845303
6 1 0.203875 0.524621 0.924869
5 1 0.892214 0.145656 0.558039
34 1 0.434776 0.3659 0.925856
1 1 0.912151 0.340829 0.599096
18 1 0.750101 0.214094 0.75352
13 1 0.632061 0.299747 0.60362
15 1 0.632008 0.19772 0.91856
11 1 0.934759 0.153086 0.853911
16 1 0.762379 0.501481 0.621253
23 1 0.367894 0.896887 0.539799
12 1 0.998692 0.563533 0.963764
62 1 0.128942 0.98586 0.917373
58 1 0.0387455 0.586077 0.763865
46 1 0.35013 0.701088 0.760209
47 1 0.528801 0.518618 0.671018
37 1 0.332295 0.673137 0.984895
33 1 0.154945 0.721585 0.647383
39 1 0.500949 0.910527 0.696991
63 1 0.635777 0.465373 0.844507
27 1 0.92495 0.945853 0.97379
22 1 0.878521 0.699017 0.612038
59 1 0.691833 0.756637 0.0651731
19 1 0.736344 0.857672 0.596404
ITEM: TIMESTEP
150
ITEM: NUMBER OF ATOMS
64
ITEM: BOX BOUNDS pp pp pp
-1.7258286633848297e-01 1.1033982866338736e+01
-1.7258286633848297e-01 1.1033982866338736e+01
-1.7258286633848297e-01 1.1033982866338736e+01
ITEM: ATOMS id type xs ys zs
52 1 0.99756 0.970278 0.413202
53 1 0.419681 0.436459 0.330052
32 1 0.434615 0.18729 0.287126
26 1 0.177459 0.136774 0.215617
17 1 0.363781 0.171307 0.0829863
54 1 0.185446 0.35459 0.279235
40 1 0.123493 0.533056 0.46652
24 1 0.234468 0.393614 0.0773444
48 1 0.0762826 0.190318 0.560795
7 1 0.940292 0.275895 0.0374529
10 1 0.431508 0.00409911 0.969797
49 1 0.820137 0.380126 0.203015
55 1 0.567039 0.289847 0.137247
4 1 0.744073 0.504419 0.39731
28 1 0.750005 0.00912005 0.295007
42 1 0.818457 0.42153 0.972119
14 1 0.944486 0.240823 0.329224
30 1 0.726145 0.208229 0.393565
51 1 0.956086 0.482902 0.317684
61 1 0.897729 0.105632 0.181551
25 1 0.102531 0.649034 0.149998
43 1 0.138285 0.802611 0.294362
64 1 0.456882 0.76663 0.41457
29 1 0.49315 0.585513 0.00379595
44 1 0.303158 0.655725 0.400614
57 1 0.29748 0.567463 0.194242
8 1 0.245858 0.87557 0.0846813
41 1 0.23759 0.118973 0.426439
2 1 0.662383 0.476528 0.106922
38 1 0.917608 0.726859 0.261611
50 1 0.627715 0.693027 0.294223
3 1 0.793178 0.808755 0.395589
60 1 0.0272489 0.729333 0.463201
9 1 0.580995 0.930692 0.207297
35 1 0.926569 0.738678 0.0557967
45 1 0.0523671 0.395214 0.677041
31 1 0.346254 0.508785 0.551512
21 1 0.517673 0.230802 0.752697
56 1 0.0859929 0.288592 0.862148
36 1 0.282469 0.395061 0.738378
20 1 0.275537 0.152526 0.866114
6 1 0.206032 0.534785 0.892697
5 1 0.892601 0.088786 0.589594
34 1 0.417209 0.344503 0.922722
1 1 0.859795 0.349826 0.59559
18 1 0.752664 0.19129 0.734151
13 1 0.632916 0.308843 0.558967
15 1 0.607166 0.189128 0.978113
11 1 0.934054 0.148723 0.851463
16 1 0.777894 0.547324 0.642708
23 1 0.332267 0.90363 0.539705
12 1 0.00505263 0.555838 0.964787
62 1 0.139073 0.0113173 0.903458
58 1 0.0177892 0.644515 0.764155
46 1 0.397307 0.682352 0.754175
47 1 0.578303 0.492559 0.635731
37 1 0.315383 0.703659 0.985102
33 1 0.201819 0.7359 0.675639
39 1 0.507491 0.835999 0.689082
63 1 0.605842 0.418618 0.857979
27 1 0.92624 0.988503 0.978837
22 1 0.899154 0.728815 0.633278
59 1 0.714594 0.78715 0.121867
19 1 0.731919 0.874174 0.600015
ITEM: TIMESTEP
200
ITEM: NUMBER OF ATOMS
64
ITEM: BOX BOUNDS pp pp pp
-1.5756130325118001e-01 1.1018961303251432e+01
-1.5756130325118001e-01 1.1018961303251432e+01
-1.5756130325118001e-01 1.1018961303251432e+01
ITEM: ATOMS id type xs ys zs
52 1 0.987858 0.983323 0.397285
53 1 0.424716 0.404569 0.301878
32 1 0.457714 0.137337 0.286512
26 1 0.20613 0.107378 0.209503
17 1 0.340307 0.171436 0.0685365
54 1 0.220038 0.310729 0.302658
40 1 0.113556 0.580136 0.501454
24 1 0.228467 0.362546 0.0600984
48 1 0.0358481 0.170657 0.579359
7 1 0.930125 0.266768 0.0231104
10 1 0.450966 0.985051 0.00126953
49 1 0.807641 0.376228 0.236671
55 1 0.510932 0.290544 0.162149
4 1 0.79199 0.493182 0.431815
28 1 0.767748 0.00464845 0.296636
42 1 0.804589 0.43216 0.91321
14 1 0.966779 0.241108 0.399564
30 1 0.738099 0.188131 0.373157
51 1 0.992488 0.52934 0.323623
61 1 0.931588 0.105758 0.178889
25 1 0.139436 0.65738 0.151849
43 1 0.143635 0.845584 0.31913
64 1 0.503596 0.841821 0.436064
29 1 0.441039 0.508098 0.940501
44 1 0.291228 0.65418 0.376462
57 1 0.321065 0.531418 0.17078
8 1 0.254971 0.946858 0.0990828
41 1 0.252993 0.142703 0.431646
2 1 0.606289 0.488404 0.139402
38 1 0.912448 0.68962 0.22628
50 1 0.648913 0.668975 0.343941
3 1 0.79563 0.83165 0.419075
60 1 0.0171736 0.777481 0.479353
9 1 0.541673 0.981455 0.208511
35 1 0.914722 0.775911 0.988274
45 1 0.0288654 0.372656 0.665609
31 1 0.339063 0.535205 0.565544
21 1 0.533283 0.26165 0.732923
56 1 0.0959014 0.294062 0.879345
36 1 0.290599 0.410146 0.715605
20 1 0.266412 0.175444 0.854026
6 1 0.206236 0.545584 0.848356
5 1 0.878017 0.0131971 0.616643
34 1 0.380093 0.338065 0.921057
1 1 0.817164 0.36571 0.596869
18 1 0.743257 0.192457 0.702772
13 1 0.615953 0.294748 0.525776
15 1 0.571212 0.145981 0.96082
11 1 0.926888 0.129846 0.81875
16 1 0.800167 0.576642 0.626639
23 1 0.309415 0.882504 0.547672
12 1 0.994462 0.552003 0.962123
62 1 0.125529 0.995273 0.930866
58 1 0.0661532 0.683542 0.787365
46 1 0.425513 0.615006 0.768932
47 1 0.586428 0.493959 0.640162
37 1 0.309818 0.719303 0.962835
33 1 0.2267 0.750421 0.672897
39 1 0.525625 0.794854 0.619312
63 1 0.613058 0.396247 0.869891
27 1 0.944576 0.967132 0.0214874
22 1 0.863961 0.775629 0.638847
59 1 0.750589 0.791224 0.15085
19 1 0.704901 0.907862 0.636194
ITEM: TIMESTEP
250
ITEM: NUMBER OF ATOMS
64
ITEM: BOX BOUNDS pp pp pp
-1.4580201342436272e-01 1.1007202013424612e+01
-1.4580201342436272e-01 1.1007202013424612e+01
-1.4580201342436272e-01 1.1007202013424612e+01
ITEM: ATOMS id type xs ys zs
52 1 0.974817 0.0235471 0.386207
53 1 0.430098 0.373601 0.334049
32 1 0.429455 0.116121 0.360595
26 1 0.182571 0.11018 0.256601
17 1 0.344764 0.153192 0.0708648
54 1 0.226809 0.304814 0.312276
40 1 0.121501 0.606205 0.541054
24 1 0.187482 0.344814 0.064145
48 1 0.0421738 0.103696 0.580843
7 1 0.894305 0.26868 0.999052
10 1 0.45957 0.932091 0.0188383
49 1 0.793169 0.382947 0.271113
55 1 0.513685 0.281333 0.126745
4 1 0.833664 0.518345 0.422382
28 1 0.786857 0.984577 0.267101
42 1 0.839972 0.444681 0.889874
14 1 0.953342 0.253945 0.422122
30 1 0.762288 0.192606 0.359956
51 1 0.0199672 0.553466 0.357129
61 1 0.988499 0.133826 0.211554
25 1 0.149773 0.690132 0.149958
43 1 0.173442 0.878077 0.310175
64 1 0.549102 0.904492 0.384274
29 1 0.453757 0.524378 0.968478
44 1 0.26469 0.684548 0.324409
57 1 0.333585 0.530656 0.142646
8 1 0.258229 0.93567 0.088265
41 1 0.264147 0.12455 0.472659
2 1 0.555075 0.505096 0.186466
38 1 0.943849 0.675469 0.172992
50 1 0.699145 0.663909 0.387826
3 1 0.796395 0.833219 0.448292
60 1 0.00740703 0.819692 0.481715
9 1 0.560115 0.957882 0.207838
35 1 0.905538 0.749213 0.920836
45 1 0.0486908 0.38498 0.67282
31 1 0.342184 0.596981 0.525325
21 1 0.527346 0.268716 0.706081
56 1 0.0624825 0.321872 0.870421
36 1 0.277423 0.36991 0.727417
20 1 0.215357 0.123393 0.787616
6 1 0.190302 0.545459 0.861536
5 1 0.886916 0.973822 0.64994
34 1 0.374414 0.263124 0.878901
1 1 0.833029 0.367653 0.615946
18 1 0.744741 0.183563 0.682773
13 1 0.574421 0.284941 0.482645
15 1 0.53178 0.167427 0.930138
11 1 0.930475 0.113912 0.80915
16 1 0.789623 0.587383 0.628863
23 1 0.330659 0.888171 0.492994
12 1 0.00295267 0.564811 0.962523
62 1 0.138748 0.0150736 0.928278
58 1 0.061832 0.749165 0.804906
46 1 0.42198 0.594887 0.739421
47 1 0.5913 0.482017 0.656
37 1 0.273582 0.734926 0.966156
33 1 0.257925 0.709263 0.676502
39 1 0.515583 0.735546 0.599661
63 1 0.617512 0.383787 0.883142
27 1 0.947132 0.969524 0.0432736
22 1 0.861629 0.781547 0.681607
59 1 0.741964 0.79332 0.214261
19 1 0.641009 0.944096 0.640268
ITEM: TIMESTEP
300
ITEM: NUMBER OF ATOMS
64
ITEM: BOX BOUNDS pp pp pp
-1.3564466829755517e-01 1.0997044668297814e+01
-1.3564466829755517e-01 1.0997044668297814e+01
-1.3564466829755517e-01 1.0997044668297814e+01
ITEM: ATOMS id type xs ys zs
52 1 0.960953 0.0443252 0.39704
53 1 0.419082 0.343217 0.332062
32 1 0.46337 0.0953866 0.388792
26 1 0.215438 0.113638 0.316489
17 1 0.29993 0.133663 0.0688731
54 1 0.215447 0.339114 0.307123
40 1 0.105236 0.627624 0.572249
24 1 0.189444 0.326989 0.0878073
48 1 0.0266304 0.0710921 0.569805
7 1 0.866717 0.244055 0.992282
10 1 0.466078 0.903226 0.995233
49 1 0.769808 0.403817 0.256951
55 1 0.55478 0.305018 0.11311
4 1 0.863662 0.512512 0.453044
28 1 0.806472 0.021908 0.243753
42 1 0.835302 0.43266 0.853222
14 1 0.950375 0.287426 0.44333
30 1 0.730407 0.179761 0.384244
51 1 0.0643631 0.611232 0.354909
61 1 0.998932 0.188828 0.174588
25 1 0.149368 0.709253 0.130433
43 1 0.200209 0.901598 0.309248
64 1 0.559371 0.926104 0.446837
29 1 0.48937 0.52823 0.976698
44 1 0.264523 0.693972 0.283136
57 1 0.299371 0.521099 0.132171
8 1 0.244238 0.911503 0.0944346
41 1 0.271721 0.07996 0.524445
2 1 0.521214 0.489496 0.228797
38 1 0.942068 0.670344 0.137736
50 1 0.67025 0.664173 0.431367
3 1 0.793522 0.876314 0.497668
60 1 0.0305169 0.814079 0.465075
9 1 0.616628 0.954623 0.165512
35 1 0.849023 0.784283 0.943957
45 1 0.0728453 0.43449 0.640333
31 1 0.356606 0.627834 0.450423
21 1 0.52658 0.262869 0.681808
56 1 0.0401785 0.32517 0.871963
36 1 0.260051 0.369245 0.711679
20 1 0.178694 0.126043 0.718065
6 1 0.206091 0.536104 0.865969
5 1 0.854514 0.985203 0.672976
34 1 0.318972 0.213784 0.853006
1 1 0.868682 0.364109 0.631615
18 1 0.737903 0.152352 0.671488
13 1 0.571918 0.251548 0.46859
15 1 0.560166 0.168374 0.940003
11 1 0.949535 0.128716 0.837366
16 1 0.764025 0.578404 0.640283
23 1 0.362402 0.876318 0.425868
12 1 0.0141393 0.572476 0.968986
62 1 0.102162 0.0122936 0.936688
58 1 0.0973814 0.811114 0.790901
46 1 0.408659 0.554095 0.783668
47 1 0.619568 0.439416 0.665456
37 1 0.235189 0.749171 0.93249
33 1 0.263955 0.719513 0.690562
39 1 0.511719 0.700042 0.550781
63 1 0.622289 0.375053 0.888168
27 1 0.935031 0.969917 0.0555179
22 1 0.887686 0.728225 0.741262
59 1 0.766246 0.748187 0.236748
19 1 0.63522 0.968327 0.622806
ITEM: TIMESTEP
350
ITEM: NUMBER OF ATOMS
64
ITEM: BOX BOUNDS pp pp pp
-1.3199891505895156e-01 1.0993398915059217e+01
-1.3199891505895156e-01 1.0993398915059217e+01
-1.3199891505895156e-01 1.0993398915059217e+01
ITEM: ATOMS id type xs ys zs
52 1 0.940607 0.0630523 0.371203
53 1 0.411005 0.293123 0.322384
32 1 0.462129 0.0881993 0.367241
26 1 0.25565 0.159452 0.361621
17 1 0.241016 0.117361 0.0504313
54 1 0.166275 0.371739 0.308073
40 1 0.103281 0.691741 0.575935
24 1 0.187309 0.314715 0.088586
48 1 0.986239 0.0683634 0.591092
7 1 0.827753 0.236835 0.0074167
10 1 0.445243 0.919243 0.020155
49 1 0.713957 0.387864 0.270664
55 1 0.596495 0.327798 0.113269
4 1 0.883568 0.504113 0.437763
28 1 0.792581 0.0597454 0.20143
42 1 0.829365 0.429442 0.842751
14 1 0.938962 0.293276 0.445079
30 1 0.772851 0.19558 0.376581
51 1 0.0733962 0.644571 0.328414
61 1 0.00667475 0.232069 0.134473
25 1 0.110306 0.712588 0.0555152
43 1 0.168839 0.91377 0.292383
64 1 0.610509 0.893299 0.412881
29 1 0.51075 0.508173 0.01526
44 1 0.298712 0.682811 0.231461
57 1 0.267795 0.508723 0.111698
8 1 0.245642 0.908484 0.0764801
41 1 0.33928 0.034532 0.546872
2 1 0.528999 0.50023 0.236439
38 1 0.912385 0.678855 0.137886
50 1 0.729467 0.662027 0.444949
3 1 0.791516 0.887767 0.503103
60 1 0.0375355 0.843149 0.433759
9 1 0.661394 0.898737 0.140291
35 1 0.829484 0.80882 0.00364262
45 1 0.0588723 0.457847 0.614748
31 1 0.344152 0.614559 0.436302
21 1 0.493949 0.187678 0.719253
56 1 0.0382629 0.342723 0.887092
36 1 0.275708 0.367454 0.713918
20 1 0.157695 0.129935 0.6944
6 1 0.204019 0.52108 0.87278
5 1 0.856952 0.962102 0.753021
34 1 0.328272 0.166292 0.863834
1 1 0.884027 0.32448 0.665694
18 1 0.724496 0.210052 0.663391
13 1 0.554545 0.262108 0.495118
15 1 0.552311 0.161847 0.95225
11 1 0.966872 0.138522 0.825147
16 1 0.784681 0.60343 0.645329
23 1 0.377807 0.826402 0.397525
12 1 0.999494 0.543532 0.913791
62 1 0.0932971 0.998223 0.948084
58 1 0.0630443 0.888169 0.770792
46 1 0.420255 0.506103 0.787024
47 1 0.607501 0.423082 0.685873
37 1 0.249994 0.765304 0.882916
33 1 0.30206 0.714649 0.675179
39 1 0.508243 0.700073 0.584755
63 1 0.632983 0.364766 0.891622
27 1 0.930089 0.987186 0.0610337
22 1 0.946518 0.708392 0.809785
59 1 0.74663 0.770973 0.270349
19 1 0.652526 0.971712 0.679708
ITEM: TIMESTEP
400
ITEM: NUMBER OF ATOMS
64
ITEM: BOX BOUNDS pp pp pp
-1.3021202320967973e-01 1.0991612023209957e+01
-1.3021202320967973e-01 1.0991612023209957e+01
-1.3021202320967973e-01 1.0991612023209957e+01
ITEM: ATOMS id type xs ys zs
52 1 0.961724 0.0881404 0.382942
53 1 0.441094 0.297685 0.300508
32 1 0.489563 0.0562033 0.352039
26 1 0.257938 0.150123 0.417996
17 1 0.228475 0.122828 0.0495681
54 1 0.118083 0.405215 0.321719
40 1 0.115514 0.749027 0.580077
24 1 0.18933 0.324235 0.0678493
48 1 0.963198 0.0769012 0.608059
7 1 0.791017 0.226117 0.996409
10 1 0.464359 0.961053 0.0435762
49 1 0.676977 0.402848 0.324371
55 1 0.61664 0.299592 0.109619
4 1 0.913413 0.498956 0.413747
28 1 0.734744 0.117589 0.171644
42 1 0.803988 0.442166 0.841252
14 1 0.97327 0.301266 0.458252
30 1 0.75441 0.201544 0.370099
51 1 0.0771388 0.620833 0.299001
61 1 0.974997 0.243841 0.117619
25 1 0.103513 0.698895 0.976692
43 1 0.178136 0.96447 0.282456
64 1 0.577643 0.888227 0.396392
29 1 0.489459 0.491232 0.0361085
44 1 0.303899 0.683485 0.202188
57 1 0.267108 0.520972 0.0720925
8 1 0.233995 0.845836 0.0842684
41 1 0.37158 0.00497491 0.567111
2 1 0.502299 0.509919 0.267279
38 1 0.916115 0.684194 0.179981
50 1 0.803124 0.676609 0.482062
3 1 0.829304 0.894103 0.528379
60 1 0.0173998 0.877162 0.427153
9 1 0.635308 0.858917 0.0858751
35 1 0.811691 0.806689 0.99101
45 1 0.0611613 0.467403 0.594829
31 1 0.317768 0.605383 0.434244
21 1 0.506116 0.0884767 0.719851
56 1 0.0661558 0.320446 0.91789
36 1 0.229564 0.328187 0.735658
20 1 0.186015 0.131749 0.66485
6 1 0.226827 0.521969 0.868078
5 1 0.835286 0.92693 0.847827
34 1 0.320358 0.167449 0.873052
1 1 0.938326 0.30027 0.679518
18 1 0.671187 0.222522 0.659746
13 1 0.565919 0.283202 0.485925
15 1 0.519732 0.149767 0.964065
11 1 0.976717 0.159241 0.818938
16 1 0.822336 0.597639 0.682428
23 1 0.390153 0.815248 0.367682
12 1 0.99876 0.522292 0.8925
62 1 0.0941459 0.98209 0.914894
58 1 0.061961 0.911671 0.712608
46 1 0.455142 0.486095 0.814386
47 1 0.604904 0.42093 0.667676
37 1 0.272284 0.774855 0.854112
33 1 0.3089 0.690694 0.650544
39 1 0.528986 0.704666 0.615872
63 1 0.625449 0.338481 0.890769
27 1 0.901491 0.040106 0.0773916
22 1 0.949049 0.754978 0.843059
59 1 0.745118 0.772897 0.278866
19 1 0.665967 0.981436 0.685246
ITEM: TIMESTEP
450
ITEM: NUMBER OF ATOMS
64
ITEM: BOX BOUNDS pp pp pp
-1.3227040068641838e-01 1.0993670400686687e+01
-1.3227040068641838e-01 1.0993670400686687e+01
-1.3227040068641838e-01 1.0993670400686687e+01
ITEM: ATOMS id type xs ys zs
52 1 0.971451 0.118547 0.346155
53 1 0.456645 0.281149 0.274972
32 1 0.483758 0.0973379 0.365398
26 1 0.268959 0.127595 0.450973
17 1 0.245656 0.0671076 0.0836965
54 1 0.102963 0.389627 0.308597
40 1 0.148432 0.767344 0.547585
24 1 0.207642 0.342636 0.144702
48 1 0.937891 0.0927376 0.625791
7 1 0.779742 0.218564 0.931227
10 1 0.427788 0.986227 0.0846224
49 1 0.664571 0.460999 0.36136
55 1 0.577973 0.317324 0.127124
4 1 0.922783 0.525041 0.38741
28 1 0.657837 0.0992156 0.191878
42 1 0.78398 0.423163 0.833831
14 1 0.0164872 0.288527 0.478192
30 1 0.758646 0.170824 0.383851
51 1 0.113524 0.620209 0.278352
61 1 0.943564 0.269936 0.121968
25 1 0.108612 0.68155 0.939898
43 1 0.184023 0.0278337 0.304343
64 1 0.585995 0.836698 0.436348
29 1 0.479852 0.462701 0.066009
44 1 0.295102 0.67513 0.221972
57 1 0.280028 0.549061 0.044789
8 1 0.246445 0.820972 0.0425012
41 1 0.394862 0.977495 0.532681
2 1 0.431689 0.536474 0.29799
38 1 0.951961 0.718897 0.202199
50 1 0.852948 0.698873 0.525285
3 1 0.85282 0.901721 0.540549
60 1 0.049985 0.877365 0.389485
9 1 0.602446 0.826825 0.0810892
35 1 0.808332 0.744005 0.0563422
45 1 0.0841637 0.47822 0.589408
31 1 0.288541 0.622423 0.426712
21 1 0.509196 0.00341326 0.721716
56 1 0.0530378 0.305172 0.934775
36 1 0.171753 0.319393 0.758581
20 1 0.228444 0.097706 0.651984
6 1 0.27012 0.550069 0.795692
5 1 0.79027 0.995656 0.896327
34 1 0.309319 0.172359 0.85185
1 1 0.943777 0.31272 0.678423
18 1 0.63795 0.178185 0.678193
13 1 0.575326 0.277037 0.465991
15 1 0.497547 0.169652 0.960253
11 1 0.954988 0.121015 0.854017
16 1 0.878953 0.612843 0.721846
23 1 0.357281 0.842344 0.345682
12 1 0.00390838 0.500716 0.859065
62 1 0.0883339 0.94579 0.885343
58 1 0.0809118 0.939612 0.667432
46 1 0.465901 0.465011 0.845906
47 1 0.609169 0.469651 0.638532
37 1 0.286604 0.775137 0.843234
33 1 0.310142 0.662888 0.63844
39 1 0.566215 0.696395 0.6138
63 1 0.595786 0.302739 0.841318
27 1 0.868624 0.057411 0.0777395
22 1 0.932857 0.79727 0.808135
59 1 0.733316 0.782158 0.270231
19 1 0.744399 0.00622179 0.688101
ITEM: TIMESTEP
500
ITEM: NUMBER OF ATOMS
64
ITEM: BOX BOUNDS pp pp pp
-1.4402112369121234e-01 1.1005421123691480e+01
-1.4402112369121234e-01 1.1005421123691480e+01
-1.4402112369121234e-01 1.1005421123691480e+01
ITEM: ATOMS id type xs ys zs
52 1 0.962933 0.123285 0.291295
53 1 0.382271 0.308733 0.282513
32 1 0.492163 0.10232 0.384019
26 1 0.295244 0.165097 0.457769
17 1 0.219005 0.0272732 0.0881914
54 1 0.0588319 0.378698 0.306656
40 1 0.174008 0.806188 0.510673
24 1 0.257972 0.345626 0.132341
48 1 0.918839 0.135176 0.608581
7 1 0.758252 0.212805 0.897482
10 1 0.460505 0.965262 0.137435
49 1 0.650486 0.525891 0.399929
55 1 0.615345 0.269613 0.100502
4 1 0.896918 0.561522 0.364459
28 1 0.6162 0.0510453 0.224434
42 1 0.78331 0.415861 0.807884
14 1 0.0558311 0.264884 0.49676
30 1 0.758163 0.135742 0.379444
51 1 0.113352 0.582146 0.291083
61 1 0.92313 0.280556 0.177465
25 1 0.117826 0.661881 0.905172
43 1 0.16164 0.0525809 0.293325
64 1 0.599842 0.793801 0.445302
29 1 0.449425 0.513609 0.0766719
44 1 0.319587 0.71671 0.174262
57 1 0.248863 0.53517 0.00719096
8 1 0.268967 0.846915 0.030328
41 1 0.470893 0.919028 0.526255
2 1 0.437598 0.507531 0.309949
38 1 0.960007 0.767753 0.234862
50 1 0.877231 0.68201 0.537584
3 1 0.918101 0.913018 0.498407
60 1 0.0542785 0.892718 0.355292
9 1 0.58812 0.806016 0.100047
35 1 0.77802 0.712735 0.0987358
45 1 0.0976532 0.48586 0.597325
31 1 0.264909 0.600514 0.427567
21 1 0.538789 0.943201 0.728387
56 1 0.0462075 0.288843 0.983448
36 1 0.152805 0.320413 0.744661
20 1 0.254329 0.0775393 0.672553
6 1 0.280433 0.524007 0.778751
5 1 0.728383 0.998716 0.943751
34 1 0.314248 0.16955 0.860688
1 1 0.924745 0.322303 0.698907
18 1 0.552935 0.127932 0.634974
13 1 0.613525 0.273742 0.490305
15 1 0.472183 0.164639 0.99342
11 1 0.965513 0.115038 0.868332
16 1 0.940968 0.650117 0.735732
23 1 0.33884 0.904135 0.320011
12 1 0.0111922 0.461759 0.827418
62 1 0.101968 0.901413 0.902466
58 1 0.0844939 0.941977 0.633293
46 1 0.486575 0.475855 0.84598
47 1 0.60515 0.480517 0.622816
37 1 0.303538 0.771186 0.804475
33 1 0.376787 0.695694 0.619805
39 1 0.561333 0.68667 0.617615
63 1 0.583706 0.297379 0.792654
27 1 0.829038 0.0941177 0.155459
22 1 0.90802 0.875652 0.795843
59 1 0.694865 0.808057 0.273774
19 1 0.755936 0.0228925 0.715189
ITEM: TIMESTEP
550
ITEM: NUMBER OF ATOMS
64
ITEM: BOX BOUNDS pp pp pp
-1.6456566526611827e-01 1.1025965665266405e+01
-1.6456566526611827e-01 1.1025965665266405e+01
-1.6456566526611827e-01 1.1025965665266405e+01
ITEM: ATOMS id type xs ys zs
52 1 0.979899 0.11756 0.3292
53 1 0.325597 0.308802 0.312744
32 1 0.48276 0.123695 0.414296
26 1 0.280318 0.197189 0.474199
17 1 0.181631 0.0775981 0.0418981
54 1 0.0172042 0.370326 0.343879
40 1 0.228302 0.842159 0.474957
24 1 0.274012 0.330928 0.0714661
48 1 0.89782 0.11861 0.569709
7 1 0.740593 0.184914 0.884692
10 1 0.450567 0.966033 0.129459
49 1 0.631532 0.564467 0.459303
55 1 0.660676 0.225479 0.0759507
4 1 0.870158 0.588306 0.329216
28 1 0.59846 0.0186705 0.286979
42 1 0.747581 0.450494 0.777541
14 1 0.095856 0.246356 0.507985
30 1 0.763822 0.109149 0.418198
51 1 0.101285 0.572777 0.283701
61 1 0.86928 0.31401 0.167968
25 1 0.148313 0.652531 0.860814
43 1 0.203103 0.110439 0.305014
64 1 0.622006 0.762007 0.442564
29 1 0.421778 0.554243 0.0804423
44 1 0.377374 0.726961 0.182413
57 1 0.211288 0.514427 0.976746
8 1 0.322907 0.851521 0.979358
41 1 0.51532 0.90626 0.520304
2 1 0.464435 0.50516 0.319325
38 1 0.930716 0.758465 0.227302
50 1 0.89777 0.709299 0.539212
3 1 0.903449 0.914429 0.50984
60 1 0.0685639 0.903446 0.32513
9 1 0.55708 0.76872 0.0744207
35 1 0.749179 0.668437 0.140403
45 1 0.110049 0.497954 0.618608
31 1 0.280341 0.566298 0.441637
21 1 0.581874 0.862299 0.761626
56 1 0.076961 0.279522 0.0162727
36 1 0.18566 0.289505 0.755406
20 1 0.271089 0.0748289 0.637568
6 1 0.275826 0.490628 0.769544
5 1 0.659374 0.981117 0.984855
34 1 0.292239 0.189118 0.893873
1 1 0.920932 0.320995 0.680239
18 1 0.480696 0.0921794 0.626323
13 1 0.677386 0.298935 0.464485
15 1 0.451543 0.126727 0.0345251
11 1 0.9808 0.111209 0.881664
16 1 0.988419 0.707491 0.721443
23 1 0.316374 0.931762 0.293913
12 1 0.0338918 0.437561 0.848487
62 1 0.0935189 0.885255 0.910195
58 1 0.07999 0.962954 0.653197
46 1 0.499634 0.511076 0.853558
47 1 0.608296 0.423326 0.626254
37 1 0.306735 0.772256 0.799997
33 1 0.335521 0.72484 0.576749
39 1 0.633099 0.685032 0.661338
63 1 0.549889 0.27011 0.759969
27 1 0.789024 0.0953992 0.150707
22 1 0.922249 0.932245 0.784663
59 1 0.714611 0.863601 0.253948
19 1 0.725574 0.040827 0.720223
ITEM: TIMESTEP
600
ITEM: NUMBER OF ATOMS
64
ITEM: BOX BOUNDS pp pp pp
-1.9032995618414716e-01 1.1051729956184436e+01
-1.9032995618414716e-01 1.1051729956184436e+01
-1.9032995618414716e-01 1.1051729956184436e+01
ITEM: ATOMS id type xs ys zs
52 1 0.00474774 0.123759 0.364278
53 1 0.310851 0.360531 0.28085
32 1 0.497581 0.19719 0.464186
26 1 0.291161 0.238438 0.50607
17 1 0.123921 0.0781511 0.00618111
54 1 0.953764 0.366812 0.368145
40 1 0.205572 0.912146 0.47637
24 1 0.319672 0.306725 0.086076
48 1 0.927499 0.119286 0.612514
7 1 0.749477 0.181695 0.847553
10 1 0.461473 0.933604 0.148388
49 1 0.624773 0.51463 0.473784
55 1 0.655534 0.239981 0.0282056
4 1 0.845379 0.594866 0.339997
28 1 0.553486 0.976657 0.3576
42 1 0.734411 0.468372 0.774291
14 1 0.053044 0.268462 0.550763
30 1 0.747145 0.0768221 0.424287
51 1 0.0909349 0.574437 0.308176
61 1 0.826206 0.291631 0.126256
25 1 0.1566 0.686113 0.815429
43 1 0.219628 0.163876 0.251535
64 1 0.67897 0.772242 0.40835
29 1 0.395859 0.557801 0.0542678
44 1 0.413894 0.742945 0.23218
57 1 0.208932 0.479124 0.989945
8 1 0.369983 0.85241 0.949915
41 1 0.498016 0.913408 0.540908
2 1 0.446786 0.513069 0.3155
38 1 0.936322 0.769028 0.223946
50 1 0.900075 0.694622 0.502052
3 1 0.87865 0.909328 0.501345
60 1 0.0596935 0.921999 0.31836
9 1 0.551165 0.725634 0.0152221
35 1 0.705528 0.628596 0.170916
45 1 0.11794 0.523072 0.647561
31 1 0.272567 0.538676 0.450429
21 1 0.626864 0.824982 0.82066
56 1 0.0402892 0.301069 0.050316
36 1 0.194608 0.271078 0.7257
20 1 0.260186 0.0758916 0.666032
6 1 0.308085 0.458902 0.76413
5 1 0.58812 0.967753 0.00804589
34 1 0.310788 0.180402 0.886379
1 1 0.919718 0.34208 0.681983
18 1 0.466182 0.0621559 0.664444
13 1 0.708162 0.307909 0.422143
15 1 0.476654 0.164525 0.0356098
11 1 0.956989 0.142776 0.906239
16 1 0.0231986 0.76809 0.682004
23 1 0.298362 0.937992 0.248421
12 1 0.0484001 0.393655 0.852154
62 1 0.112266 0.88775 0.92801
58 1 0.0799996 0.976511 0.63991
46 1 0.495231 0.51767 0.853398
47 1 0.58275 0.368571 0.63321
37 1 0.361617 0.781189 0.755858
33 1 0.329952 0.732702 0.558959
39 1 0.70928 0.636253 0.678386
63 1 0.534356 0.229485 0.765002
27 1 0.855184 0.0482962 0.149763
22 1 0.930617 0.943933 0.78397
59 1 0.763906 0.8755 0.236845
19 1 0.663225 0.0456585 0.688492
ITEM: TIMESTEP
650
ITEM: NUMBER OF ATOMS
64
ITEM: BOX BOUNDS pp pp pp
-2.0934413182019806e-01 1.1070744131820490e+01
-2.0934413182019806e-01 1.1070744131820490e+01
-2.0934413182019806e-01 1.1070744131820490e+01
ITEM: ATOMS id type xs ys zs
52 1 0.024932 0.17063 0.368851
53 1 0.279288 0.403354 0.299716
32 1 0.527245 0.243504 0.475923
26 1 0.277904 0.293768 0.504758
17 1 0.106025 0.090302 0.00995068