LAMMPS data file via write_data, version 23 Jun 2022, timestep = 1000

64 atoms
1 atom types

0.03780621484123614 10.82359378515832 xlo xhi
0.03780621484123614 10.82359378515832 ylo yhi
0.03780621484123614 10.82359378515832 zlo zhi

Masses

1 28.0855

Atoms # atomic

18 1 4.937792364981802 0.35656871153271696 3.7699297920123587 0 0 0
7 1 2.6190731166022587 3.6553040565861807 2.4865361955730383 0 0 0
55 1 2.502890748598032 0.9106294099285286 4.501991459917962 0 0 0
20 1 4.371006447877051 3.7099419378306724 0.4805344318754555 0 1 0
59 1 0.3815880268673734 1.639393344056614 4.195864134861187 1 1 0
1 1 3.7646771565439527 3.8469254355471993 5.029730007241212 0 0 0
35 1 2.601149429930756 1.9086985633210578 1.0230185162772232 0 0 1
41 1 10.08884588162004 5.291845373860278 2.2151817336834165 -1 0 0
40 1 5.957348200489309 5.412565733327356 1.273549927697183 0 0 0
36 1 7.664914801264271 3.3342512372923063 5.213044264828761 0 0 0
16 1 6.802424005963673 2.421949141267925 1.6501556381305358 0 0 0
26 1 10.779431623680438 3.2725660767584697 2.275956948622157 0 0 0
28 1 9.206152212695397 1.5167509049538606 2.7133235525290913 0 0 0
60 1 5.5189219398298555 2.747689102183417 4.040587401804313 0 1 0
54 1 6.718902850608914 0.04476420462347619 0.5215248450791308 0 1 0
56 1 9.423901941404328 4.9711319687964926 4.562400870465755 0 0 0
11 1 10.091125973772396 0.5834845666514205 0.7596893106565494 0 0 1
38 1 3.2354402452291393 8.565468128125493 0.7563442594080907 0 -1 0
44 1 0.6684788577256744 9.787987264291537 1.8559345054443401 1 -1 0
49 1 0.23385197403659777 7.554738667305028 2.5996980644106604 0 0 0
30 1 1.9561950347227968 5.948393927418195 2.6221980598462413 0 0 0
47 1 3.4767852502013965 6.494387028313261 1.2839639489688526 0 0 0
32 1 3.757688762885993 8.69897777476032 4.274123224320166 0 0 0
43 1 4.764823175522988 9.885503976026111 1.8543813616141414 0 0 1
42 1 7.432650904840908 5.929124282230694 5.020652039976795 0 0 0
58 1 5.962848998480691 8.22908039736374 3.3244639236675146 0 0 0
39 1 7.422981940641747 10.112114962307663 4.008515171871034 0 0 0
52 1 8.66086941905953 9.331197086437669 1.2554214068776601 0 -1 1
10 1 9.057957239295106 7.6225672028926725 3.9710001366200807 0 -1 0
9 1 5.646041429643284 5.970574322041739 3.5738920720714904 0 0 1
34 1 10.468479896816774 10.034774860196213 4.606576712398979 -1 0 0
37 1 8.323529106222221 5.715690588389042 0.626975336927164 0 0 1
24 1 7.3007819071300215 7.957076953865028 0.2693403085351939 0 0 1
53 1 1.0241017855466592 0.455929732744139 7.070477379387545 0 0 0
64 1 0.9602960204488812 5.364298916415968 5.9133844090500425 1 0 0
48 1 5.260734542146174 5.3616915631823625 6.8362183642849805 0 0 0
51 1 3.32732597202988 4.620611770924757 9.59195814992459 0 0 -1
21 1 1.066093622660721 5.257914963976679 9.544780014897414 0 0 -1
23 1 1.0930060770434487 2.8767779738879007 5.96928552012486 0 0 0
19 1 4.448539301230963 0.7059832926220637 8.484884212967776 0 0 0
17 1 3.4262975602351653 3.2659913919416432 7.2587490589799435 0 0 0
4 1 2.7047060603843605 0.9112036711429277 9.90918751250099 0 0 0
33 1 6.384917847741097 1.5016114362960182 9.628118904873821 0 1 0
13 1 8.526401566471788 1.0445086090978675 8.146336567846323 -1 0 0
3 1 10.182767184060314 2.50486525614732 7.872210838832835 -1 0 0
61 1 6.21797095339515 3.739726357706657 9.250984540998527 0 0 0
63 1 7.649204055755316 4.974575893689902 7.401773083805341 0 0 0
29 1 5.883139344403343 1.9531809870037846 6.538674593457278 0 0 0
46 1 9.462525795627 4.667336049110583 9.51909229898945 0 0 0
31 1 9.149132609536037 2.3981678436677583 10.345120322695502 0 1 0
50 1 7.9621533686160575 1.151007544585144 5.734955483700913 0 1 0
15 1 1.7852125305181066 7.559140759549375 10.001274189634616 0 0 -1
27 1 4.865511140308759 6.322384222350366 9.295455407744305 0 0 -1
12 1 4.1657957375301295 9.449401937690748 7.362235542264817 0 -1 0
5 1 0.9448667125018844 10.409044639801044 10.12089976184352 1 -1 0
45 1 2.0322833805004055 8.000913788159032 7.671235764023083 0 0 0
22 1 2.503482329879727 5.61557752671077 7.69608296189481 0 0 0
8 1 0.4560767781070664 7.909687204765265 5.582834760434067 1 0 0
25 1 9.378068633883254 6.565737483426559 7.96290065570777 0 0 0
62 1 10.79553555000657 8.939793453643496 8.747455309884485 -1 0 -1
14 1 6.096293794862392 8.197510301563671 8.859931294032164 0 0 -1
6 1 7.868092293886349 8.412250508103632 6.40148650332272 0 0 0
2 1 5.5100098235357855 7.429377564046401 6.434941224765936 0 0 0
57 1 9.296628022550916 9.914686206864701 7.20260102087064 0 0 0

Velocities

18 9.003143115201295 -10.440227099407434 -4.928198566617423
7 7.468556860977797 -3.1365314231252435 -11.853022096989
55 7.66371061031681 2.5068616297733204 -1.5445617051982397
20 1.8666483053877587 4.967059189957731 -9.671741590003752
59 -1.8586950056399023 -4.174523309015532 6.078211806590117
1 10.544456177697224 6.128660875053744 -0.940109053525032
35 4.003304718542291 -2.3011136330965836 1.258129986623488
41 -0.13412881689618916 5.109649362414079 -3.908729058561908
40 -2.571706505723979 10.96460488720301 8.471250757309125
36 -1.982728291269895 2.928327556130728 4.090284104249822
16 2.930541748957144 -2.861701338411183 1.6319144329317883
26 1.0528660348625734 16.535428461524543 -5.545059629010177
28 -2.656834468677533 -1.1449129111346015 -1.039677722322092
60 1.636281648162653 8.31868635572171 -10.401574610787309
54 -5.993561658886431 4.779549564583344 3.0906208839739624
56 -6.595013013091486 -5.4744991493531225 17.048169171235276
11 0.2563975374520237 -1.172403643081101 0.8406739009933168
38 2.422258896342589 0.21955517973359065 11.250798839701304
44 -3.9279942442882656 0.7699618352502243 -2.3583444162317715
49 3.3913227500505148 -0.26049755327306995 -0.7209691217219864
30 -4.966996122730895 -0.6260218758463271 1.7607150296565894
47 -8.07269233293781 -5.008655392148233 -3.4507143148214983
32 -7.0561312825760885 4.397818440310064 -8.75719041756934
43 -7.19154772783701 9.344619156006013 12.43370799656096
42 -1.367833963856523 -6.113594179935745 2.3592809622966278
58 3.092009659600839 2.5564149697294414 -0.5321648352186092
39 -5.211556264612959 -9.879882416096226 5.304046346368788
52 -5.934287663152386 0.8509174308578268 3.773805517151111
10 -13.483695971313256 -2.2419683391405587 -8.860584568327495
9 2.6446656275875973 -0.33215865526446076 -1.531720879251238
34 -5.041280995254675 -6.543952953890018 -1.2001539486493653
37 11.439836984893153 2.9372525928504896 3.3489836662643064
24 15.002894262138932 -0.31771608392811307 2.985684883943425
53 5.641847687781129 4.26674823100597 -4.978056984672193
64 -8.434417476213767 14.861565249422169 1.4597899095944318
48 7.029389454328629 -4.18838007868503 1.4127002608524433
51 -0.9026344046461857 6.415168470551552 6.357590722893033
21 0.009869619217989551 -18.92011080596603 -5.030686929142092
23 0.8759284315593472 -4.616493420645883 19.79023415250407
19 -2.0742763387763348 -3.265718607552587 20.14456406262508
17 -0.7465262986699258 3.4892416188043547 -6.293006311998883
4 -16.183642910925496 -3.377361801822413 1.2985379120106204
33 -13.13901861081286 10.403571123369554 -1.4434642156624589
13 0.12678112197758312 -5.502922510366746 -3.596311939748507
3 -17.200658830834673 -7.813018353923304 -19.058247799289276
61 -2.214729444666493 1.037191998226797 7.717796537069825
63 -1.7405699313473733 5.789517904835282 1.3000526827555428
29 -1.0670646560906458 1.5177144594681007 -9.10169927276254
46 11.051255290646722 0.786981989033089 3.704598871370919
31 6.06571969551996 -0.2680329876159741 -10.124462141540445
50 -5.517686805836371 5.1689353988194275 5.951625593930774
15 2.3853117118737353 12.657630193801069 0.7063282086087489
27 -2.9316541555757634 -9.01484450701281 -8.386780826863406
12 3.892449656598306 2.2994989977098403 -4.295720560360771
5 9.84811261768726 -13.543133496402811 -6.265496041723748
45 -1.2201197742480039 1.514604322195543 -3.580257441549195
22 -0.04263460331275669 0.7338081454527149 5.576738171587213
8 9.429180688764655 0.7859386122006724 10.184087822106939
25 11.802679722700152 -2.6506833718353007 6.131209340299014
62 -8.205852312622493 -12.601588052294524 -0.6323268192922088
14 -2.5326652385704005 -1.06164379869202 -16.515421940926224
6 -1.5453681848728296 -7.165247070274659 -0.8949661144203102
2 9.452866815753927 -10.445859373251283 2.7856489188705584
57 7.715916854187175 11.42191399049315 -2.806359578171121
