ITEM: TIMESTEP
0
ITEM: NUMBER OF ATOMS
64
ITEM: BOX BOUNDS pp pp pp
1.2214325541909421e-01 1.0739256744580505e+01
1.2214325541909421e-01 1.0739256744580505e+01
1.2214325541909421e-01 1.0739256744580505e+01
ITEM: ATOMS id type xs ys zs
38 1 0.240611 0.0575619 0.266426
18 1 0.143656 0.223185 0.128841
7 1 0.484739 0.30863 0.166244
41 1 0.261178 0.392643 0.215264
55 1 0.257856 0.255939 0.424023
53 1 0.0180144 0.17169 0.459052
40 1 0.596455 0.171902 0.0143229
36 1 0.775884 0.241304 0.325212
44 1 0.966894 0.132974 0.244445
16 1 0.735473 0.0362209 0.139936
26 1 0.915542 0.432729 0.0542134
64 1 0.73368 0.427332 0.16879
28 1 0.558573 0.14064 0.339113
48 1 0.511292 0.364984 0.449366
25 1 0.907963 0.372415 0.493053
62 1 0.0672148 0.558138 0.176128
14 1 0.437359 0.557035 0.0952321
49 1 0.124382 0.860577 0.28881
51 1 0.30563 0.721262 0.0306959
15 1 0.0775573 0.775038 0.0979009
20 1 0.457966 0.977477 0.181488
30 1 0.345767 0.740542 0.278233
21 1 0.0847503 0.582727 0.422934
42 1 0.342275 0.551607 0.409567
60 1 0.292352 0.901137 0.48071
58 1 0.593843 0.55105 0.311855
27 1 0.679668 0.593825 0.0243108
6 1 0.557857 0.781354 0.307021
54 1 0.692788 0.824792 0.0962602
39 1 0.855746 0.715215 0.207969
59 1 0.906428 0.903199 0.322416
56 1 0.80888 0.586163 0.422332
33 1 0.677885 0.920316 0.430934
1 1 0.399318 0.100997 0.503512
23 1 0.221718 0.409585 0.572685
13 1 0.0284603 0.40938 0.666603
12 1 0.259613 0.0572426 0.96935
19 1 0.266059 0.0995909 0.704947
3 1 0.137756 0.268112 0.807843
61 1 0.485549 0.107805 0.798908
2 1 0.341906 0.294825 0.957855
17 1 0.394787 0.349571 0.690415
63 1 0.474184 0.494073 0.856321
52 1 0.635706 0.113532 0.633788
29 1 0.708825 0.328605 0.577428
5 1 0.972318 0.235038 0.955146
4 1 0.759267 0.236297 0.831535
11 1 0.87187 0.00282967 0.942581
10 1 0.981673 0.101432 0.667277
9 1 0.762228 0.485375 0.840555
47 1 0.121359 0.897198 0.612329
57 1 0.440401 0.731437 0.569404
35 1 0.183448 0.516432 0.965916
34 1 0.0820103 0.930208 0.888814
45 1 0.133196 0.704288 0.799587
22 1 0.375328 0.69334 0.803887
32 1 0.450337 0.896487 0.957468
37 1 0.634808 0.521131 0.653191
8 1 0.956727 0.763711 0.508913
24 1 0.688364 0.754369 0.593701
46 1 0.935766 0.606487 0.735908
43 1 0.638981 0.785103 0.825611
31 1 0.791365 0.969077 0.715316
50 1 0.88275 0.763758 0.938009
ITEM: TIMESTEP
10
ITEM: NUMBER OF ATOMS
64
ITEM: BOX BOUNDS pp pp pp
1.2252186380900643e-01 1.0738878136190591e+01
1.2252186380900643e-01 1.0738878136190591e+01
1.2252186380900643e-01 1.0738878136190591e+01
ITEM: ATOMS id type xs ys zs
38 1 0.248417 0.0441969 0.254339
18 1 0.141543 0.214879 0.123616
7 1 0.488626 0.318547 0.174167
41 1 0.257116 0.403075 0.213744
55 1 0.268961 0.255112 0.411965
53 1 0.0102843 0.178381 0.459378
40 1 0.598097 0.173344 0.0248811
36 1 0.770094 0.248226 0.324223
44 1 0.978957 0.138196 0.242366
16 1 0.73813 0.0405246 0.143596
26 1 0.910201 0.435518 0.0652089
64 1 0.728846 0.414309 0.167909
28 1 0.562556 0.132335 0.342063
48 1 0.510101 0.357633 0.451309
25 1 0.901561 0.365375 0.490634
62 1 0.0653762 0.571321 0.177442
14 1 0.439237 0.565225 0.0863554
49 1 0.132117 0.863623 0.284307
51 1 0.296575 0.721363 0.0342705
15 1 0.0637248 0.77002 0.101225
20 1 0.453021 0.974231 0.188583
30 1 0.346748 0.743292 0.270572
21 1 0.0940055 0.582456 0.417807
42 1 0.342786 0.561734 0.407697
60 1 0.302417 0.910365 0.472099
58 1 0.596974 0.551021 0.317414
27 1 0.683731 0.595818 0.0209368
6 1 0.560019 0.78466 0.303543
54 1 0.692323 0.825941 0.10278
39 1 0.848683 0.724703 0.213623
59 1 0.897195 0.915299 0.323812
56 1 0.807735 0.589683 0.420026
33 1 0.677272 0.91927 0.438387
1 1 0.402042 0.103933 0.502535
23 1 0.230153 0.411329 0.571394
13 1 0.0364264 0.411481 0.669418
12 1 0.249044 0.0544297 0.969775
19 1 0.272459 0.107009 0.712609
3 1 0.13841 0.264816 0.807488
61 1 0.482153 0.109511 0.803769
2 1 0.347396 0.303253 0.963824
17 1 0.388434 0.34285 0.684386
63 1 0.470314 0.485077 0.856643
52 1 0.634857 0.111603 0.633103
29 1 0.707038 0.311839 0.576472
5 1 0.970293 0.225504 0.960008
4 1 0.7635 0.235283 0.84504
11 1 0.873244 0.00360309 0.945989
10 1 0.989398 0.0895246 0.65967
9 1 0.755186 0.484117 0.842798
47 1 0.127831 0.90654 0.603874
57 1 0.446252 0.732073 0.569195
35 1 0.183749 0.501833 0.971113
34 1 0.0744766 0.912609 0.874341
45 1 0.137979 0.703756 0.795472
22 1 0.379181 0.6914 0.79408
32 1 0.441293 0.88864 0.949389
37 1 0.64098 0.523753 0.665601
8 1 0.957278 0.766495 0.504597
24 1 0.687736 0.759987 0.603828
46 1 0.926135 0.603368 0.739305
43 1 0.639289 0.786682 0.834204
31 1 0.785101 0.971772 0.71331
50 1 0.881167 0.765169 0.924388
ITEM: TIMESTEP
20
ITEM: NUMBER OF ATOMS
64
ITEM: BOX BOUNDS pp pp pp
1.2345664316281457e-01 1.0737943356836784e+01
1.2345664316281457e-01 1.0737943356836784e+01
1.2345664316281457e-01 1.0737943356836784e+01
ITEM: ATOMS id type xs ys zs
38 1 0.256815 0.03419 0.241229
18 1 0.141516 0.206308 0.115658
7 1 0.493005 0.328084 0.181705
41 1 0.253023 0.413556 0.212407
55 1 0.277084 0.254297 0.398139
53 1 0.00561366 0.184794 0.458776
40 1 0.599127 0.175727 0.0318771
36 1 0.764192 0.254495 0.321843
44 1 0.986458 0.141076 0.242174
16 1 0.742232 0.0462862 0.147162
26 1 0.909108 0.437616 0.0732301
64 1 0.718751 0.401551 0.170502
28 1 0.567776 0.123788 0.343348
48 1 0.509249 0.351336 0.453598
25 1 0.894462 0.361563 0.487728
62 1 0.063615 0.578591 0.180783
14 1 0.443762 0.570742 0.0775993
49 1 0.140355 0.866246 0.282352
51 1 0.286683 0.723276 0.0375187
15 1 0.0482723 0.767648 0.100685
20 1 0.450145 0.970568 0.19501
30 1 0.3456 0.746513 0.261642
21 1 0.103607 0.582563 0.41147
42 1 0.342533 0.571916 0.407555
60 1 0.313472 0.916298 0.462569
58 1 0.600597 0.550366 0.323459
27 1 0.686361 0.598999 0.0188291
6 1 0.563653 0.788453 0.298331
54 1 0.688575 0.82588 0.108032
39 1 0.843483 0.731654 0.22138
59 1 0.887721 0.928357 0.326706
56 1 0.807608 0.59419 0.417118
33 1 0.678072 0.920756 0.445811
1 1 0.406582 0.107259 0.504247
23 1 0.235767 0.416722 0.565783
13 1 0.0426561 0.415291 0.672793
12 1 0.239106 0.0514575 0.969364
19 1 0.278627 0.113436 0.719809
3 1 0.138334 0.261584 0.807761
61 1 0.479313 0.1117 0.811124
2 1 0.352035 0.312062 0.969255
17 1 0.38728 0.333774 0.682172
63 1 0.465589 0.475983 0.855656
52 1 0.632311 0.109062 0.631854
29 1 0.702958 0.29676 0.576053
5 1 0.967349 0.217123 0.965774
4 1 0.76688 0.235182 0.859397
11 1 0.874062 0.00571652 0.949072
10 1 0.997816 0.0753047 0.653649
9 1 0.750898 0.479752 0.846561
47 1 0.131806 0.915821 0.598967
57 1 0.451166 0.732726 0.56909
35 1 0.184686 0.487199 0.976768
34 1 0.068243 0.895578 0.860553
45 1 0.143722 0.702502 0.791077
22 1 0.38311 0.690707 0.783499
32 1 0.432085 0.88109 0.940751
37 1 0.645125 0.527081 0.675429
8 1 0.95899 0.767507 0.499888
24 1 0.686289 0.764478 0.614685
46 1 0.91752 0.600206 0.743617
43 1 0.639564 0.788869 0.844321
31 1 0.780413 0.973104 0.712845
50 1 0.879426 0.7662 0.909853
ITEM: TIMESTEP
30
ITEM: NUMBER OF ATOMS
64
ITEM: BOX BOUNDS pp pp pp
1.2450270180107115e-01 1.0736897298198524e+01
1.2450270180107115e-01 1.0736897298198524e+01
1.2450270180107115e-01 1.0736897298198524e+01
ITEM: ATOMS id type xs ys zs
38 1 0.263031 0.0310441 0.226807
18 1 0.14545 0.198771 0.104827
7 1 0.497464 0.337289 0.188905
41 1 0.248502 0.423648 0.210743
55 1 0.283297 0.254552 0.382937
53 1 0.00428093 0.188776 0.457653
40 1 0.598954 0.179269 0.0355903
36 1 0.758601 0.257849 0.320377
44 1 0.988584 0.141198 0.244952
16 1 0.747721 0.0520796 0.151004
26 1 0.910115 0.438766 0.0793033
64 1 0.704908 0.391461 0.173184
28 1 0.574672 0.114457 0.342677
48 1 0.508653 0.34573 0.456124
25 1 0.886038 0.363 0.486097
62 1 0.0622105 0.578022 0.186873
14 1 0.450549 0.574545 0.0681069
49 1 0.146011 0.865938 0.282565
51 1 0.275951 0.726073 0.0399106
15 1 0.0305155 0.77064 0.0970396
20 1 0.453719 0.965441 0.200069
30 1 0.343611 0.749799 0.251591
21 1 0.113563 0.583805 0.404834
42 1 0.341956 0.582564 0.409301
60 1 0.324159 0.918156 0.453338
58 1 0.603996 0.549125 0.3301
27 1 0.68769 0.603554 0.0187951
6 1 0.567849 0.792627 0.292597
54 1 0.681903 0.825995 0.111089
39 1 0.840994 0.736182 0.231602
59 1 0.878545 0.942451 0.330811
56 1 0.809112 0.59939 0.413904
33 1 0.679768 0.924424 0.45289
1 1 0.413109 0.111657 0.508789
23 1 0.238395 0.425308 0.555463
13 1 0.0473735 0.420544 0.675426
12 1 0.229799 0.0470667 0.967456
19 1 0.284004 0.118697 0.725851
3 1 0.136173 0.259145 0.809568
61 1 0.479062 0.114181 0.8211
2 1 0.355928 0.320373 0.975161
17 1 0.390639 0.322604 0.683281
63 1 0.459875 0.468139 0.852495
52 1 0.625696 0.103222 0.631264
29 1 0.697723 0.287116 0.575275
5 1 0.964427 0.21089 0.972029
4 1 0.768722 0.236205 0.874755
11 1 0.874195 0.00806066 0.951567
10 1 0.00443319 0.0611704 0.649146
9 1 0.750615 0.470873 0.853927
47 1 0.136566 0.922053 0.595418
57 1 0.455409 0.733794 0.567825
35 1 0.185888 0.472128 0.983102
34 1 0.0624639 0.882017 0.847514
45 1 0.151194 0.698233 0.78565
22 1 0.386839 0.690535 0.773468
32 1 0.422487 0.87361 0.930917
37 1 0.646449 0.531372 0.680502
8 1 0.962589 0.767173 0.493777
24 1 0.683779 0.768 0.626718
46 1 0.910468 0.596548 0.748852
43 1 0.639854 0.791639 0.856538
31 1 0.778592 0.972808 0.714031
50 1 0.877107 0.767135 0.894433
ITEM: TIMESTEP
40
ITEM: NUMBER OF ATOMS
64
ITEM: BOX BOUNDS pp pp pp
1.2525995495338371e-01 1.0736140045046209e+01
1.2525995495338371e-01 1.0736140045046209e+01
1.2525995495338371e-01 1.0736140045046209e+01
ITEM: ATOMS id type xs ys zs
38 1 0.264711 0.0353504 0.211668
18 1 0.151597 0.193658 0.0940982
7 1 0.498008 0.344921 0.195722
41 1 0.243995 0.432392 0.208956
55 1 0.288375 0.255688 0.36766
53 1 0.00597129 0.190003 0.457521
40 1 0.597421 0.183523 0.0365999
36 1 0.754513 0.256279 0.322583
44 1 0.986964 0.139233 0.248825
16 1 0.753732 0.0568178 0.155005
26 1 0.91031 0.438348 0.0840251
64 1 0.693537 0.387899 0.171919
28 1 0.582762 0.104884 0.340306
48 1 0.508042 0.341067 0.458462
25 1 0.877346 0.369321 0.486229
62 1 0.0608879 0.572683 0.193091
14 1 0.457902 0.577416 0.057907
49 1 0.147796 0.862648 0.284791
51 1 0.265146 0.7283 0.0401185
15 1 0.0125007 0.776659 0.0924652
20 1 0.464799 0.959572 0.20354
30 1 0.342468 0.752004 0.242218
21 1 0.122457 0.58664 0.400131
42 1 0.342244 0.593542 0.412878
60 1 0.333115 0.91656 0.445953
58 1 0.606388 0.547363 0.336816
27 1 0.687771 0.608877 0.0204673
6 1 0.571107 0.795607 0.289756
54 1 0.675247 0.826914 0.11031
39 1 0.840886 0.739602 0.24254
59 1 0.870172 0.956293 0.335367
56 1 0.812367 0.603891 0.411441
33 1 0.681673 0.929211 0.459174
1 1 0.420283 0.116673 0.514765
23 1 0.239703 0.434772 0.543368
13 1 0.0508733 0.426439 0.676718
12 1 0.222375 0.0397421 0.963049
19 1 0.287454 0.12221 0.730141
3 1 0.131526 0.258367 0.812917
61 1 0.482432 0.116497 0.832935
2 1 0.359268 0.325852 0.982559
17 1 0.395462 0.312133 0.685197
63 1 0.454438 0.464019 0.846289
52 1 0.615163 0.0935636 0.632203
29 1 0.692698 0.284422 0.573692
5 1 0.963105 0.208267 0.978217
4 1 0.76822 0.238163 0.889674
11 1 0.873093 0.00899123 0.952998
10 1 0.00415734 0.0523275 0.647273
9 1 0.753594 0.458872 0.863819
47 1 0.14654 0.920513 0.590993
57 1 0.459162 0.735615 0.564117
35 1 0.186059 0.457683 0.989654
34 1 0.0576196 0.875014 0.835228
45 1 0.160313 0.690127 0.779328
22 1 0.389538 0.690093 0.766029
32 1 0.413065 0.866501 0.920032
37 1 0.645728 0.536391 0.681924
8 1 0.968323 0.765991 0.486118
24 1 0.68007 0.770606 0.639085
46 1 0.905555 0.591612 0.753932
43 1 0.640284 0.794934 0.870212
31 1 0.780399 0.971251 0.716692
50 1 0.873519 0.768107 0.880196
ITEM: TIMESTEP
50
ITEM: NUMBER OF ATOMS
64
ITEM: BOX BOUNDS pp pp pp
1.2543737441553482e-01 1.0735962625584062e+01
1.2543737441553482e-01 1.0735962625584062e+01
1.2543737441553482e-01 1.0735962625584062e+01
ITEM: ATOMS id type xs ys zs
38 1 0.264388 0.0429965 0.196344
18 1 0.157902 0.192269 0.0853676
7 1 0.490066 0.350378 0.203059
41 1 0.240505 0.439313 0.208091
55 1 0.29322 0.257293 0.352308
53 1 0.00953502 0.190312 0.45975
40 1 0.594591 0.188114 0.0363462
36 1 0.751803 0.251249 0.328182
44 1 0.983834 0.136052 0.251321
16 1 0.759646 0.0608121 0.158522
26 1 0.908479 0.43602 0.0874595
64 1 0.689966 0.39089 0.166349
28 1 0.591523 0.0955048 0.336942
48 1 0.506559 0.337758 0.460225
25 1 0.870199 0.378699 0.487655
62 1 0.0581802 0.566594 0.196679
14 1 0.464223 0.579862 0.0467887
49 1 0.146675 0.858214 0.288407
51 1 0.254076 0.729144 0.03706
15 1 0.995719 0.782656 0.0883957
20 1 0.477933 0.95595 0.205153
30 1 0.343059 0.752588 0.234368
21 1 0.129275 0.591697 0.398772
42 1 0.345082 0.605698 0.417784
60 1 0.340877 0.913118 0.440596
58 1 0.607594 0.545242 0.34363
27 1 0.687066 0.613718 0.0229351
6 1 0.573773 0.794291 0.293145
54 1 0.670862 0.828896 0.105136
39 1 0.842145 0.744433 0.252213
59 1 0.862577 0.969061 0.340064
56 1 0.816847 0.605957 0.411171
33 1 0.683302 0.934103 0.465487
1 1 0.426211 0.121445 0.519974
23 1 0.240312 0.443259 0.531748
13 1 0.0539803 0.432554 0.676555
12 1 0.217082 0.0278112 0.955013
19 1 0.288481 0.123586 0.73376
3 1 0.124647 0.259521 0.81732
61 1 0.488424 0.118297 0.845811
2 1 0.363961 0.327436 0.991867
17 1 0.400648 0.304385 0.68618
63 1 0.449656 0.464538 0.836991
52 1 0.603755 0.0818623 0.635441
29 1 0.687913 0.285779 0.572356
5 1 0.963957 0.209486 0.984315
4 1 0.765523 0.23958 0.90371
11 1 0.870691 0.00791882 0.953235
10 1 0.997525 0.0478341 0.647572
9 1 0.75828 0.447573 0.874008
47 1 0.161171 0.91241 0.585605
57 1 0.46278 0.738467 0.557635
35 1 0.18313 0.444323 0.995248
34 1 0.0550084 0.87384 0.822288
45 1 0.169545 0.679447 0.772748
22 1 0.391351 0.688523 0.761203
32 1 0.403741 0.859817 0.908287
37 1 0.644882 0.541214 0.683028
8 1 0.976616 0.764258 0.476685
24 1 0.674964 0.772837 0.651627
46 1 0.902323 0.584141 0.758315
43 1 0.640266 0.798992 0.885082
31 1 0.78532 0.969477 0.720302
50 1 0.868603 0.769424 0.86828
ITEM: TIMESTEP
60
ITEM: NUMBER OF ATOMS
64
ITEM: BOX BOUNDS pp pp pp
1.2486036307646753e-01 1.0736539636923133e+01
1.2486036307646753e-01 1.0736539636923133e+01
1.2486036307646753e-01 1.0736539636923133e+01
ITEM: ATOMS id type xs ys zs
38 1 0.26551 0.0489283 0.183192
18 1 0.163273 0.195108 0.0781338
7 1 0.475423 0.354337 0.211064
41 1 0.239549 0.443746 0.209403
55 1 0.297955 0.259262 0.337183
53 1 0.0137919 0.191095 0.464392
40 1 0.590314 0.192923 0.0371142
36 1 0.74998 0.24637 0.335326
44 1 0.980987 0.132966 0.25146
16 1 0.764756 0.0646618 0.159854
26 1 0.905192 0.431988 0.0893654
64 1 0.692577 0.397488 0.159461
28 1 0.599366 0.0877694 0.333991
48 1 0.503387 0.336678 0.461063
25 1 0.866079 0.389319 0.489777
62 1 0.0530389 0.562038 0.19689
14 1 0.467568 0.581825 0.0352418
49 1 0.144031 0.85422 0.292387
51 1 0.243102 0.728405 0.0309323
15 1 0.981615 0.787207 0.0851365
20 1 0.487437 0.95662 0.203607
30 1 0.345175 0.751577 0.228141
21 1 0.133306 0.599085 0.400044
42 1 0.350708 0.618477 0.422613
60 1 0.347847 0.909354 0.436915
58 1 0.60789 0.542972 0.350307
27 1 0.686382 0.616278 0.0253542
6 1 0.577732 0.78655 0.302905
54 1 0.669087 0.832326 0.0990927
39 1 0.84394 0.75229 0.259141
59 1 0.856669 0.978763 0.345394
56 1 0.821434 0.604218 0.413992
33 1 0.684247 0.937574 0.473092
1 1 0.428325 0.125091 0.521808
23 1 0.240429 0.44903 0.522288
13 1 0.0572803 0.438648 0.675234
12 1 0.213577 0.0117059 0.94395
19 1 0.286997 0.122732 0.738132
3 1 0.116651 0.262476 0.821688
61 1 0.494831 0.119258 0.85739
2 1 0.371751 0.326329 0.00140162
17 1 0.406125 0.300507 0.685384
63 1 0.445456 0.468888 0.826486
52 1 0.596058 0.0699412 0.642129
29 1 0.683827 0.287873 0.572462
5 1 0.966308 0.213555 0.990041
4 1 0.761991 0.23762 0.915799
11 1 0.867527 0.00555027 0.952399
10 1 0.989857 0.0439336 0.648252
9 1 0.76346 0.442105 0.882614
47 1 0.175008 0.902181 0.581123
57 1 0.466678 0.742601 0.550114
35 1 0.176073 0.432438 0.998001
34 1 0.0556983 0.876511 0.808404
45 1 0.175827 0.668239 0.766685
22 1 0.393473 0.685129 0.757541
32 1 0.394995 0.854352 0.896894
37 1 0.645095 0.544663 0.685708
8 1 0.987124 0.762572 0.466057
24 1 0.668771 0.775028 0.663898
46 1 0.899765 0.574255 0.761931
43 1 0.638499 0.803812 0.898608
31 1 0.791762 0.968459 0.724244
50 1 0.86366 0.771013 0.859262
ITEM: TIMESTEP
70
ITEM: NUMBER OF ATOMS
64
ITEM: BOX BOUNDS pp pp pp
1.2337870254602912e-01 1.0738021297453571e+01
1.2337870254602912e-01 1.0738021297453571e+01
1.2337870254602912e-01 1.0738021297453571e+01
ITEM: ATOMS id type xs ys zs
38 1 0.26953 0.0508264 0.173142
18 1 0.168006 0.201321 0.0708592
7 1 0.459567 0.358866 0.219483
41 1 0.240698 0.446708 0.212788
55 1 0.301689 0.260553 0.322825
53 1 0.0178675 0.192546 0.470485
40 1 0.584215 0.198695 0.0416891
36 1 0.749043 0.244301 0.343271
44 1 0.979673 0.131177 0.249587
16 1 0.76906 0.0687883 0.157822
26 1 0.902152 0.4269 0.089875
64 1 0.695597 0.405004 0.154685
28 1 0.605515 0.0821682 0.332453
48 1 0.498547 0.338574 0.460816
25 1 0.86501 0.39945 0.492679
62 1 0.0458901 0.559565 0.194882
14 1 0.467093 0.583202 0.0232257
49 1 0.14116 0.851066 0.296092
51 1 0.2322 0.726589 0.022539
15 1 0.969759 0.79035 0.0816492
20 1 0.492921 0.95841 0.199183
30 1 0.348044 0.749521 0.222511
21 1 0.135899 0.607885 0.401538
42 1 0.356608 0.629443 0.425287
60 1 0.354902 0.906549 0.433826
58 1 0.607799 0.540223 0.356859
27 1 0.686183 0.616051 0.0277156
6 1 0.58347 0.774752 0.315931
54 1 0.669449 0.838104 0.0999154
39 1 0.845202 0.762759 0.264363
59 1 0.853115 0.984669 0.352398
56 1 0.82544 0.600092 0.41862
33 1 0.684333 0.938634 0.48297
1 1 0.426317 0.127225 0.51993
23 1 0.240688 0.451851 0.514811
13 1 0.0613664 0.444832 0.673056
12 1 0.211142 0.992972 0.931358
19 1 0.283444 0.12057 0.744151
3 1 0.108497 0.266902 0.824636
61 1 0.499844 0.118939 0.86517
2 1 0.382381 0.324508 0.0093414
17 1 0.411668 0.299507 0.682952
63 1 0.442064 0.475419 0.816414
52 1 0.592873 0.058097 0.652493
29 1 0.681169 0.289562 0.574204
5 1 0.968394 0.218978 0.995413
4 1 0.758931 0.231056 0.92559
11 1 0.864321 0.00296284 0.951223
10 1 0.984562 0.0396878 0.647846
9 1 0.768709 0.443325 0.889361
47 1 0.185347 0.891582 0.578402
57 1 0.47236 0.748978 0.544552
35 1 0.165992 0.421277 0.997862
34 1 0.0596263 0.880902 0.793404
45 1 0.177787 0.65716 0.761094
22 1 0.396723 0.679972 0.752741
32 1 0.38692 0.850675 0.886926
37 1 0.646703 0.546164 0.69031
8 1 0.998618 0.761994 0.455276
24 1 0.661794 0.777225 0.6762
46 1 0.896836 0.56356 0.764961
43 1 0.63367 0.808704 0.905603
31 1 0.797816 0.968319 0.728389
50 1 0.860027 0.772271 0.852259
ITEM: TIMESTEP
80
ITEM: NUMBER OF ATOMS
64
ITEM: BOX BOUNDS pp pp pp
1.2084144923855344e-01 1.0740558550761044e+01
1.2084144923855344e-01 1.0740558550761044e+01
1.2084144923855344e-01 1.0740558550761044e+01
ITEM: ATOMS id type xs ys zs
38 1 0.275971 0.0490542 0.165841
18 1 0.17366 0.208303 0.0642174
7 1 0.44854 0.366855 0.226897
41 1 0.241314 0.450513 0.217072
55 1 0.300898 0.2574 0.311908
53 1 0.0211159 0.194479 0.476497
40 1 0.576591 0.205982 0.0513439
36 1 0.749373 0.246142 0.351975
44 1 0.980366 0.131322 0.246586
16 1 0.772881 0.0732615 0.152879
26 1 0.901348 0.421401 0.0893457
64 1 0.695531 0.41226 0.154204
28 1 0.609939 0.0783118 0.332961
48 1 0.492902 0.343621 0.460081
25 1 0.866961 0.405626 0.497165
62 1 0.03843 0.558878 0.191956
14 1 0.462666 0.584143 0.0110379
49 1 0.139868 0.849303 0.298432
51 1 0.22163 0.724258 0.0125864
15 1 0.959509 0.792573 0.0765866
20 1 0.494857 0.958075 0.193171
30 1 0.35089 0.747125 0.216594
21 1 0.139965 0.615075 0.400823
42 1 0.359817 0.635606 0.424198
60 1 0.36203 0.905936 0.430032
58 1 0.607922 0.536371 0.363187
27 1 0.685955 0.614333 0.0301462
6 1 0.590583 0.762533 0.32948
54 1 0.672116 0.84591 0.110586
39 1 0.844817 0.774188 0.269419
59 1 0.85194 0.987868 0.361098
56 1 0.8282 0.597599 0.422545
33 1 0.683759 0.937382 0.494407
1 1 0.422238 0.127274 0.515482
23 1 0.241591 0.452383 0.508667
13 1 0.0665398 0.451049 0.670313
12 1 0.209365 0.973469 0.919066
19 1 0.278812 0.118677 0.751687
3 1 0.101166 0.272164 0.824316
61 1 0.502729 0.117166 0.867973
2 1 0.394294 0.322901 0.014326
17 1 0.416588 0.299696 0.679465
63 1 0.440505 0.481211 0.807675
52 1 0.591902 0.0475104 0.665338
29 1 0.680214 0.291036 0.57708
5 1 0.96837 0.224284 0.000577643
4 1 0.756959 0.221551 0.932675
11 1 0.861732 0.00029073 0.950783
10 1 0.982878 0.0364686 0.644869
9 1 0.772919 0.447322 0.895436
47 1 0.191694 0.880708 0.577413
57 1 0.48128 0.757834 0.54356
35 1 0.154795 0.411973 0.996319
34 1 0.0658333 0.884598 0.777797
45 1 0.175805 0.646669 0.755804
22 1 0.400106 0.675401 0.745285
32 1 0.38023 0.847988 0.878865
37 1 0.649774 0.545752 0.69647
8 1 0.00766261 0.764269 0.446658
24 1 0.654405 0.778904 0.688344
46 1 0.894051 0.55468 0.766497
43 1 0.62513 0.812592 0.904286
31 1 0.80154 0.968931 0.732707
50 1 0.858777 0.772485 0.846906
ITEM: TIMESTEP
90
ITEM: NUMBER OF ATOMS
64
ITEM: BOX BOUNDS pp pp pp
1.1712458570341688e-01 1.0744275414296187e+01
1.1712458570341688e-01 1.0744275414296187e+01
1.1712458570341688e-01 1.0744275414296187e+01
ITEM: ATOMS id type xs ys zs
38 1 0.283018 0.0455747 0.160618
18 1 0.181969 0.211834 0.0601857
7 1 0.446166 0.37985 0.232366
41 1 0.238808 0.456417 0.221184
55 1 0.293146 0.246777 0.305644
53 1 0.0231573 0.196764 0.481288
40 1 0.570141 0.213423 0.064287
36 1 0.750853 0.251223 0.360961
44 1 0.982452 0.133128 0.243532
16 1 0.77625 0.078086 0.147092
26 1 0.902622 0.416652 0.0888823
64 1 0.692056 0.418618 0.158508
28 1 0.612987 0.0754004 0.335355
48 1 0.487496 0.350881 0.459564
25 1 0.871685 0.405264 0.503578
62 1 0.0324332 0.559618 0.18903
14 1 0.45545 0.585014 0.999664
49 1 0.142352 0.850151 0.297454
51 1 0.211687 0.721922 0.00167512
15 1 0.950249 0.79406 0.0697693
20 1 0.493081 0.955929 0.187275
30 1 0.353215 0.744969 0.21009
21 1 0.146841 0.617838 0.39675
42 1 0.36089 0.637281 0.420619
60 1 0.368269 0.90792 0.425021
58 1 0.608774 0.530571 0.369066
27 1 0.684292 0.613051 0.0326132
6 1 0.598907 0.751974 0.342026
54 1 0.676966 0.853354 0.124933
39 1 0.842748 0.784833 0.274441
59 1 0.852727 0.990436 0.370788
56 1 0.829201 0.599931 0.424105
33 1 0.683173 0.934681 0.505403
1 1 0.418092 0.125581 0.509777
23 1 0.243175 0.451154 0.503755
13 1 0.0722457 0.456739 0.667318
12 1 0.207679 0.956057 0.909775
19 1 0.274377 0.118396 0.76011
3 1 0.0952825 0.276851 0.819306
61 1 0.503726 0.114897 0.867509
2 1 0.404431 0.322806 0.0159842
17 1 0.420302 0.299614 0.675477
63 1 0.441867 0.482419 0.80077
52 1 0.591049 0.0393337 0.67881
29 1 0.680346 0.292807 0.580433
5 1 0.966129 0.227086 0.005363
4 1 0.755209 0.211278 0.936872
11 1 0.860349 0.996918 0.951811
10 1 0.984242 0.0358137 0.638421
9 1 0.774361 0.449655 0.902585
47 1 0.195092 0.869409 0.577066
57 1 0.491814 0.767225 0.546236
35 1 0.144489 0.408704 0.994674
34 1 0.0720601 0.88503 0.762122
45 1 0.171833 0.637827 0.751084
22 1 0.40144 0.675251 0.734685
32 1 0.377217 0.844232 0.872269
37 1 0.653998 0.54369 0.703475
8 1 0.0103956 0.770112 0.442962
24 1 0.647534 0.778975 0.698512
46 1 0.892848 0.549999 0.764769
43 1 0.61386 0.8156 0.90203
31 1 0.802497 0.97057 0.736839
50 1 0.860223 0.771461 0.843326
ITEM: TIMESTEP
100
ITEM: NUMBER OF ATOMS
64
ITEM: BOX BOUNDS pp pp pp
1.1233184671523055e-01 1.0749068153284369e+01
1.1233184671523055e-01 1.0749068153284369e+01
1.1233184671523055e-01 1.0749068153284369e+01
ITEM: ATOMS id type xs ys zs
38 1 0.289358 0.0414059 0.156902
18 1 0.193518 0.211119 0.0590963
7 1 0.448852 0.395431 0.237374
41 1 0.233168 0.463208 0.224837
55 1 0.281192 0.231666 0.301295
53 1 0.024073 0.199793 0.484022
40 1 0.56924 0.218173 0.079459
36 1 0.75305 0.258064 0.369804
44 1 0.985055 0.136016 0.241216
16 1 0.778934 0.0835335 0.142372
26 1 0.903863 0.413952 0.0899179
64 1 0.686731 0.424013 0.167064
28 1 0.615085 0.0727591 0.338939
48 1 0.482271 0.359316 0.4599
25 1 0.878845 0.399904 0.511317
62 1 0.0284583 0.561527 0.186488
14 1 0.44665 0.586242 0.989943
49 1 0.149744 0.854132 0.292632
51 1 0.202191 0.71979 0.989849
15 1 0.941203 0.794597 0.0619882
20 1 0.488041 0.95327 0.182588
30 1 0.354822 0.743377 0.202907
21 1 0.153673 0.61751 0.389299
42 1 0.363088 0.637147 0.416629
60 1 0.372901 0.911801 0.419043
58 1 0.610823 0.522311 0.374185
27 1 0.679749 0.613437 0.0350255
6 1 0.609021 0.743177 0.353588
54 1 0.68352 0.859206 0.138615
39 1 0.839927 0.793913 0.278938
59 1 0.85527 0.994365 0.381707
56 1 0.828619 0.605929 0.423751
33 1 0.683042 0.931419 0.514765
1 1 0.414618 0.123299 0.50307
23 1 0.245501 0.447993 0.500174
13 1 0.0772761 0.460556 0.663391
12 1 0.204958 0.942218 0.904952
19 1 0.270646 0.120384 0.769364
3 1 0.0907688 0.279952 0.810081
61 1 0.502803 0.113786 0.867129
2 1 0.408615 0.326836 0.0141194
17 1 0.422609 0.297998 0.67093
63 1 0.446137 0.478835 0.795165
52 1 0.589753 0.0335606 0.691407
29 1 0.680612 0.295355 0.58417
5 1 0.964225 0.225591 0.00930413
4 1 0.751706 0.200919 0.938526
11 1 0.860513 0.991856 0.954196
10 1 0.98665 0.0378431 0.628891
9 1 0.773031 0.449275 0.910856
47 1 0.197809 0.856896 0.575102
57 1 0.501036 0.776054 0.548804
35 1 0.135729 0.412863 0.99347
34 1 0.075966 0.881148 0.746647
45 1 0.168141 0.632371 0.747486
22 1 0.399208 0.679298 0.721114
32 1 0.379877 0.837685 0.866519
37 1 0.659429 0.539967 0.711232
8 1 0.00743997 0.77784 0.444232
24 1 0.642948 0.77593 0.705376
46 1 0.893312 0.549348 0.759632
43 1 0.600565 0.81847 0.905981
31 1 0.802483 0.973635 0.740255
50 1 0.863886 0.769647 0.840863
ITEM: TIMESTEP
110
ITEM: NUMBER OF ATOMS
64
ITEM: BOX BOUNDS pp pp pp
1.0677194741696461e-01 1.0754628052582628e+01
1.0677194741696461e-01 1.0754628052582628e+01
1.0677194741696461e-01 1.0754628052582628e+01
ITEM: ATOMS id type xs ys zs
38 1 0.293158 0.0366784 0.154415
18 1 0.206723 0.209535 0.059572
7 1 0.451679 0.41045 0.241881
41 1 0.226379 0.468642 0.227673
55 1 0.26799 0.216311 0.297351
53 1 0.0243661 0.204189 0.483582
40 1 0.574053 0.219902 0.0960954
36 1 0.755317 0.265029 0.377709
44 1 0.987512 0.139393 0.240284
16 1 0.78056 0.0893401 0.140639
26 1 0.903451 0.413693 0.0929173
64 1 0.681783 0.428157 0.178202
28 1 0.616302 0.0702462 0.343099
48 1 0.476563 0.367497 0.461743
25 1 0.887622 0.392844 0.519097
62 1 0.026242 0.565002 0.184471
14 1 0.43726 0.587822 0.982812
49 1 0.160786 0.860197 0.285819
51 1 0.193222 0.717591 0.977652
15 1 0.932773 0.793638 0.0549061
20 1 0.482611 0.949633 0.179945
30 1 0.355657 0.742323 0.195226
21 1 0.156406 0.616978 0.379562
42 1 0.368821 0.637213 0.413309
60 1 0.375492 0.916096 0.412665
58 1 0.614575 0.513155 0.378249
27 1 0.671822 0.615814 0.037196
6 1 0.621083 0.735672 0.364007
54 1 0.689173 0.863943 0.149651
39 1 0.838478 0.800662 0.283176
59 1 0.85957 0.000498213 0.394012
56 1 0.827086 0.612689 0.422899
33 1 0.683615 0.928629 0.521872
1 1 0.412075 0.121775 0.495295
23 1 0.248505 0.443128 0.497979
13 1 0.0801116 0.460516 0.657338
12 1 0.201275 0.932279 0.904015
19 1 0.267892 0.124555 0.779305
3 1 0.0877232 0.281194 0.799405
61 1 0.499262 0.115293 0.869526
2 1 0.406693 0.335345 0.00938291
17 1 0.423301 0.293853 0.666047
63 1 0.452208 0.473983 0.790067
52 1 0.588668 0.0293356 0.701042
29 1 0.680496 0.298948 0.588391
5 1 0.965547 0.220095 0.0117816
4 1 0.745741 0.19141 0.937433
11 1 0.862296 0.984789 0.957035
10 1 0.98796 0.0410833 0.618234
9 1 0.770418 0.447299 0.918201
47 1 0.202146 0.842682 0.569037
57 1 0.506545 0.784395 0.547285
35 1 0.128411 0.420873 0.992828
34 1 0.0758858 0.873884 0.733382
45 1 0.166577 0.632594 0.745944
22 1 0.393098 0.68315 0.705764
32 1 0.386119 0.829568 0.862174
37 1 0.66544 0.534742 0.719404
8 1 0.00256611 0.785347 0.44782
24 1 0.642733 0.769225 0.711298
46 1 0.894235 0.551154 0.753235
43 1 0.587197 0.821087 0.917046
31 1 0.80367 0.978087 0.74236
50 1 0.869301 0.767784 0.83815
ITEM: TIMESTEP
120
ITEM: NUMBER OF ATOMS
64
ITEM: BOX BOUNDS pp pp pp
1.0073820991558780e-01 1.0760661790084004e+01
1.0073820991558780e-01 1.0760661790084004e+01
1.0073820991558780e-01 1.0760661790084004e+01
ITEM: ATOMS id type xs ys zs
38 1 0.292562 0.0312193 0.152545
18 1 0.219723 0.210504 0.0600808
7 1 0.452194 0.424118 0.244828
41 1 0.220793 0.470843 0.228705
55 1 0.254097 0.202109 0.293942
53 1 0.0251027 0.210199 0.479246
40 1 0.580865 0.221149 0.112978
36 1 0.75717 0.270954 0.384081
44 1 0.989642 0.142952 0.24083
16 1 0.781081 0.0950772 0.142466
26 1 0.901162 0.414504 0.0970713
64 1 0.678968 0.430739 0.189321
28 1 0.616657 0.0681723 0.347508
48 1 0.469467 0.374378 0.465186
25 1 0.896989 0.38643 0.526382
62 1 0.0248749 0.570426 0.182838
14 1 0.427628 0.589531 0.978274
49 1 0.173786 0.867033 0.278943
51 1 0.18481 0.714213 0.965882
15 1 0.925773 0.790163 0.0504284
20 1 0.480269 0.943727 0.179533
30 1 0.355747 0.741306 0.187079
21 1 0.154731 0.618289 0.369874
42 1 0.377355 0.638145 0.410497
60 1 0.37607 0.919498 0.40618
58 1 0.620594 0.50526 0.382257
27 1 0.660932 0.619458 0.0391678
6 1 0.634609 0.728851 0.372935
54 1 0.690906 0.868923 0.156619
39 1 0.840665 0.805171 0.288141
59 1 0.865461 0.00839688 0.407678
56 1 0.825435 0.618326 0.422386
33 1 0.68528 0.927386 0.527043
1 1 0.410468 0.122184 0.486066
23 1 0.251833 0.437672 0.496536
13 1 0.0806404 0.457317 0.649083
12 1 0.197926 0.92604 0.904517
19 1 0.266176 0.130171 0.790147
3 1 0.0860691 0.280595 0.789857
61 1 0.49318 0.119995 0.875359
2 1 0.402647 0.34598 0.00360657
17 1 0.422335 0.286686 0.661473
63 1 0.45869 0.47049 0.785351
52 1 0.588484 0.025359 0.707447
29 1 0.68001 0.303799 0.593379
5 1 0.970606 0.212871 0.0128253
4 1 0.737645 0.183319 0.933315
11 1 0.865101 0.977056 0.959453
10 1 0.987059 0.0434933 0.608389
9 1 0.767462 0.445151 0.923333
47 1 0.209084 0.826397 0.558719
57 1 0.508348 0.79241 0.542065
35 1 0.122362 0.428994 0.992598
34 1 0.0721827 0.864997 0.723149
45 1 0.166998 0.638064 0.746281
22 1 0.383956 0.684147 0.689309
32 1 0.389779 0.821779 0.858795
37 1 0.671204 0.528198 0.727702
8 1 0.99858 0.791909 0.451593
24 1 0.646178 0.759905 0.719431
46 1 0.894862 0.554033 0.74758
43 1 0.578274 0.822641 0.932892
31 1 0.806789 0.983598 0.743117
50 1 0.875898 0.766219 0.8336
ITEM: TIMESTEP
130
ITEM: NUMBER OF ATOMS
64
ITEM: BOX BOUNDS pp pp pp
9.4425008666863874e-02 1.0766974991332727e+01
9.4425008666863874e-02 1.0766974991332727e+01
9.4425008666863874e-02 1.0766974991332727e+01
ITEM: ATOMS id type xs ys zs
38 1 0.287893 0.0249708 0.149929
18 1 0.231195 0.215086 0.0595051
7 1 0.449485 0.435974 0.245579
41 1 0.217883 0.468514 0.22698
55 1 0.239681 0.190163 0.292146