10.823515447514989 0.0 0.0 0.0 10.823515447514989 0.0 0.0 0.0 10.823515447514989
10.98875156000059 0.0 0.0 0.0 10.98875156000059 0.0 0.0 0.0 10.98875156000059
10.873732777056116 0.0 0.0 0.0 10.873732777056116 0.0 0.0 0.0 10.873732777056116
10.888986310086906 0.0 0.0 0.0 10.888986310086906 0.0 0.0 0.0 10.888986310086906
10.859474626354238 0.0 0.0 0.0 10.859474626354238 0.0 0.0 0.0 10.859474626354238
11.026319966730444 0.0 0.0 0.0 11.026319966730444 0.0 0.0 0.0 11.026319966730444
10.684371475641678 0.0 0.0 0.0 10.684371475641678 0.0 0.0 0.0 10.684371475641678
11.073897760356301 0.0 0.0 0.0 11.073897760356301 0.0 0.0 0.0 11.073897760356301
10.947298992561427 0.0 0.0 0.0 10.947298992561427 0.0 0.0 0.0 10.947298992561427
11.077510453157732 0.0 0.0 0.0 11.077510453157732 0.0 0.0 0.0 11.077510453157732
10.918194775279188 0.0 0.0 0.0 10.918194775279188 0.0 0.0 0.0 10.918194775279188
10.884548630017655 0.0 0.0 0.0 10.884548630017655 0.0 0.0 0.0 10.884548630017655
10.961387277379423 0.0 0.0 0.0 10.961387277379423 0.0 0.0 0.0 10.961387277379423
11.285316226169332 0.0 0.0 0.0 11.285316226169332 0.0 0.0 0.0 11.285316226169332
10.949069619500577 0.0 0.0 0.0 10.949069619500577 0.0 0.0 0.0 10.949069619500577
10.79890288637726 0.0 0.0 0.0 10.79890288637726 0.0 0.0 0.0 10.79890288637726
10.944384284497815 0.0 0.0 0.0 10.944384284497815 0.0 0.0 0.0 10.944384284497815
10.91523455797566 0.0 0.0 0.0 10.91523455797566 0.0 0.0 0.0 10.91523455797566
10.942018862376473 0.0 0.0 0.0 10.942018862376473 0.0 0.0 0.0 10.942018862376473
10.684885306710989 0.0 0.0 0.0 10.684885306710989 0.0 0.0 0.0 10.684885306710989
10.722792386854186 0.0 0.0 0.0 10.722792386854186 0.0 0.0 0.0 10.722792386854186
10.992787594568705 0.0 0.0 0.0 10.992787594568705 0.0 0.0 0.0 10.992787594568705
10.92979063544584 0.0 0.0 0.0 10.92979063544584 0.0 0.0 0.0 10.92979063544584
10.94130288561357 0.0 0.0 0.0 10.94130288561357 0.0 0.0 0.0 10.94130288561357
10.795005496237735 0.0 0.0 0.0 10.795005496237735 0.0 0.0 0.0 10.795005496237735
11.015888825599378 0.0 0.0 0.0 11.015888825599378 0.0 0.0 0.0 11.015888825599378
10.77077023844956 0.0 0.0 0.0 10.77077023844956 0.0 0.0 0.0 10.77077023844956
10.832571786258752 0.0 0.0 0.0 10.832571786258752 0.0 0.0 0.0 10.832571786258752
10.895802641707709 0.0 0.0 0.0 10.895802641707709 0.0 0.0 0.0 10.895802641707709
10.811008873372764 0.0 0.0 0.0 10.811008873372764 0.0 0.0 0.0 10.811008873372764
10.836011967290258 0.0 0.0 0.0 10.836011967290258 0.0 0.0 0.0 10.836011967290258
10.768566215376765 0.0 0.0 0.0 10.768566215376765 0.0 0.0 0.0 10.768566215376765
10.81516608952159 0.0 0.0 0.0 10.81516608952159 0.0 0.0 0.0 10.81516608952159
10.774227882328942 0.0 0.0 0.0 10.774227882328942 0.0 0.0 0.0 10.774227882328942
11.013520757591996 0.0 0.0 0.0 11.013520757591996 0.0 0.0 0.0 11.013520757591996
10.973909197660692 0.0 0.0 0.0 10.973909197660692 0.0 0.0 0.0 10.973909197660692
10.992750022986911 0.0 0.0 0.0 10.992750022986911 0.0 0.0 0.0 10.992750022986911
10.94510872809605 0.0 0.0 0.0 10.94510872809605 0.0 0.0 0.0 10.94510872809605
10.913198813255123 0.0 0.0 0.0 10.913198813255123 0.0 0.0 0.0 10.913198813255123
10.959978607650784 0.0 0.0 0.0 10.959978607650784 0.0 0.0 0.0 10.959978607650784
10.942166502817605 0.0 0.0 0.0 10.942166502817605 0.0 0.0 0.0 10.942166502817605
10.791970664947826 0.0 0.0 0.0 10.791970664947826 0.0 0.0 0.0 10.791970664947826
10.911259378786509 0.0 0.0 0.0 10.911259378786509 0.0 0.0 0.0 10.911259378786509
10.77585139800417 0.0 0.0 0.0 10.77585139800417 0.0 0.0 0.0 10.77585139800417
11.069425683768506 0.0 0.0 0.0 11.069425683768506 0.0 0.0 0.0 11.069425683768506
11.036723061469464 0.0 0.0 0.0 11.036723061469464 0.0 0.0 0.0 11.036723061469464
10.871870602459921 0.0 0.0 0.0 10.871870602459921 0.0 0.0 0.0 10.871870602459921
10.990079794793559 0.0 0.0 0.0 10.990079794793559 0.0 0.0 0.0 10.990079794793559
11.25354019316212 0.0 0.0 0.0 11.25354019316212 0.0 0.0 0.0 11.25354019316212
10.866363455252586 0.0 0.0 0.0 10.866363455252586 0.0 0.0 0.0 10.866363455252586
10.970672749854401 0.0 0.0 0.0 10.970672749854401 0.0 0.0 0.0 10.970672749854401
10.747194335462993 0.0 0.0 0.0 10.747194335462993 0.0 0.0 0.0 10.747194335462993
10.734874031698105 0.0 0.0 0.0 10.734874031698105 0.0 0.0 0.0 10.734874031698105
10.73743683691816 0.0 0.0 0.0 10.73743683691816 0.0 0.0 0.0 10.73743683691816
10.739865231127297 0.0 0.0 0.0 10.739865231127297 0.0 0.0 0.0 10.739865231127297
10.839043094339708 0.0 0.0 0.0 10.839043094339708 0.0 0.0 0.0 10.839043094339708
10.770428389972963 0.0 0.0 0.0 10.770428389972963 0.0 0.0 0.0 10.770428389972963
10.876963933090323 0.0 0.0 0.0 10.876963933090323 0.0 0.0 0.0 10.876963933090323
10.9396957744318 0.0 0.0 0.0 10.9396957744318 0.0 0.0 0.0 10.9396957744318
11.098870161995714 0.0 0.0 0.0 11.098870161995714 0.0 0.0 0.0 11.098870161995714
10.910723322274446 0.0 0.0 0.0 10.910723322274446 0.0 0.0 0.0 10.910723322274446
10.723144289697741 0.0 0.0 0.0 10.723144289697741 0.0 0.0 0.0 10.723144289697741
10.92904502475927 0.0 0.0 0.0 10.92904502475927 0.0 0.0 0.0 10.92904502475927
10.887231029286799 0.0 0.0 0.0 10.887231029286799 0.0 0.0 0.0 10.887231029286799
10.833460803968785 0.0 0.0 0.0 10.833460803968785 0.0 0.0 0.0 10.833460803968785
10.80207424538692 0.0 0.0 0.0 10.80207424538692 0.0 0.0 0.0 10.80207424538692
10.927710439839801 0.0 0.0 0.0 10.927710439839801 0.0 0.0 0.0 10.927710439839801
10.858229472382982 0.0 0.0 0.0 10.858229472382982 0.0 0.0 0.0 10.858229472382982
10.745614212318849 0.0 0.0 0.0 10.745614212318849 0.0 0.0 0.0 10.745614212318849
10.794529765927425 0.0 0.0 0.0 10.794529765927425 0.0 0.0 0.0 10.794529765927425
10.726809371042796 0.0 0.0 0.0 10.726809371042796 0.0 0.0 0.0 10.726809371042796
10.835790771217166 0.0 0.0 0.0 10.835790771217166 0.0 0.0 0.0 10.835790771217166
10.985556917193762 0.0 0.0 0.0 10.985556917193762 0.0 0.0 0.0 10.985556917193762
10.855526435202712 0.0 0.0 0.0 10.855526435202712 0.0 0.0 0.0 10.855526435202712
10.90021862551142 0.0 0.0 0.0 10.90021862551142 0.0 0.0 0.0 10.90021862551142
10.79915001213356 0.0 0.0 0.0 10.79915001213356 0.0 0.0 0.0 10.79915001213356
10.736884905089848 0.0 0.0 0.0 10.736884905089848 0.0 0.0 0.0 10.736884905089848
10.750685846683709 0.0 0.0 0.0 10.750685846683709 0.0 0.0 0.0 10.750685846683709
11.259389188846052 0.0 0.0 0.0 11.259389188846052 0.0 0.0 0.0 11.259389188846052
11.068840413776066 0.0 0.0 0.0 11.068840413776066 0.0 0.0 0.0 11.068840413776066
10.827641442208522 0.0 0.0 0.0 10.827641442208522 0.0 0.0 0.0 10.827641442208522
10.901464308659882 0.0 0.0 0.0 10.901464308659882 0.0 0.0 0.0 10.901464308659882
11.204559021579708 0.0 0.0 0.0 11.204559021579708 0.0 0.0 0.0 11.204559021579708
10.8516867253789 0.0 0.0 0.0 10.8516867253789 0.0 0.0 0.0 10.8516867253789
10.904723511086132 0.0 0.0 0.0 10.904723511086132 0.0 0.0 0.0 10.904723511086132
10.983652937598105 0.0 0.0 0.0 10.983652937598105 0.0 0.0 0.0 10.983652937598105
10.83189761449531 0.0 0.0 0.0 10.83189761449531 0.0 0.0 0.0 10.83189761449531
10.803523132583393 0.0 0.0 0.0 10.803523132583393 0.0 0.0 0.0 10.803523132583393
10.991546144837907 0.0 0.0 0.0 10.991546144837907 0.0 0.0 0.0 10.991546144837907
10.786781024065505 0.0 0.0 0.0 10.786781024065505 0.0 0.0 0.0 10.786781024065505
10.754074697526004 0.0 0.0 0.0 10.754074697526004 0.0 0.0 0.0 10.754074697526004
10.717402716987106 0.0 0.0 0.0 10.717402716987106 0.0 0.0 0.0 10.717402716987106
10.770378647315377 0.0 0.0 0.0 10.770378647315377 0.0 0.0 0.0 10.770378647315377
10.961286204532627 0.0 0.0 0.0 10.961286204532627 0.0 0.0 0.0 10.961286204532627
10.985444202448383 0.0 0.0 0.0 10.985444202448383 0.0 0.0 0.0 10.985444202448383
10.768804874297734 0.0 0.0 0.0 10.768804874297734 0.0 0.0 0.0 10.768804874297734
10.945923131819706 0.0 0.0 0.0 10.945923131819706 0.0 0.0 0.0 10.945923131819706
10.951461500482335 0.0 0.0 0.0 10.951461500482335 0.0 0.0 0.0 10.951461500482335
11.010993936422109 0.0 0.0 0.0 11.010993936422109 0.0 0.0 0.0 11.010993936422109
10.877805324851606 0.0 0.0 0.0 10.877805324851606 0.0 0.0 0.0 10.877805324851606
11.514724600357551 0.0 0.0 0.0 11.514724600357551 0.0 0.0 0.0 11.514724600357551
