-6813.758314869391
-6814.375091769625
-6813.716966219209
-6814.13087408931
-6813.717518338188
-6815.014038192465
-6817.0990197311985
-6812.94253662907
-6814.452019984496
-6813.115378033164
-6815.3041197078865
-6814.102698606114
-6812.686547984379
-6810.501158616093
-6813.166299648191
-6815.040665756089
-6815.496210308871
-6813.695895492284
-6815.493970267751
-6816.696854797748
-6818.353772016038
-6816.158935671615
-6817.009411011446
-6814.977756982243
-6813.278081291973
-6812.475263289558
-6814.515055427335
-6815.839419874379
-6814.259731692809
-6814.523113126268
-6814.374455023242
-6813.680485549544
-6813.866113310802
-6814.929128334478
-6813.130867841316
-6812.022503005574
-6813.468160563517
-6813.058949242215
-6812.934415391555
-6813.273835635804
-6814.820226743565
-6815.067115493321
-6815.858555871912
-6815.412680612274
-6812.845511310588
-6813.9023054037425
-6814.0031536495435
-6814.362782019849
-6810.111967390185
-6814.934863133628
-6814.241018968351
-6817.374713363459
-6817.141723236184
-6817.222241993156
-6816.446851977223
-6815.382409444349
-6816.545145210136
-6815.000803799865
-6814.333300118114
-6812.325176588881
-6814.5205826036245
-6814.875650209939
-6815.534212775179
-6815.223353055208
-6814.671081012541
-6815.109603212031
-6813.3323961665665
-6814.582557890948
-6815.831411972279
-6814.531506477621
-6819.985781838336
-6816.097136169832
-6812.951868773167
-6816.860662430569
-6814.072280088546
-6815.122166299791
-6814.511248826845
-6817.435969453906
-6813.841424694335
-6813.028731816774
-6814.53457551355
-6816.328141226654
-6811.450677814861
-6816.0064645734265
-6814.458430714421
-6814.791757513481
-6812.363748181282
-6815.718305542274
-6814.066613317856
-6816.393225550641
-6816.240398935721
-6813.843875079452
-6816.27294837676
-6814.186345583776
-6815.2440215978795
-6818.320859303026
-6813.045354706949
-6814.984884460018
-6813.955503114972
-6814.426377200853
-6809.668290674306
