An instance of this daemon is already running

     Program PWSCF v.7.1 starts on 11May2023 at 15:19:46 

     This program is part of the open-source Quantum ESPRESSO suite
     for quantum simulation of materials; please cite
         "P. Giannozzi et al., J. Phys.:Condens. Matter 21 395502 (2009);
         "P. Giannozzi et al., J. Phys.:Condens. Matter 29 465901 (2017);
         "P. Giannozzi et al., J. Chem. Phys. 152 154105 (2020);
          URL http://www.quantum-espresso.org", 
     in publications or presentations arising from this work. More details at
     http://www.quantum-espresso.org/quote

     Parallel version (MPI & OpenMP), running on       4 processor cores
     Number of MPI processes:                 4
     Threads/MPI process:                     1

     MPI processes distributed on     1 nodes
     997894 MiB available memory on the printing compute node when the environment starts
 
     Reading input from pw-si-98.in
Warning: card &CELL ignored
Warning: card / ignored

     Current dimensions of program PWSCF are:
     Max number of different atomic species (ntypx) = 10
     Max number of k-points (npk) =  40000
     Max angular momentum in pseudopotentials (lmaxx) =  4

     IMPORTANT: XC functional enforced from input :
     Exchange-correlation= PBE
                           (   1   4   3   4   0   0   0)
     Any further DFT definition will be discarded
     Please, verify this is what you really want


     gamma-point specific algorithms are used
 
     K-points division:     npool     =       2
     R & G space division:  proc/nbgrp/npool/nimage =       2
     Subspace diagonalization in iterative solution of the eigenvalue problem:
     a serial algorithm will be used

     Message from routine divide_et_impera:
     suboptimal parallelization: some nodes have no k-points
 
     Parallelization info
     --------------------
     sticks:   dense  smooth     PW     G-vecs:    dense   smooth      PW
     Min        2073    2073    546               100117   100117   13598
     Max        2076    2076    547               100120   100120   13603
     Sum        4149    4149   1093               200237   200237   27201
 
     Using Slab Decomposition
 


     bravais-lattice index     =            0
     lattice parameter (alat)  =      20.8078  a.u.
     unit-cell volume          =    9008.9916 (a.u.)^3
     number of atoms/cell      =           64
     number of atomic types    =            1
     number of electrons       =       256.00
     number of Kohn-Sham states=          154
     kinetic-energy cutoff     =      30.0000  Ry
     charge density cutoff     =     120.0000  Ry
     scf convergence threshold =      1.0E-06
     mixing beta               =       0.5000
     number of iterations used =            8  plain     mixing
     Exchange-correlation= PBE
                           (   1   4   3   4   0   0   0)

     GPU acceleration is ACTIVE.
     GPU-aware MPI enabled

     Message from routine print_cuda_info:
     High GPU oversubscription detected. Are you sure this is what you want?

     celldm(1)=  20.807763  celldm(2)=   0.000000  celldm(3)=   0.000000
     celldm(4)=   0.000000  celldm(5)=   0.000000  celldm(6)=   0.000000

     crystal axes: (cart. coord. in units of alat)
               a(1) = (   1.000000   0.000000   0.000000 )  
               a(2) = (   0.000000   1.000000   0.000000 )  
               a(3) = (   0.000000   0.000000   1.000000 )  

     reciprocal axes: (cart. coord. in units 2 pi/alat)
               b(1) = (  1.000000  0.000000  0.000000 )  
               b(2) = (  0.000000  1.000000  0.000000 )  
               b(3) = (  0.000000  0.000000  1.000000 )  


     PseudoPot. # 1 for Si read from file:
     /home/ppiaggi/pseudos/Si_ONCV_PBE_sr.upf
     MD5 check sum: 8553c464762ac42b85b1eed164b4d029
     Pseudo is Norm-conserving, Zval =  4.0
     Generated using ONCVPSP code by D. R. Hamann
     Using radial grid of 1510 points,  4 beta functions with: 
                l(1) =   0
                l(2) =   0
                l(3) =   1
                l(4) =   1

     atomic species   valence    mass     pseudopotential
        Si             4.00    28.08500     Si( 1.00)

     No symmetry found



   Cartesian axes

     site n.     atom                  positions (alat units)
         1           Si  tau(   1) = (   0.6096840   0.9141720   0.8805150  )
         2           Si  tau(   2) = (   0.2892370   0.3741610   0.8204840  )
         3           Si  tau(   3) = (   0.2591140   0.0154620   0.5031300  )
         4           Si  tau(   4) = (   0.4855590   0.7332010   0.8580600  )
         5           Si  tau(   5) = (   0.0168629   0.7404960   0.4031450  )
         6           Si  tau(   6) = (   0.3050990   0.8363620   0.2539660  )
         7           Si  tau(   7) = (   0.7021990   0.7202570   0.1204260  )
         8           Si  tau(   8) = (   0.3222100   0.2900160   0.3654180  )
         9           Si  tau(   9) = (   0.9641290   0.2130260   0.9986890  )
        10           Si  tau(  10) = (   0.1865160   0.9801810   0.0898083  )
        11           Si  tau(  11) = (   0.9497880   0.9552750   0.6530300  )
        12           Si  tau(  12) = (   0.8188560   0.2201790   0.4681240  )
        13           Si  tau(  13) = (   0.1803730   0.9184090   0.6913510  )
        14           Si  tau(  14) = (   0.8950180   0.5972020   0.8091780  )
        15           Si  tau(  15) = (   0.0561814   0.3578960   0.4029730  )
        16           Si  tau(  16) = (   0.8506180   0.3651370   0.8683360  )
        17           Si  tau(  17) = (   0.7993980   0.7523470   0.3457070  )
        18           Si  tau(  18) = (   0.0207831   0.0940095   0.2673260  )
        19           Si  tau(  19) = (   0.1531860   0.7292680   0.7974720  )
        20           Si  tau(  20) = (   0.5123450   0.3763730   0.2813570  )
        21           Si  tau(  21) = (   0.5023460   0.4552140   0.6639610  )
        22           Si  tau(  22) = (   0.5041410   0.1240840   0.3153070  )
        23           Si  tau(  23) = (   0.7084900   0.5853030   0.9352410  )
        24           Si  tau(  24) = (   0.4337350   0.2345330   0.6826260  )
        25           Si  tau(  25) = (   0.8005950   0.7372210   0.6644080  )
        26           Si  tau(  26) = (   0.5708850   0.9053750   0.0807247  )
        27           Si  tau(  27) = (   0.8405580   0.1846270   0.1745680  )
        28           Si  tau(  28) = (   0.6258790   0.2126470   0.8786490  )
        29           Si  tau(  29) = (   0.3180700   0.5046690   0.3652090  )
        30           Si  tau(  30) = (   0.7893060   0.0146524   0.5656790  )
        31           Si  tau(  31) = (   0.0115851   0.7258870   0.5909860  )
        32           Si  tau(  32) = (   0.1564870   0.2076060   0.8570160  )
        33           Si  tau(  33) = (   0.2597280   0.2755060   0.5975720  )
        34           Si  tau(  34) = (   0.0577319   0.5225890   0.6690310  )
        35           Si  tau(  35) = (   0.1866220   0.4975850   0.0499508  )
        36           Si  tau(  36) = (   0.9008060   0.0130471   0.9918740  )
        37           Si  tau(  37) = (   0.3149460   0.2348440   0.9978030  )
        38           Si  tau(  38) = (   0.4131410   0.5431450   0.1743010  )
        39           Si  tau(  39) = (   0.6366050   0.1243920   0.1014650  )
        40           Si  tau(  40) = (   0.8135630   0.3167840   0.6565750  )
        41           Si  tau(  41) = (   0.6716510   0.8265860   0.4984150  )
        42           Si  tau(  42) = (   0.0712522   0.4793350   0.8835430  )
        43           Si  tau(  43) = (   0.5012350   0.9465400   0.4056850  )
        44           Si  tau(  44) = (   0.6259210   0.1166530   0.6644020  )
        45           Si  tau(  45) = (   0.5181470   0.3194960   0.0386885  )
        46           Si  tau(  46) = (   0.6785730   0.4093510   0.4482750  )
        47           Si  tau(  47) = (   0.3132010   0.0746346   0.7448510  )
        48           Si  tau(  48) = (   0.6972060   0.5026330   0.6681730  )
        49           Si  tau(  49) = (   0.1832650   0.6498110   0.2859660  )
        50           Si  tau(  50) = (   0.0529829   0.4991380   0.2104690  )
        51           Si  tau(  51) = (   0.9803040   0.7964630   0.9959940  )
        52           Si  tau(  52) = (   0.0410359   0.9798460   0.4382590  )
        53           Si  tau(  53) = (   0.9935760   0.2248140   0.6953940  )
        54           Si  tau(  54) = (   0.5251640   0.8980310   0.6732810  )
        55           Si  tau(  55) = (   0.7031360   0.5678300   0.2928000  )
        56           Si  tau(  56) = (   0.7833620   0.9381080   0.1863070  )
        57           Si  tau(  57) = (   0.2248680   0.5125480   0.5362740  )
        58           Si  tau(  58) = (   0.3859680   0.9504210   0.9191550  )
        59           Si  tau(  59) = (   0.1461930   0.2761640   0.1224310  )
        60           Si  tau(  60) = (   0.8489420   0.8624450   0.8177920  )
        61           Si  tau(  61) = (   0.4882490   0.5680000   0.9647600  )
        62           Si  tau(  62) = (   0.3222150   0.6341280   0.6910450  )
        63           Si  tau(  63) = (   0.9513660   0.5450260   0.4613070  )
        64           Si  tau(  64) = (   0.5020360   0.2777750   0.4831890  )

     number of k points=     1  Fermi-Dirac smearing, width (Ry)=  0.0100
                       cart. coord. in units 2pi/alat
        k(    1) = (   0.0000000   0.0000000   0.0000000), wk =   2.0000000

     Dense  grid:   100119 G-vectors     FFT dimensions: (  75,  75,  75)

     Estimated max dynamical RAM per process >     160.76 MB

     Estimated total dynamical RAM >     618.59 MB

     Initial potential from superposition of free atoms

     starting charge     255.9608, renormalised to     256.0000
     Starting wfcs are  256 randomized atomic wfcs

     total cpu time spent up to now is        4.1 secs

     Self-consistent Calculation

     iteration #  1     ecut=    30.00 Ry     beta= 0.50
     Davidson diagonalization with overlap
     ethr =  1.00E-02,  avg # of iterations =  3.0

     Threshold (ethr) on eigenvalues was too large:
     Diagonalizing with lowered threshold

     Davidson diagonalization with overlap
     ethr =  6.67E-04,  avg # of iterations =  4.0

     total cpu time spent up to now is        4.3 secs

     total energy              =    -500.04462212 Ry
     estimated scf accuracy    <       2.20969454 Ry

     iteration #  2     ecut=    30.00 Ry     beta= 0.50
     Davidson diagonalization with overlap
     ethr =  8.63E-04,  avg # of iterations =  6.0

     total cpu time spent up to now is        4.5 secs

     total energy              =    -498.93076376 Ry
     estimated scf accuracy    <      17.12756057 Ry

     iteration #  3     ecut=    30.00 Ry     beta= 0.50
     Davidson diagonalization with overlap
     ethr =  8.63E-04,  avg # of iterations =  4.0

     total cpu time spent up to now is        4.6 secs

     total energy              =    -500.41516326 Ry
     estimated scf accuracy    <       3.87231768 Ry

     iteration #  4     ecut=    30.00 Ry     beta= 0.50
     Davidson diagonalization with overlap
     ethr =  8.63E-04,  avg # of iterations =  2.0

     total cpu time spent up to now is        4.7 secs

     total energy              =    -500.71354934 Ry
     estimated scf accuracy    <       0.58734655 Ry

     iteration #  5     ecut=    30.00 Ry     beta= 0.50
     Davidson diagonalization with overlap
     ethr =  2.29E-04,  avg # of iterations =  3.0

     total cpu time spent up to now is        4.8 secs

     total energy              =    -500.71664971 Ry
     estimated scf accuracy    <       1.08596873 Ry

     iteration #  6     ecut=    30.00 Ry     beta= 0.50
     Davidson diagonalization with overlap
     ethr =  2.29E-04,  avg # of iterations =  2.0

     total cpu time spent up to now is        4.9 secs

     total energy              =    -500.79881427 Ry
     estimated scf accuracy    <       0.09153666 Ry

     iteration #  7     ecut=    30.00 Ry     beta= 0.50
     Davidson diagonalization with overlap
     ethr =  3.58E-05,  avg # of iterations =  3.0

     total cpu time spent up to now is        5.0 secs

     total energy              =    -500.81004295 Ry
     estimated scf accuracy    <       0.03146451 Ry

     iteration #  8     ecut=    30.00 Ry     beta= 0.50
     Davidson diagonalization with overlap
     ethr =  1.23E-05,  avg # of iterations = 16.0

     total cpu time spent up to now is        5.2 secs

     total energy              =    -500.81164696 Ry
     estimated scf accuracy    <       0.05898554 Ry

     iteration #  9     ecut=    30.00 Ry     beta= 0.50
     Davidson diagonalization with overlap
     ethr =  1.23E-05,  avg # of iterations =  2.0

     total cpu time spent up to now is        5.3 secs

     total energy              =    -500.81586624 Ry
     estimated scf accuracy    <       0.00299295 Ry

     iteration # 10     ecut=    30.00 Ry     beta= 0.50
     Davidson diagonalization with overlap
     ethr =  1.17E-06,  avg # of iterations = 10.0

     total cpu time spent up to now is        5.4 secs

     total energy              =    -500.81631984 Ry
     estimated scf accuracy    <       0.00152037 Ry

     iteration # 11     ecut=    30.00 Ry     beta= 0.50
     Davidson diagonalization with overlap
     ethr =  5.94E-07,  avg # of iterations =  3.0

     total cpu time spent up to now is        5.5 secs

     total energy              =    -500.81638554 Ry
     estimated scf accuracy    <       0.00094006 Ry

     iteration # 12     ecut=    30.00 Ry     beta= 0.50
     Davidson diagonalization with overlap
     ethr =  3.67E-07,  avg # of iterations =  2.0

     total cpu time spent up to now is        5.6 secs

     total energy              =    -500.81644505 Ry
     estimated scf accuracy    <       0.00082830 Ry

     iteration # 13     ecut=    30.00 Ry     beta= 0.50
     Davidson diagonalization with overlap
     ethr =  3.24E-07,  avg # of iterations =  2.0

     total cpu time spent up to now is        5.7 secs

     total energy              =    -500.81647236 Ry
     estimated scf accuracy    <       0.00073193 Ry

     iteration # 14     ecut=    30.00 Ry     beta= 0.50
     Davidson diagonalization with overlap
     ethr =  2.86E-07,  avg # of iterations =  1.0

     total cpu time spent up to now is        5.8 secs

     total energy              =    -500.81652391 Ry
     estimated scf accuracy    <       0.00005484 Ry

     iteration # 15     ecut=    30.00 Ry     beta= 0.50
     Davidson diagonalization with overlap
     ethr =  2.14E-08,  avg # of iterations =  2.0

     total cpu time spent up to now is        5.9 secs

     total energy              =    -500.81653352 Ry
     estimated scf accuracy    <       0.00000769 Ry

     iteration # 16     ecut=    30.00 Ry     beta= 0.50
     Davidson diagonalization with overlap
     ethr =  3.01E-09,  avg # of iterations =  5.0

     total cpu time spent up to now is        6.1 secs

     total energy              =    -500.81653343 Ry
     estimated scf accuracy    <       0.00003523 Ry

     iteration # 17     ecut=    30.00 Ry     beta= 0.50
     Davidson diagonalization with overlap
     ethr =  3.01E-09,  avg # of iterations =  3.0

     total cpu time spent up to now is        6.2 secs

     total energy              =    -500.81653589 Ry
     estimated scf accuracy    <       0.00000416 Ry

     iteration # 18     ecut=    30.00 Ry     beta= 0.50
     Davidson diagonalization with overlap
     ethr =  1.62E-09,  avg # of iterations =  2.0

     total cpu time spent up to now is        6.3 secs

     total energy              =    -500.81653624 Ry
     estimated scf accuracy    <       0.00000266 Ry

     iteration # 19     ecut=    30.00 Ry     beta= 0.50
     Davidson diagonalization with overlap
     ethr =  1.04E-09,  avg # of iterations =  2.0

     total cpu time spent up to now is        6.4 secs

     End of self-consistent calculation

          k = 0.0000 0.0000 0.0000 ( 12587 PWs)   bands (ev):

    -6.7055  -6.2221  -5.8027  -5.6386  -5.4457  -5.3056  -5.0943  -4.8735
    -4.7544  -4.5798  -4.3106  -4.1839  -4.0847  -4.0283  -3.9161  -3.8779
    -3.7174  -3.5941  -3.4153  -3.2329  -3.2187  -3.0215  -2.9077  -2.7085
    -2.5684  -2.4027  -2.3727  -2.1470  -1.9130  -1.7562  -1.7078  -1.6259
    -1.4884  -1.4442  -1.3368  -1.2970  -1.2251  -1.1845  -0.9089  -0.8881
    -0.7383  -0.5980  -0.5626  -0.4526  -0.4273  -0.3664  -0.2317  -0.0918
     0.0212   0.0821   0.0875   0.2456   0.3805   0.4261   0.4965   0.5910
     0.7950   0.9196   1.0036   1.1098   1.2311   1.3547   1.4152   1.4376
     1.6437   1.7430   1.8266   1.8695   2.0779   2.1054   2.1700   2.2544
     2.3240   2.4288   2.4717   2.5706   2.6181   2.6701   2.7066   2.8144
     2.9961   3.0730   3.0990   3.1808   3.2542   3.3346   3.3946   3.5018
     3.5321   3.6096   3.6620   3.7142   3.7708   3.8199   3.9371   4.0191
     4.0716   4.1067   4.1523   4.1854   4.2830   4.3642   4.4227   4.5065
     4.5398   4.5891   4.6368   4.7308   4.7545   4.7950   4.8520   4.8923
     4.9656   5.0814   5.1464   5.2357   5.2977   5.3217   5.3798   5.5303
     5.6148   5.6553   5.7049   5.7662   5.7899   5.8564   5.9384   6.0124
     6.0424   6.1284   6.1462   6.2254   6.2412   6.2925   6.3866   6.4352
     6.5213   6.5649   6.6188   6.6708   6.7493   6.8222   6.8982   6.9451
     6.9845   7.0459   7.1547   7.1925   7.2216   7.3141   7.3570   7.4147
     7.4763   7.5638

     the Fermi energy is     6.0152 ev

!    total energy              =    -500.81653596 Ry
     estimated scf accuracy    <       0.00000064 Ry
     smearing contrib. (-TS)   =      -0.15499100 Ry
     internal energy E=F+TS    =    -500.66154496 Ry

     The total energy is F=E-TS. E is the sum of the following terms:
     one-electron contribution =      96.37067118 Ry
     hartree contribution      =      58.99346911 Ry
     xc contribution           =    -150.00258273 Ry
     ewald contribution        =    -506.02310252 Ry

     convergence has been achieved in  19 iterations

     Forces acting on atoms (cartesian axes, Ry/au):

     atom    1 type  1   force =     0.04663369    0.00314983   -0.06757996
     atom    2 type  1   force =     0.00392833    0.05182942    0.00306237
     atom    3 type  1   force =     0.00249444    0.00493958   -0.00062734
     atom    4 type  1   force =    -0.03352381    0.07301628   -0.07395842
     atom    5 type  1   force =     0.00674958    0.06724935   -0.16051701
     atom    6 type  1   force =    -0.00008374    0.01292731   -0.00911011
     atom    7 type  1   force =     0.00210006   -0.00810870   -0.01434429
     atom    8 type  1   force =    -0.01660037   -0.04313832   -0.02583067
     atom    9 type  1   force =     0.02269722    0.03691098   -0.00936861
     atom   10 type  1   force =     0.00835378   -0.01288123    0.02292066
     atom   11 type  1   force =     0.13687078   -0.00052800    0.04516352
     atom   12 type  1   force =     0.00913155   -0.00373922   -0.02598238
     atom   13 type  1   force =    -0.03921940   -0.01341330   -0.02392734
     atom   14 type  1   force =    -0.03300140   -0.00676106    0.01934494
     atom   15 type  1   force =     0.00041219    0.01893312   -0.02006289
     atom   16 type  1   force =     0.00480198   -0.00913427    0.00748496
     atom   17 type  1   force =     0.02329559    0.01050477   -0.01447569
     atom   18 type  1   force =     0.00557689    0.02241590   -0.06326505
     atom   19 type  1   force =    -0.01385590   -0.01839024   -0.00453170
     atom   20 type  1   force =     0.02313560    0.00216838   -0.04274663
     atom   21 type  1   force =    -0.07958570   -0.00677071    0.01138800
     atom   22 type  1   force =     0.00216233    0.08104764   -0.04045437
     atom   23 type  1   force =    -0.01881828    0.00799046    0.00553584
     atom   24 type  1   force =     0.10510816    0.01417178    0.06922463
     atom   25 type  1   force =    -0.02058527   -0.05539844   -0.06750721
     atom   26 type  1   force =     0.00192498    0.00761789    0.05061873
     atom   27 type  1   force =    -0.01329208   -0.02463992    0.02402062
     atom   28 type  1   force =     0.02442010   -0.00899886   -0.01697569
     atom   29 type  1   force =     0.02437665    0.00862480   -0.06244750
     atom   30 type  1   force =    -0.09852437    0.03842365   -0.07907695
     atom   31 type  1   force =    -0.01386204    0.01128509    0.16890395
     atom   32 type  1   force =    -0.03418262   -0.03953260   -0.03361358
     atom   33 type  1   force =    -0.09553816    0.01880968   -0.06386294
     atom   34 type  1   force =    -0.01345730   -0.01114261   -0.00558234
     atom   35 type  1   force =     0.06356023   -0.00486098    0.02097010
     atom   36 type  1   force =    -0.01658339   -0.04096034    0.01301310
     atom   37 type  1   force =     0.03578469   -0.00109818    0.00503495
     atom   38 type  1   force =     0.01117846    0.02074703   -0.03791399
     atom   39 type  1   force =     0.00303086   -0.00718044    0.02640281
     atom   40 type  1   force =    -0.04415912    0.04437862    0.01219207
     atom   41 type  1   force =     0.01767625    0.02728558    0.03215976
     atom   42 type  1   force =    -0.00974726   -0.02630156   -0.04416724
     atom   43 type  1   force =    -0.06573287   -0.05065427    0.02780003
     atom   44 type  1   force =    -0.01343992    0.00577953    0.03860059
     atom   45 type  1   force =    -0.02578412    0.01594716    0.00850687
     atom   46 type  1   force =     0.00668204   -0.00483940    0.00978148
     atom   47 type  1   force =    -0.02348591   -0.02065746    0.03763225
     atom   48 type  1   force =     0.08162968    0.03271112    0.00171717
     atom   49 type  1   force =     0.00616101    0.04099166    0.00079367
     atom   50 type  1   force =    -0.02552656   -0.03428486    0.03093240
     atom   51 type  1   force =     0.00152439    0.00277037   -0.01613484
     atom   52 type  1   force =     0.03004451   -0.04080033    0.02468284
     atom   53 type  1   force =     0.05513173   -0.02196825    0.01356699
     atom   54 type  1   force =    -0.00504380    0.00326951    0.01803546
     atom   55 type  1   force =     0.00040774   -0.00637107   -0.02612920
     atom   56 type  1   force =     0.01490738    0.00399445   -0.02590716
     atom   57 type  1   force =    -0.02923927   -0.03113454    0.08516776
     atom   58 type  1   force =    -0.01275709   -0.01270958    0.01575605
     atom   59 type  1   force =    -0.03119480    0.00410721    0.03163373
     atom   60 type  1   force =    -0.01218007    0.04026042    0.08875460
     atom   61 type  1   force =     0.02269237   -0.08663041    0.04716478
     atom   62 type  1   force =     0.04004417   -0.01470075    0.03454828
     atom   63 type  1   force =    -0.03358446   -0.05147135    0.01795883
     atom   64 type  1   force =     0.02795964   -0.01505733    0.00562633

     Total force =     0.546607     Total SCF correction =     0.001467


     Computing stress (Cartesian axis) and pressure

          total   stress  (Ry/bohr**3)                   (kbar)     P=      -16.82
  -0.00015184   0.00001083   0.00001239          -22.34        1.59        1.82
   0.00001083  -0.00021228  -0.00007318            1.59      -31.23      -10.76
   0.00001239  -0.00007318   0.00002102            1.82      -10.76        3.09

 
     init_run     :      0.62s CPU      4.02s WALL (       1 calls)
     electrons    :      2.16s CPU      2.28s WALL (       1 calls)
     forces       :      0.03s CPU      0.03s WALL (       1 calls)
     stress       :      0.15s CPU      0.16s WALL (       1 calls)

     Called by init_run:
     wfcinit      :      0.43s CPU      3.69s WALL (       1 calls)
                                        3.69s GPU  (       1 calls)
     potinit      :      0.04s CPU      0.11s WALL (       1 calls)
     hinit0       :      0.13s CPU      0.16s WALL (       1 calls)

     Called by electrons:
     c_bands      :      1.43s CPU      1.48s WALL (      20 calls)
     sum_band     :      0.38s CPU      0.43s WALL (      20 calls)
     v_of_rho     :      0.16s CPU      0.23s WALL (      20 calls)
     mix_rho      :      0.16s CPU      0.17s WALL (      20 calls)

     Called by c_bands:
     init_us_2    :      0.05s CPU      0.06s WALL (      41 calls)
     init_us_2:gp :      0.05s CPU      0.05s WALL (      41 calls)
     regterg      :      1.27s CPU      1.32s WALL (      20 calls)

     Called by *egterg:
     rdiaghg      :      0.43s CPU      1.08s WALL (      96 calls)
                                        1.07s GPU  (      96 calls)
     h_psi        :      1.09s CPU      3.73s WALL (      98 calls)
                                        3.73s GPU  (      98 calls)
     g_psi        :      0.00s CPU      0.00s WALL (      77 calls)
                                        0.00s GPU  (      77 calls)

     Called by h_psi:
     h_psi:calbec :      0.40s CPU      2.97s WALL (      98 calls)
                                        2.97s GPU  (      98 calls)
     vloc_psi     :      0.63s CPU      0.69s WALL (      98 calls)
                                        0.69s GPU  (      98 calls)
     add_vuspsi   :      0.04s CPU      0.06s WALL (      98 calls)
                                        0.06s GPU  (      98 calls)

     General routines
     calbec       :      0.40s CPU      2.97s WALL (     103 calls)
     fft          :      0.27s CPU      0.36s WALL (     167 calls)
                                        0.11s GPU  (     106 calls)
     ffts         :      0.04s CPU      0.05s WALL (      20 calls)
     fftw         :      0.71s CPU      0.89s WALL (    2130 calls)
                                        0.81s GPU  (    2130 calls)
 
     Parallel routines
 
     PWSCF        :      3.00s CPU      6.57s WALL

 
   This run was terminated on:  15:19:52  11May2023            

=------------------------------------------------------------------------------=
   JOB DONE.
=------------------------------------------------------------------------------=
