An instance of this daemon is already running

     Program PWSCF v.7.1 starts on 11May2023 at 15:16: 6 

     This program is part of the open-source Quantum ESPRESSO suite
     for quantum simulation of materials; please cite
         "P. Giannozzi et al., J. Phys.:Condens. Matter 21 395502 (2009);
         "P. Giannozzi et al., J. Phys.:Condens. Matter 29 465901 (2017);
         "P. Giannozzi et al., J. Chem. Phys. 152 154105 (2020);
          URL http://www.quantum-espresso.org", 
     in publications or presentations arising from this work. More details at
     http://www.quantum-espresso.org/quote

     Parallel version (MPI & OpenMP), running on       4 processor cores
     Number of MPI processes:                 4
     Threads/MPI process:                     1

     MPI processes distributed on     1 nodes
     1009901 MiB available memory on the printing compute node when the environment starts
 
     Reading input from pw-si-73.in
Warning: card &CELL ignored
Warning: card / ignored

     Current dimensions of program PWSCF are:
     Max number of different atomic species (ntypx) = 10
     Max number of k-points (npk) =  40000
     Max angular momentum in pseudopotentials (lmaxx) =  4

     IMPORTANT: XC functional enforced from input :
     Exchange-correlation= PBE
                           (   1   4   3   4   0   0   0)
     Any further DFT definition will be discarded
     Please, verify this is what you really want


     gamma-point specific algorithms are used
 
     K-points division:     npool     =       2
     R & G space division:  proc/nbgrp/npool/nimage =       2
     Subspace diagonalization in iterative solution of the eigenvalue problem:
     a serial algorithm will be used

     Message from routine divide_et_impera:
     suboptimal parallelization: some nodes have no k-points
 
     Parallelization info
     --------------------
     sticks:   dense  smooth     PW     G-vecs:    dense   smooth      PW
     Min        2003    2003    528                95853    95853   12909
     Max        2006    2006    529                95858    95858   12912
     Sum        4009    4009   1057               191711   191711   25821
 
     Using Slab Decomposition
 


     bravais-lattice index     =            0
     lattice parameter (alat)  =      20.5140  a.u.
     unit-cell volume          =    8632.7528 (a.u.)^3
     number of atoms/cell      =           64
     number of atomic types    =            1
     number of electrons       =       256.00
     number of Kohn-Sham states=          154
     kinetic-energy cutoff     =      30.0000  Ry
     charge density cutoff     =     120.0000  Ry
     scf convergence threshold =      1.0E-06
     mixing beta               =       0.5000
     number of iterations used =            8  plain     mixing
     Exchange-correlation= PBE
                           (   1   4   3   4   0   0   0)

     GPU acceleration is ACTIVE.
     GPU-aware MPI enabled

     Message from routine print_cuda_info:
     High GPU oversubscription detected. Are you sure this is what you want?

     celldm(1)=  20.513972  celldm(2)=   0.000000  celldm(3)=   0.000000
     celldm(4)=   0.000000  celldm(5)=   0.000000  celldm(6)=   0.000000

     crystal axes: (cart. coord. in units of alat)
               a(1) = (   1.000000   0.000000   0.000000 )  
               a(2) = (   0.000000   1.000000   0.000000 )  
               a(3) = (   0.000000   0.000000   1.000000 )  

     reciprocal axes: (cart. coord. in units 2 pi/alat)
               b(1) = (  1.000000  0.000000  0.000000 )  
               b(2) = (  0.000000  1.000000  0.000000 )  
               b(3) = (  0.000000  0.000000  1.000000 )  


     PseudoPot. # 1 for Si read from file:
     /home/ppiaggi/pseudos/Si_ONCV_PBE_sr.upf
     MD5 check sum: 8553c464762ac42b85b1eed164b4d029
     Pseudo is Norm-conserving, Zval =  4.0
     Generated using ONCVPSP code by D. R. Hamann
     Using radial grid of 1510 points,  4 beta functions with: 
                l(1) =   0
                l(2) =   0
                l(3) =   1
                l(4) =   1

     atomic species   valence    mass     pseudopotential
        Si             4.00    28.08500     Si( 1.00)

     No symmetry found



   Cartesian axes

     site n.     atom                  positions (alat units)
         1           Si  tau(   1) = (   0.3130910   0.0915831   0.7022560  )
         2           Si  tau(   2) = (   0.2965130   0.9078460   0.8840230  )
         3           Si  tau(   3) = (   0.2030380   0.6434860   0.3194510  )
         4           Si  tau(   4) = (   0.0886920   0.6273180   0.4996570  )
         5           Si  tau(   5) = (   0.4485050   0.8831040   0.7325530  )
         6           Si  tau(   6) = (   0.4357910   0.6862390   0.6723860  )
         7           Si  tau(   7) = (   0.9175360   0.0672996   0.6904810  )
         8           Si  tau(   8) = (   0.1503820   0.7769200   0.0517142  )
         9           Si  tau(   9) = (   0.5191940   0.9811590   0.5211300  )
        10           Si  tau(  10) = (   0.9565350   0.4199670   0.1169880  )
        11           Si  tau(  11) = (   0.3603130   0.2313340   0.9708120  )
        12           Si  tau(  12) = (   0.2664780   0.3121790   0.2895330  )
        13           Si  tau(  13) = (   0.6171050   0.8125470   0.8706820  )
        14           Si  tau(  14) = (   0.9256460   0.3697030   0.4181460  )
        15           Si  tau(  15) = (   0.7885090   0.3004480   0.8781640  )
        16           Si  tau(  16) = (   0.7531230   0.4754490   0.0857432  )
        17           Si  tau(  17) = (   0.6077790   0.1800560   0.5349440  )
        18           Si  tau(  18) = (   0.3537230   0.5228870   0.2172250  )
        19           Si  tau(  19) = (   0.9150080   0.8535880   0.3804780  )
        20           Si  tau(  20) = (   0.5884900   0.6963870   0.3472110  )
        21           Si  tau(  21) = (   0.8069800   0.2458720   0.2785630  )
        22           Si  tau(  22) = (   0.6641070   0.4602160   0.8351100  )
        23           Si  tau(  23) = (   0.2386040   0.5881930   0.8995130  )
        24           Si  tau(  24) = (   0.1365050   0.3553760   0.4378510  )
        25           Si  tau(  25) = (   0.5446090   0.4753910   0.6430130  )
        26           Si  tau(  26) = (   0.0965972   0.9181200   0.7005320  )
        27           Si  tau(  27) = (   0.5984250   0.2046580   0.2562970  )
        28           Si  tau(  28) = (   0.2565540   0.2897940   0.6036550  )
        29           Si  tau(  29) = (   0.8675330   0.5821580   0.8828300  )
        30           Si  tau(  30) = (   0.0059013   0.2820760   0.7936530  )
        31           Si  tau(  31) = (   0.0088607   0.6700670   0.1932590  )
        32           Si  tau(  32) = (   0.3448110   0.6690870   0.0618928  )
        33           Si  tau(  33) = (   0.1673770   0.3839410   0.9190400  )
        34           Si  tau(  34) = (   0.3390260   0.9911860   0.0639429  )
        35           Si  tau(  35) = (   0.3333910   0.6154930   0.5138200  )
        36           Si  tau(  36) = (   0.9129020   0.8449860   0.6119970  )
        37           Si  tau(  37) = (   0.1365900   0.0748944   0.8868690  )
        38           Si  tau(  38) = (   0.0379750   0.4838440   0.7272420  )
        39           Si  tau(  39) = (   0.1606360   0.2750090   0.0998737  )
        40           Si  tau(  40) = (   0.5269800   0.1432950   0.7363810  )
        41           Si  tau(  41) = (   0.7771370   0.4793220   0.2975410  )
        42           Si  tau(  42) = (   0.4036790   0.3243790   0.7720130  )
        43           Si  tau(  43) = (   0.5466680   0.4298340   0.2323740  )
        44           Si  tau(  44) = (   0.8746330   0.6294030   0.4899010  )
        45           Si  tau(  45) = (   0.2271560   0.7544870   0.7131460  )
        46           Si  tau(  46) = (   0.9811650   0.9624800   0.0589671  )
        47           Si  tau(  47) = (   0.0324586   0.0691528   0.3897910  )
        48           Si  tau(  48) = (   0.7964940   0.7606680   0.0191275  )
        49           Si  tau(  49) = (   0.8174960   0.3807250   0.6319730  )
        50           Si  tau(  50) = (   0.1458520   0.0560742   0.1427460  )
        51           Si  tau(  51) = (   0.6321710   0.7205470   0.1384600  )
        52           Si  tau(  52) = (   0.4492480   0.3732580   0.4985500  )
        53           Si  tau(  53) = (   0.4022500   0.0973375   0.2961930  )
        54           Si  tau(  54) = (   0.7370610   0.0938624   0.7939230  )
        55           Si  tau(  55) = (   0.7034770   0.9429540   0.4019460  )
        56           Si  tau(  56) = (   0.5114400   0.9157020   0.1607090  )
        57           Si  tau(  57) = (   0.5664290   0.3268430   0.9973270  )
        58           Si  tau(  58) = (   0.3959930   0.8055870   0.3945570  )
        59           Si  tau(  59) = (   0.8602780   0.0286626   0.2621590  )
        60           Si  tau(  60) = (   0.7437140   0.7082010   0.6885990  )
        61           Si  tau(  61) = (   0.8427160   0.1705940   0.5261200  )
        62           Si  tau(  62) = (   0.4813930   0.5683470   0.8817140  )
        63           Si  tau(  63) = (   0.1471570   0.8417810   0.3817260  )
        64           Si  tau(  64) = (   0.6663460   0.6255570   0.5194210  )

     number of k points=     1  Fermi-Dirac smearing, width (Ry)=  0.0100
                       cart. coord. in units 2pi/alat
        k(    1) = (   0.0000000   0.0000000   0.0000000), wk =   2.0000000

     Dense  grid:    95856 G-vectors     FFT dimensions: (  72,  72,  72)

     Estimated max dynamical RAM per process >     152.90 MB

     Estimated total dynamical RAM >     588.21 MB

     Initial potential from superposition of free atoms

     starting charge     255.9608, renormalised to     256.0000
     Starting wfcs are  256 randomized atomic wfcs

     total cpu time spent up to now is        4.0 secs

     Self-consistent Calculation

     iteration #  1     ecut=    30.00 Ry     beta= 0.50
     Davidson diagonalization with overlap
     ethr =  1.00E-02,  avg # of iterations =  3.0

     Threshold (ethr) on eigenvalues was too large:
     Diagonalizing with lowered threshold

     Davidson diagonalization with overlap
     ethr =  5.61E-04,  avg # of iterations =  4.0

     total cpu time spent up to now is        4.2 secs

     total energy              =    -500.52215215 Ry
     estimated scf accuracy    <       1.79109605 Ry

     iteration #  2     ecut=    30.00 Ry     beta= 0.50
     Davidson diagonalization with overlap
     ethr =  7.00E-04,  avg # of iterations =  4.0

     total cpu time spent up to now is        4.3 secs

     total energy              =    -499.77758252 Ry
     estimated scf accuracy    <       9.97083976 Ry

     iteration #  3     ecut=    30.00 Ry     beta= 0.50
     Davidson diagonalization with overlap
     ethr =  7.00E-04,  avg # of iterations =  5.0

     total cpu time spent up to now is        4.4 secs

     total energy              =    -500.73821382 Ry
     estimated scf accuracy    <       2.67666597 Ry

     iteration #  4     ecut=    30.00 Ry     beta= 0.50
     Davidson diagonalization with overlap
     ethr =  7.00E-04,  avg # of iterations =  2.0

     total cpu time spent up to now is        4.5 secs

     total energy              =    -500.93943365 Ry
     estimated scf accuracy    <       0.62481182 Ry

     iteration #  5     ecut=    30.00 Ry     beta= 0.50
     Davidson diagonalization with overlap
     ethr =  2.44E-04,  avg # of iterations =  2.0

     total cpu time spent up to now is        4.5 secs

     total energy              =    -500.96883381 Ry
     estimated scf accuracy    <       0.43571512 Ry

     iteration #  6     ecut=    30.00 Ry     beta= 0.50
     Davidson diagonalization with overlap
     ethr =  1.70E-04,  avg # of iterations =  2.0

     total cpu time spent up to now is        4.6 secs

     total energy              =    -501.00887560 Ry
     estimated scf accuracy    <       0.20666509 Ry

     iteration #  7     ecut=    30.00 Ry     beta= 0.50
     Davidson diagonalization with overlap
     ethr =  8.07E-05,  avg # of iterations =  1.0

     total cpu time spent up to now is        4.7 secs

     total energy              =    -501.02343677 Ry
     estimated scf accuracy    <       0.02752148 Ry

     iteration #  8     ecut=    30.00 Ry     beta= 0.50
     Davidson diagonalization with overlap
     ethr =  1.08E-05,  avg # of iterations =  9.0

     total cpu time spent up to now is        4.8 secs

     total energy              =    -501.02627701 Ry
     estimated scf accuracy    <       0.03804587 Ry

     iteration #  9     ecut=    30.00 Ry     beta= 0.50
     Davidson diagonalization with overlap
     ethr =  1.08E-05,  avg # of iterations =  2.0

     total cpu time spent up to now is        4.9 secs

     total energy              =    -501.02937502 Ry
     estimated scf accuracy    <       0.00296850 Ry

     iteration # 10     ecut=    30.00 Ry     beta= 0.50
     Davidson diagonalization with overlap
     ethr =  1.16E-06,  avg # of iterations =  7.0

     total cpu time spent up to now is        5.0 secs

     total energy              =    -501.02969173 Ry
     estimated scf accuracy    <       0.00283849 Ry

     iteration # 11     ecut=    30.00 Ry     beta= 0.50
     Davidson diagonalization with overlap
     ethr =  1.11E-06,  avg # of iterations =  2.0

     total cpu time spent up to now is        5.1 secs

     total energy              =    -501.02989208 Ry
     estimated scf accuracy    <       0.00121253 Ry

     iteration # 12     ecut=    30.00 Ry     beta= 0.50
     Davidson diagonalization with overlap
     ethr =  4.74E-07,  avg # of iterations =  2.0

     total cpu time spent up to now is        5.2 secs

     total energy              =    -501.03001041 Ry
     estimated scf accuracy    <       0.00033806 Ry

     iteration # 13     ecut=    30.00 Ry     beta= 0.50
     Davidson diagonalization with overlap
     ethr =  1.32E-07,  avg # of iterations =  2.0

     total cpu time spent up to now is        5.3 secs

     total energy              =    -501.03004210 Ry
     estimated scf accuracy    <       0.00015440 Ry

     iteration # 14     ecut=    30.00 Ry     beta= 0.50
     Davidson diagonalization with overlap
     ethr =  6.03E-08,  avg # of iterations =  2.0

     total cpu time spent up to now is        5.3 secs

     total energy              =    -501.03005627 Ry
     estimated scf accuracy    <       0.00002395 Ry

     iteration # 15     ecut=    30.00 Ry     beta= 0.50
     Davidson diagonalization with overlap
     ethr =  9.36E-09,  avg # of iterations =  3.0

     total cpu time spent up to now is        5.4 secs

     total energy              =    -501.03005734 Ry
     estimated scf accuracy    <       0.00002281 Ry

     iteration # 16     ecut=    30.00 Ry     beta= 0.50
     Davidson diagonalization with overlap
     ethr =  8.91E-09,  avg # of iterations =  3.0

     total cpu time spent up to now is        5.5 secs

     total energy              =    -501.03005899 Ry
     estimated scf accuracy    <       0.00003865 Ry

     iteration # 17     ecut=    30.00 Ry     beta= 0.50
     Davidson diagonalization with overlap
     ethr =  8.91E-09,  avg # of iterations =  2.0

     total cpu time spent up to now is        5.6 secs

     total energy              =    -501.03006130 Ry
     estimated scf accuracy    <       0.00000116 Ry

     iteration # 18     ecut=    30.00 Ry     beta= 0.50
     Davidson diagonalization with overlap
     ethr =  4.53E-10,  avg # of iterations =  5.0

     total cpu time spent up to now is        5.7 secs

     total energy              =    -501.03006151 Ry
     estimated scf accuracy    <       0.00000300 Ry

     iteration # 19     ecut=    30.00 Ry     beta= 0.50
     Davidson diagonalization with overlap
     ethr =  4.53E-10,  avg # of iterations =  3.0

     total cpu time spent up to now is        5.8 secs

     End of self-consistent calculation

          k = 0.0000 0.0000 0.0000 ( 11924 PWs)   bands (ev):

    -6.1308  -5.4606  -5.3103  -5.1723  -4.9520  -4.7355  -4.6910  -4.5042
    -4.4227  -4.2100  -4.0920  -3.9717  -3.8863  -3.7004  -3.5946  -3.4659
    -3.3022  -3.2061  -3.0855  -2.8157  -2.6332  -2.5403  -2.4093  -2.2384
    -2.1315  -2.1106  -2.0057  -1.8139  -1.5978  -1.5020  -1.3366  -1.1552
    -1.1360  -1.0945  -0.8605  -0.7804  -0.7572  -0.6285  -0.5644  -0.4322
    -0.3472  -0.2654  -0.1834  -0.1568  -0.0996   0.0472   0.1424   0.1869
     0.3964   0.5676   0.6483   0.7104   0.8345   0.9095   1.0278   1.1520
     1.2056   1.2281   1.2453   1.3922   1.5051   1.6351   1.7134   1.8390
     1.9150   2.0507   2.2064   2.2117   2.3770   2.3910   2.5107   2.5472
     2.6471   2.6599   2.7525   2.8941   3.0259   3.0721   3.1545   3.2778
     3.3349   3.4391   3.5673   3.5893   3.6603   3.8214   3.8434   3.9142
     4.0042   4.0919   4.1583   4.2107   4.2985   4.3543   4.4723   4.5016
     4.5209   4.5760   4.6319   4.6741   4.7182   4.8383   4.8596   4.8824
     4.9665   5.0342   5.0944   5.1550   5.2611   5.2878   5.3572   5.4438
     5.5209   5.5488   5.6153   5.6753   5.7496   5.7616   5.8304   5.8721
     5.9720   6.0422   6.0886   6.1379   6.1940   6.2347   6.3050   6.4357
     6.4469   6.5067   6.5685   6.6012   6.6563   6.7346   6.8265   6.8433
     6.9777   6.9986   7.0707   7.1340   7.1605   7.2208   7.3080   7.3178
     7.4639   7.5390   7.5779   7.6503   7.7297   7.7559   7.8241   7.8554
     7.9683   8.0876

     the Fermi energy is     6.4136 ev

!    total energy              =    -501.03006125 Ry
     estimated scf accuracy    <       0.00000064 Ry
     smearing contrib. (-TS)   =      -0.14810603 Ry
     internal energy E=F+TS    =    -500.88195522 Ry

     The total energy is F=E-TS. E is the sum of the following terms:
     one-electron contribution =     132.90505124 Ry
     hartree contribution      =      45.03939084 Ry
     xc contribution           =    -150.67623843 Ry
     ewald contribution        =    -528.15015887 Ry

     convergence has been achieved in  19 iterations

     Forces acting on atoms (cartesian axes, Ry/au):

     atom    1 type  1   force =    -0.02112475   -0.01414024    0.00404834
     atom    2 type  1   force =    -0.04924717   -0.02166222   -0.03443358
     atom    3 type  1   force =    -0.00095081   -0.01378436   -0.01994759
     atom    4 type  1   force =     0.04268806   -0.01449460    0.05307467
     atom    5 type  1   force =     0.02619115    0.05458513   -0.01461485
     atom    6 type  1   force =     0.04911862   -0.04923440    0.05517160
     atom    7 type  1   force =     0.04615119   -0.00064682    0.00690476
     atom    8 type  1   force =    -0.01094454    0.02036662   -0.00598387
     atom    9 type  1   force =    -0.02797346   -0.01874330    0.00540958
     atom   10 type  1   force =     0.02855273    0.01460246    0.02010545
     atom   11 type  1   force =    -0.00499117   -0.01883469    0.01677399
     atom   12 type  1   force =     0.06954667   -0.00450297   -0.07272257
     atom   13 type  1   force =     0.03192542   -0.02705904   -0.01332079
     atom   14 type  1   force =    -0.01263454    0.00254867    0.03133173
     atom   15 type  1   force =     0.03077225   -0.07270298   -0.00516912
     atom   16 type  1   force =    -0.04484767    0.01327862   -0.05918960
     atom   17 type  1   force =     0.02004370    0.03113077   -0.02955417
     atom   18 type  1   force =    -0.01044548   -0.04168407    0.01200201
     atom   19 type  1   force =     0.00862281   -0.04947380    0.01799934
     atom   20 type  1   force =    -0.02530700    0.04089600   -0.04732051
     atom   21 type  1   force =     0.01964587   -0.00923230   -0.01201214
     atom   22 type  1   force =     0.01698177    0.02744083   -0.01732902
     atom   23 type  1   force =    -0.01989791    0.00955120   -0.05373599
     atom   24 type  1   force =    -0.03837076    0.02304190    0.04012825
     atom   25 type  1   force =     0.05996295    0.06672942    0.04876606
     atom   26 type  1   force =     0.00714407    0.05367490    0.00303614
     atom   27 type  1   force =    -0.03558303    0.02434468    0.00394846
     atom   28 type  1   force =     0.04364353   -0.00608398    0.01652349
     atom   29 type  1   force =    -0.02506125    0.01017329   -0.00129320
     atom   30 type  1   force =    -0.01976294   -0.05523744    0.01069062
     atom   31 type  1   force =    -0.00784988   -0.00445301   -0.00137390
     atom   32 type  1   force =     0.04269213    0.01065807   -0.00082718
     atom   33 type  1   force =     0.00710285    0.00430046   -0.02522878
     atom   34 type  1   force =     0.01177353    0.05724655    0.03868016
     atom   35 type  1   force =    -0.03665709   -0.03161803   -0.04686263
     atom   36 type  1   force =    -0.03643672   -0.01918205   -0.01686609
     atom   37 type  1   force =    -0.00289011    0.00477753   -0.02266229
     atom   38 type  1   force =    -0.01453382    0.03131971   -0.02184139
     atom   39 type  1   force =     0.00584790   -0.01220670    0.03304738
     atom   40 type  1   force =     0.00921969   -0.00143080   -0.00327097
     atom   41 type  1   force =    -0.01656032    0.04111523    0.02066142
     atom   42 type  1   force =    -0.02700153    0.01886732    0.01455351
     atom   43 type  1   force =     0.02918124   -0.02363391    0.00095020
     atom   44 type  1   force =     0.01576678   -0.00368874   -0.02186316
     atom   45 type  1   force =     0.00771299   -0.07219331    0.01280920
     atom   46 type  1   force =    -0.04208447   -0.05518725   -0.01506185
     atom   47 type  1   force =     0.02043563   -0.00905026    0.00138817
     atom   48 type  1   force =     0.05028583    0.01250803   -0.04288434
     atom   49 type  1   force =     0.00786819   -0.00242853   -0.00061468
     atom   50 type  1   force =     0.01629827    0.02732844    0.02882783
     atom   51 type  1   force =    -0.04108082   -0.00549579    0.01967217
     atom   52 type  1   force =    -0.06222661   -0.04657369   -0.06284192
     atom   53 type  1   force =     0.01782452    0.00255328    0.00085971
     atom   54 type  1   force =    -0.04795881    0.02516417    0.04273856
     atom   55 type  1   force =     0.00226933   -0.01926866   -0.02388025
     atom   56 type  1   force =     0.00791848   -0.00583107    0.04108793
     atom   57 type  1   force =     0.00946511    0.00438035    0.03807278
     atom   58 type  1   force =     0.00203449   -0.00009599    0.00333582
     atom   59 type  1   force =    -0.00510689    0.01631341   -0.03824546
     atom   60 type  1   force =     0.03251325    0.05193799    0.09355339
     atom   61 type  1   force =    -0.04606904    0.03216912   -0.04058360
     atom   62 type  1   force =    -0.04333892    0.04392685   -0.00830507
     atom   63 type  1   force =    -0.00355931    0.01682964    0.02067842
     atom   64 type  1   force =    -0.01670421   -0.06390563    0.02300943

     Total force =     0.431842     Total SCF correction =     0.001595


     Computing stress (Cartesian axis) and pressure

          total   stress  (Ry/bohr**3)                   (kbar)     P=      -10.96
  -0.00006046   0.00001253   0.00011177           -8.89        1.84       16.44
   0.00001253  -0.00016074   0.00004939            1.84      -23.65        7.27
   0.00011177   0.00004939  -0.00000231           16.44        7.27       -0.34

 
     init_run     :      0.95s CPU      3.91s WALL (       1 calls)
     electrons    :      1.68s CPU      1.83s WALL (       1 calls)
     forces       :      0.03s CPU      0.03s WALL (       1 calls)
     stress       :      0.14s CPU      0.15s WALL (       1 calls)

     Called by init_run:
     wfcinit      :      0.43s CPU      3.26s WALL (       1 calls)
                                        3.26s GPU  (       1 calls)
     potinit      :      0.04s CPU      0.12s WALL (       1 calls)
     hinit0       :      0.45s CPU      0.47s WALL (       1 calls)

     Called by electrons:
     c_bands      :      1.07s CPU      1.15s WALL (      20 calls)
     sum_band     :      0.31s CPU      0.35s WALL (      20 calls)
     v_of_rho     :      0.14s CPU      0.22s WALL (      20 calls)
     mix_rho      :      0.15s CPU      0.16s WALL (      20 calls)

     Called by c_bands:
     init_us_2    :      0.05s CPU      0.05s WALL (      41 calls)
     init_us_2:gp :      0.05s CPU      0.05s WALL (      41 calls)
     regterg      :      0.93s CPU      1.00s WALL (      20 calls)

     Called by *egterg:
     rdiaghg      :      0.38s CPU      0.97s WALL (      84 calls)
                                        0.95s GPU  (      84 calls)
     h_psi        :      0.84s CPU      3.10s WALL (      86 calls)
                                        3.10s GPU  (      86 calls)
     g_psi        :      0.00s CPU      0.00s WALL (      65 calls)
                                        0.00s GPU  (      65 calls)

     Called by h_psi:
     h_psi:calbec :      0.41s CPU      2.61s WALL (      86 calls)
                                        2.61s GPU  (      86 calls)
     vloc_psi     :      0.38s CPU      0.44s WALL (      86 calls)
                                        0.44s GPU  (      86 calls)
     add_vuspsi   :      0.03s CPU      0.05s WALL (      86 calls)
                                        0.05s GPU  (      86 calls)

     General routines
     calbec       :      0.42s CPU      2.61s WALL (      91 calls)
     fft          :      0.55s CPU      0.66s WALL (     167 calls)
                                        0.11s GPU  (     106 calls)
     ffts         :      0.03s CPU      0.03s WALL (      20 calls)
     fftw         :      0.45s CPU      0.59s WALL (    2100 calls)
                                        0.52s GPU  (    2100 calls)
 
     Parallel routines
 
     PWSCF        :      2.84s CPU      5.99s WALL

 
   This run was terminated on:  15:16:12  11May2023            

=------------------------------------------------------------------------------=
   JOB DONE.
=------------------------------------------------------------------------------=
