An instance of this daemon is already running

     Program PWSCF v.7.1 starts on 11May2023 at 15: 6:33 

     This program is part of the open-source Quantum ESPRESSO suite
     for quantum simulation of materials; please cite
         "P. Giannozzi et al., J. Phys.:Condens. Matter 21 395502 (2009);
         "P. Giannozzi et al., J. Phys.:Condens. Matter 29 465901 (2017);
         "P. Giannozzi et al., J. Chem. Phys. 152 154105 (2020);
          URL http://www.quantum-espresso.org", 
     in publications or presentations arising from this work. More details at
     http://www.quantum-espresso.org/quote

     Parallel version (MPI & OpenMP), running on       4 processor cores
     Number of MPI processes:                 4
     Threads/MPI process:                     1

     MPI processes distributed on     1 nodes
     1005416 MiB available memory on the printing compute node when the environment starts
 
     Reading input from pw-si-8.in
Warning: card &CELL ignored
Warning: card / ignored

     Current dimensions of program PWSCF are:
     Max number of different atomic species (ntypx) = 10
     Max number of k-points (npk) =  40000
     Max angular momentum in pseudopotentials (lmaxx) =  4

     IMPORTANT: XC functional enforced from input :
     Exchange-correlation= PBE
                           (   1   4   3   4   0   0   0)
     Any further DFT definition will be discarded
     Please, verify this is what you really want


     gamma-point specific algorithms are used
 
     K-points division:     npool     =       2
     R & G space division:  proc/nbgrp/npool/nimage =       2
     Subspace diagonalization in iterative solution of the eigenvalue problem:
     a serial algorithm will be used

     Message from routine divide_et_impera:
     suboptimal parallelization: some nodes have no k-points
 
     Parallelization info
     --------------------
     sticks:   dense  smooth     PW     G-vecs:    dense   smooth      PW
     Min        2042    2042    542                98078    98078   13370
     Max        2043    2043    543                98079    98079   13375
     Sum        4085    4085   1085               196157   196157   26745
 
     Using Slab Decomposition
 


     bravais-lattice index     =            0
     lattice parameter (alat)  =      20.6874  a.u.
     unit-cell volume          =    8853.5516 (a.u.)^3
     number of atoms/cell      =           64
     number of atomic types    =            1
     number of electrons       =       256.00
     number of Kohn-Sham states=          154
     kinetic-energy cutoff     =      30.0000  Ry
     charge density cutoff     =     120.0000  Ry
     scf convergence threshold =      1.0E-06
     mixing beta               =       0.5000
     number of iterations used =            8  plain     mixing
     Exchange-correlation= PBE
                           (   1   4   3   4   0   0   0)

     GPU acceleration is ACTIVE.
     GPU-aware MPI enabled

     Message from routine print_cuda_info:
     High GPU oversubscription detected. Are you sure this is what you want?

     celldm(1)=  20.687397  celldm(2)=   0.000000  celldm(3)=   0.000000
     celldm(4)=   0.000000  celldm(5)=   0.000000  celldm(6)=   0.000000

     crystal axes: (cart. coord. in units of alat)
               a(1) = (   1.000000   0.000000   0.000000 )  
               a(2) = (   0.000000   1.000000   0.000000 )  
               a(3) = (   0.000000   0.000000   1.000000 )  

     reciprocal axes: (cart. coord. in units 2 pi/alat)
               b(1) = (  1.000000  0.000000  0.000000 )  
               b(2) = (  0.000000  1.000000  0.000000 )  
               b(3) = (  0.000000  0.000000  1.000000 )  


     PseudoPot. # 1 for Si read from file:
     /home/ppiaggi/pseudos/Si_ONCV_PBE_sr.upf
     MD5 check sum: 8553c464762ac42b85b1eed164b4d029
     Pseudo is Norm-conserving, Zval =  4.0
     Generated using ONCVPSP code by D. R. Hamann
     Using radial grid of 1510 points,  4 beta functions with: 
                l(1) =   0
                l(2) =   0
                l(3) =   1
                l(4) =   1

     atomic species   valence    mass     pseudopotential
        Si             4.00    28.08500     Si( 1.00)

     No symmetry found



   Cartesian axes

     site n.     atom                  positions (alat units)
         1           Si  tau(   1) = (   0.9045720   0.4829150   0.5219370  )
         2           Si  tau(   2) = (   0.4529280   0.9451270   0.0718844  )
         3           Si  tau(   3) = (   0.3240450   0.9618600   0.3160450  )
         4           Si  tau(   4) = (   0.7615530   0.5559470   0.9581140  )
         5           Si  tau(   5) = (   0.9694810   0.9618370   0.9938930  )
         6           Si  tau(   6) = (   0.4638160   0.6182850   0.1688970  )
         7           Si  tau(   7) = (   0.0336058   0.0468062   0.4816830  )
         8           Si  tau(   8) = (   0.1003840   0.2797500   0.2250610  )
         9           Si  tau(   9) = (   0.3873190   0.8362600   0.5336020  )
        10           Si  tau(  10) = (   0.9227590   0.9616420   0.6348120  )
        11           Si  tau(  11) = (   0.8507120   0.3749070   0.3015780  )
        12           Si  tau(  12) = (   0.3571670   0.2494820   0.8102840  )
        13           Si  tau(  13) = (   0.9810880   0.3196830   0.6304620  )
        14           Si  tau(  14) = (   0.0850384   0.5023130   0.1155370  )
        15           Si  tau(  15) = (   0.3432460   0.0294100   0.6401080  )
        16           Si  tau(  16) = (   0.5945760   0.7497880   0.7103990  )
        17           Si  tau(  17) = (   0.8519660   0.8494660   0.8197890  )
        18           Si  tau(  18) = (   0.0358220   0.5411140   0.3233970  )
        19           Si  tau(  19) = (   0.0475069   0.2554880   0.4360580  )
        20           Si  tau(  20) = (   0.8046560   0.1831380   0.3498110  )
        21           Si  tau(  21) = (   0.8202930   0.7102530   0.4232530  )
        22           Si  tau(  22) = (   0.6376820   0.9492060   0.8836240  )
        23           Si  tau(  23) = (   0.5327940   0.1212090   0.5603690  )
        24           Si  tau(  24) = (   0.7168970   0.3799320   0.0839665  )
        25           Si  tau(  25) = (   0.1546760   0.1414020   0.7047770  )
        26           Si  tau(  26) = (   0.4451340   0.1546330   0.3345240  )
        27           Si  tau(  27) = (   0.6399730   0.1895230   0.9049170  )
        28           Si  tau(  28) = (   0.6715640   0.2745090   0.4462220  )
        29           Si  tau(  29) = (   0.1005910   0.9012440   0.7530830  )
        30           Si  tau(  30) = (   0.3387400   0.4147290   0.1975850  )
        31           Si  tau(  31) = (   0.6507690   0.4845700   0.5349690  )
        32           Si  tau(  32) = (   0.7873190   0.3657560   0.8127170  )
        33           Si  tau(  33) = (   0.8108840   0.1035430   0.0339281  )
        34           Si  tau(  34) = (   0.4499780   0.4471360   0.0092750  )
        35           Si  tau(  35) = (   0.9889340   0.6826160   0.9441940  )
        36           Si  tau(  36) = (   0.2240880   0.4101970   0.8236000  )
        37           Si  tau(  37) = (   0.2527620   0.2904440   0.6196680  )
        38           Si  tau(  38) = (   0.2895240   0.6694580   0.4025690  )
        39           Si  tau(  39) = (   0.6635010   0.8341810   0.5218960  )
        40           Si  tau(  40) = (   0.2026090   0.4896990   0.4495500  )
        41           Si  tau(  41) = (   0.2006380   0.8868380   0.4855350  )
        42           Si  tau(  42) = (   0.1744280   0.3306590   0.0061822  )
        43           Si  tau(  43) = (   0.2251160   0.6357410   0.1681480  )
        44           Si  tau(  44) = (   0.4989270   0.3392290   0.6179470  )
        45           Si  tau(  45) = (   0.5160870   0.6505960   0.9142840  )
        46           Si  tau(  46) = (   0.6892030   0.0096602   0.6761060  )
        47           Si  tau(  47) = (   0.9847030   0.6583440   0.6407590  )
        48           Si  tau(  48) = (   0.0127957   0.2537580   0.8259210  )
        49           Si  tau(  49) = (   0.7651120   0.6501750   0.6568480  )
        50           Si  tau(  50) = (   0.9633890   0.4525500   0.9046420  )
        51           Si  tau(  51) = (   0.0695881   0.7866330   0.1196990  )
        52           Si  tau(  52) = (   0.1870210   0.0034808   0.1399200  )
        53           Si  tau(  53) = (   0.5743710   0.7465120   0.2842190  )
        54           Si  tau(  54) = (   0.6960560   0.9323750   0.1502140  )
        55           Si  tau(  55) = (   0.0426438   0.7396750   0.4280800  )
        56           Si  tau(  56) = (   0.6337900   0.0271859   0.3672540  )
        57           Si  tau(  57) = (   0.3830810   0.0278801   0.8670410  )
        58           Si  tau(  58) = (   0.9840850   0.0570548   0.2692820  )
        59           Si  tau(  59) = (   0.1885710   0.0356906   0.9372800  )
        60           Si  tau(  60) = (   0.9409180   0.2775930   0.0599401  )
        61           Si  tau(  61) = (   0.4639650   0.1460650   0.0565734  )
        62           Si  tau(  62) = (   0.6935540   0.5578210   0.3077340  )
        63           Si  tau(  63) = (   0.3134920   0.2728110   0.4300910  )
        64           Si  tau(  64) = (   0.5797410   0.2611300   0.2161560  )

     number of k points=     1  Fermi-Dirac smearing, width (Ry)=  0.0100
                       cart. coord. in units 2pi/alat
        k(    1) = (   0.0000000   0.0000000   0.0000000), wk =   2.0000000

     Dense  grid:    98079 G-vectors     FFT dimensions: (  75,  75,  75)

     Estimated max dynamical RAM per process >     158.22 MB

     Estimated total dynamical RAM >     608.94 MB

     Initial potential from superposition of free atoms

     starting charge     255.9608, renormalised to     256.0000
     Starting wfcs are  256 randomized atomic wfcs

     total cpu time spent up to now is        4.8 secs

     Self-consistent Calculation

     iteration #  1     ecut=    30.00 Ry     beta= 0.50
     Davidson diagonalization with overlap
     ethr =  1.00E-02,  avg # of iterations =  3.0

     Threshold (ethr) on eigenvalues was too large:
     Diagonalizing with lowered threshold

     Davidson diagonalization with overlap
     ethr =  6.67E-04,  avg # of iterations =  4.0

     total cpu time spent up to now is        5.2 secs

     total energy              =    -500.06220891 Ry
     estimated scf accuracy    <       2.20786358 Ry

     iteration #  2     ecut=    30.00 Ry     beta= 0.50
     Davidson diagonalization with overlap
     ethr =  8.62E-04,  avg # of iterations =  6.0

     total cpu time spent up to now is        5.3 secs

     total energy              =    -498.51038190 Ry
     estimated scf accuracy    <      25.15666857 Ry

     iteration #  3     ecut=    30.00 Ry     beta= 0.50
     Davidson diagonalization with overlap
     ethr =  8.62E-04,  avg # of iterations =  4.0

     total cpu time spent up to now is        5.5 secs

     total energy              =    -500.55211444 Ry
     estimated scf accuracy    <       2.44980040 Ry

     iteration #  4     ecut=    30.00 Ry     beta= 0.50
     Davidson diagonalization with overlap
     ethr =  8.62E-04,  avg # of iterations =  2.0

     total cpu time spent up to now is        5.7 secs

     total energy              =    -500.68323027 Ry
     estimated scf accuracy    <       1.29961322 Ry

     iteration #  5     ecut=    30.00 Ry     beta= 0.50
     Davidson diagonalization with overlap
     ethr =  5.08E-04,  avg # of iterations =  2.0

     total cpu time spent up to now is        5.8 secs

     total energy              =    -500.77638060 Ry
     estimated scf accuracy    <       0.72663384 Ry

     iteration #  6     ecut=    30.00 Ry     beta= 0.50
     Davidson diagonalization with overlap
     ethr =  2.84E-04,  avg # of iterations =  2.0

     total cpu time spent up to now is        5.9 secs

     total energy              =    -500.83269795 Ry
     estimated scf accuracy    <       0.08817060 Ry

     iteration #  7     ecut=    30.00 Ry     beta= 0.50
     Davidson diagonalization with overlap
     ethr =  3.44E-05,  avg # of iterations =  3.0

     total cpu time spent up to now is        6.0 secs

     total energy              =    -500.84112860 Ry
     estimated scf accuracy    <       0.09531943 Ry

     iteration #  8     ecut=    30.00 Ry     beta= 0.50
     Davidson diagonalization with overlap
     ethr =  3.44E-05,  avg # of iterations =  2.0

     total cpu time spent up to now is        6.1 secs

     total energy              =    -500.85040192 Ry
     estimated scf accuracy    <       0.01901579 Ry

     iteration #  9     ecut=    30.00 Ry     beta= 0.50
     Davidson diagonalization with overlap
     ethr =  7.43E-06,  avg # of iterations = 10.0

     total cpu time spent up to now is        6.3 secs

     total energy              =    -500.85230936 Ry
     estimated scf accuracy    <       0.00381483 Ry

     iteration # 10     ecut=    30.00 Ry     beta= 0.50
     Davidson diagonalization with overlap
     ethr =  1.49E-06,  avg # of iterations = 13.0

     total cpu time spent up to now is        6.5 secs

     total energy              =    -500.85246890 Ry
     estimated scf accuracy    <       0.00557372 Ry

     iteration # 11     ecut=    30.00 Ry     beta= 0.50
     Davidson diagonalization with overlap
     ethr =  1.49E-06,  avg # of iterations =  2.0

     total cpu time spent up to now is        6.6 secs

     total energy              =    -500.85284795 Ry
     estimated scf accuracy    <       0.00083913 Ry

     iteration # 12     ecut=    30.00 Ry     beta= 0.50
     Davidson diagonalization with overlap
     ethr =  3.28E-07,  avg # of iterations =  3.0

     total cpu time spent up to now is        6.7 secs

     total energy              =    -500.85294181 Ry
     estimated scf accuracy    <       0.00068373 Ry

     iteration # 13     ecut=    30.00 Ry     beta= 0.50
     Davidson diagonalization with overlap
     ethr =  2.67E-07,  avg # of iterations =  2.0

     total cpu time spent up to now is        6.8 secs

     total energy              =    -500.85299733 Ry
     estimated scf accuracy    <       0.00027792 Ry

     iteration # 14     ecut=    30.00 Ry     beta= 0.50
     Davidson diagonalization with overlap
     ethr =  1.09E-07,  avg # of iterations =  1.0

     total cpu time spent up to now is        7.0 secs

     total energy              =    -500.85301879 Ry
     estimated scf accuracy    <       0.00005542 Ry

     iteration # 15     ecut=    30.00 Ry     beta= 0.50
     Davidson diagonalization with overlap
     ethr =  2.16E-08,  avg # of iterations =  3.0

     total cpu time spent up to now is        7.1 secs

     total energy              =    -500.85302597 Ry
     estimated scf accuracy    <       0.00003482 Ry

     iteration # 16     ecut=    30.00 Ry     beta= 0.50
     Davidson diagonalization with overlap
     ethr =  1.36E-08,  avg # of iterations =  2.0

     total cpu time spent up to now is        7.2 secs

     total energy              =    -500.85302796 Ry
     estimated scf accuracy    <       0.00000860 Ry

     iteration # 17     ecut=    30.00 Ry     beta= 0.50
     Davidson diagonalization with overlap
     ethr =  3.36E-09,  avg # of iterations =  3.0

     total cpu time spent up to now is        7.3 secs

     total energy              =    -500.85302896 Ry
     estimated scf accuracy    <       0.00001168 Ry

     iteration # 18     ecut=    30.00 Ry     beta= 0.50
     Davidson diagonalization with overlap
     ethr =  3.36E-09,  avg # of iterations =  2.0

     total cpu time spent up to now is        7.4 secs

     End of self-consistent calculation

          k = 0.0000 0.0000 0.0000 ( 12287 PWs)   bands (ev):

    -6.6299  -5.9513  -5.8125  -5.5440  -5.3475  -5.2902  -5.0155  -4.8527
    -4.5646  -4.3592  -4.2790  -4.1797  -4.0869  -3.9434  -3.7792  -3.7549
    -3.5051  -3.4203  -3.3812  -3.2298  -3.1077  -2.9899  -2.8160  -2.3718
    -2.2995  -2.1846  -2.0885  -2.0269  -1.8783  -1.7193  -1.6373  -1.3992
    -1.3621  -1.2269  -1.1169  -1.0753  -0.9673  -0.8968  -0.8311  -0.7808
    -0.6760  -0.5263  -0.4953  -0.4148  -0.2395  -0.1325  -0.0909  -0.0351
     0.0790   0.1112   0.1894   0.4300   0.6091   0.6173   0.7380   0.8057
     0.8676   0.9636   1.1193   1.2146   1.3263   1.4773   1.6183   1.6427
     1.7977   1.9273   2.0173   2.0515   2.0992   2.2491   2.3128   2.3531
     2.3840   2.5011   2.5473   2.6087   2.7829   2.8638   2.9512   3.0187
     3.1177   3.1809   3.2428   3.3575   3.4867   3.5074   3.6113   3.6461
     3.7280   3.8245   3.8929   3.9628   4.0392   4.0661   4.2021   4.2168
     4.2550   4.2950   4.3647   4.3907   4.4325   4.5264   4.5479   4.6642
     4.7766   4.8352   4.8672   4.9642   5.0247   5.0545   5.1109   5.1802
     5.2442   5.2906   5.3401   5.4117   5.5116   5.5354   5.5780   5.6444
     5.6536   5.7213   5.8424   5.9012   5.9336   6.0087   6.0167   6.0999
     6.2003   6.2361   6.2841   6.3349   6.4191   6.4897   6.5611   6.6116
     6.6614   6.7706   6.7932   6.8626   6.9487   7.0282   7.1270   7.1666
     7.2020   7.3075   7.3690   7.3900   7.4666   7.5023   7.5629   7.5964
     7.6541   7.6735

     the Fermi energy is     6.1452 ev

!    total energy              =    -500.85302928 Ry
     estimated scf accuracy    <       0.00000074 Ry
     smearing contrib. (-TS)   =      -0.14752053 Ry
     internal energy E=F+TS    =    -500.70550875 Ry

     The total energy is F=E-TS. E is the sum of the following terms:
     one-electron contribution =      81.66151353 Ry
     hartree contribution      =      68.14042102 Ry
     xc contribution           =    -150.53877667 Ry
     ewald contribution        =    -499.96866665 Ry

     convergence has been achieved in  18 iterations

     Forces acting on atoms (cartesian axes, Ry/au):

     atom    1 type  1   force =    -0.01283166    0.01128442   -0.01617828
     atom    2 type  1   force =     0.00633727   -0.07811415    0.01546483
     atom    3 type  1   force =     0.01437960   -0.00265289   -0.02449160
     atom    4 type  1   force =    -0.03347538    0.01621488   -0.01853826
     atom    5 type  1   force =     0.03058224   -0.02638631   -0.02034018
     atom    6 type  1   force =    -0.06148268   -0.03173131   -0.04435702
     atom    7 type  1   force =     0.03660557   -0.00791628   -0.01833947
     atom    8 type  1   force =    -0.01445781   -0.00262251   -0.01119521
     atom    9 type  1   force =     0.09236215   -0.02421935    0.01109515
     atom   10 type  1   force =    -0.05103457   -0.01135371    0.02443040
     atom   11 type  1   force =     0.02857669    0.08861048   -0.02770426
     atom   12 type  1   force =     0.04880179   -0.03479833    0.01684252
     atom   13 type  1   force =     0.00181807    0.00987262   -0.01250348
     atom   14 type  1   force =    -0.04314256   -0.04994808   -0.03676297
     atom   15 type  1   force =     0.02008616   -0.00930480    0.02354148
     atom   16 type  1   force =    -0.05349201    0.03675987    0.03787264
     atom   17 type  1   force =     0.00359927   -0.01617727    0.01642246
     atom   18 type  1   force =    -0.01940924   -0.00487775    0.00900857
     atom   19 type  1   force =     0.01179020    0.00860152   -0.01283413
     atom   20 type  1   force =     0.11031254   -0.15185143   -0.07493084
     atom   21 type  1   force =     0.00346217   -0.00412502    0.02270809
     atom   22 type  1   force =     0.00813414   -0.01200662   -0.02411729
     atom   23 type  1   force =    -0.00280398    0.01878064   -0.00487850
     atom   24 type  1   force =     0.00871456   -0.01673896    0.00575269
     atom   25 type  1   force =    -0.03664867   -0.11072333    0.03298072
     atom   26 type  1   force =     0.01581067   -0.09896108    0.00444639
     atom   27 type  1   force =     0.01909132   -0.00446897    0.02238164
     atom   28 type  1   force =    -0.12433619    0.10287608    0.07642767
     atom   29 type  1   force =     0.00331204    0.00451980    0.01637407
     atom   30 type  1   force =     0.00109336    0.01592175    0.00817033
     atom   31 type  1   force =     0.02906250    0.00300340   -0.02595336
     atom   32 type  1   force =    -0.01674518   -0.00763332   -0.00016144
     atom   33 type  1   force =    -0.01722341   -0.00192544    0.01585641
     atom   34 type  1   force =     0.01682278    0.00500755   -0.01797851
     atom   35 type  1   force =    -0.02669834   -0.01595504   -0.01664274
     atom   36 type  1   force =    -0.01669141    0.04146654   -0.03035815
     atom   37 type  1   force =    -0.00070788    0.08932450   -0.01019319
     atom   38 type  1   force =     0.02271723    0.05298494   -0.03734377
     atom   39 type  1   force =    -0.00261306    0.02171303   -0.03510247
     atom   40 type  1   force =    -0.00485881   -0.08088894    0.03225879
     atom   41 type  1   force =    -0.10836126    0.04076137   -0.02262763
     atom   42 type  1   force =    -0.01581311   -0.04433070    0.05102185
     atom   43 type  1   force =     0.09077690    0.05287984    0.04423880
     atom   44 type  1   force =    -0.02461181   -0.01990120    0.00516090
     atom   45 type  1   force =     0.03000670   -0.02981286    0.02817684
     atom   46 type  1   force =     0.02629867   -0.01902477   -0.00748121
     atom   47 type  1   force =    -0.00733086    0.00468203   -0.01800968
     atom   48 type  1   force =     0.00642837   -0.00796469    0.04209965
     atom   49 type  1   force =     0.04207865   -0.02798035   -0.01498923
     atom   50 type  1   force =     0.03106334    0.04295537    0.03551772
     atom   51 type  1   force =     0.00160928    0.04279930   -0.00212663
     atom   52 type  1   force =    -0.00956091   -0.02861823    0.06037419
     atom   53 type  1   force =     0.02127064    0.05042501    0.02045685
     atom   54 type  1   force =    -0.03745034    0.00759741    0.01971167
     atom   55 type  1   force =    -0.01680368   -0.01637186   -0.00002369
     atom   56 type  1   force =    -0.00780419   -0.00898078   -0.01267425
     atom   57 type  1   force =     0.03273195    0.00203627   -0.03751227
     atom   58 type  1   force =    -0.00287320    0.02897160   -0.01923910
     atom   59 type  1   force =    -0.06996327    0.02453243   -0.04465215
     atom   60 type  1   force =     0.00199209    0.01157958    0.01534225
     atom   61 type  1   force =     0.02924699    0.09985200   -0.01510628
     atom   62 type  1   force =     0.00774389   -0.01761910    0.04181547
     atom   63 type  1   force =    -0.04309688    0.06542898   -0.02280246
     atom   64 type  1   force =     0.02760257    0.02454220   -0.01780135

     Total force =     0.530932     Total SCF correction =     0.001520


     Computing stress (Cartesian axis) and pressure

          total   stress  (Ry/bohr**3)                   (kbar)     P=      -12.81
  -0.00015039  -0.00003944  -0.00010543          -22.12       -5.80      -15.51
  -0.00003944  -0.00003238   0.00001035           -5.80       -4.76        1.52
  -0.00010543   0.00001035  -0.00007847          -15.51        1.52      -11.54

 
     init_run     :      0.62s CPU      4.77s WALL (       1 calls)
     electrons    :      2.10s CPU      2.57s WALL (       1 calls)
     forces       :      0.03s CPU      0.03s WALL (       1 calls)
     stress       :      0.15s CPU      0.25s WALL (       1 calls)

     Called by init_run:
     wfcinit      :      0.44s CPU      4.44s WALL (       1 calls)
                                        4.44s GPU  (       1 calls)
     potinit      :      0.03s CPU      0.11s WALL (       1 calls)
     hinit0       :      0.13s CPU      0.16s WALL (       1 calls)

     Called by electrons:
     c_bands      :      1.43s CPU      1.71s WALL (      19 calls)
     sum_band     :      0.35s CPU      0.51s WALL (      19 calls)
     v_of_rho     :      0.14s CPU      0.22s WALL (      19 calls)
     mix_rho      :      0.14s CPU      0.16s WALL (      19 calls)

     Called by c_bands:
     init_us_2    :      0.05s CPU      0.05s WALL (      39 calls)
     init_us_2:gp :      0.05s CPU      0.05s WALL (      39 calls)
     regterg      :      1.29s CPU      1.57s WALL (      19 calls)

     Called by *egterg:
     rdiaghg      :      0.51s CPU      1.39s WALL (      87 calls)
                                        1.37s GPU  (      87 calls)
     h_psi        :      1.05s CPU      4.20s WALL (      89 calls)
                                        4.20s GPU  (      89 calls)
     g_psi        :      0.00s CPU      0.00s WALL (      69 calls)
                                        0.00s GPU  (      69 calls)

     Called by h_psi:
     h_psi:calbec :      0.41s CPU      3.50s WALL (      89 calls)
                                        3.50s GPU  (      89 calls)
     vloc_psi     :      0.58s CPU      0.65s WALL (      89 calls)
                                        0.65s GPU  (      89 calls)
     add_vuspsi   :      0.03s CPU      0.05s WALL (      89 calls)
                                        0.05s GPU  (      89 calls)

     General routines
     calbec       :      0.42s CPU      3.50s WALL (      94 calls)
     fft          :      0.24s CPU      0.36s WALL (     159 calls)
                                        0.11s GPU  (     101 calls)
     ffts         :      0.04s CPU      0.05s WALL (      19 calls)
     fftw         :      0.65s CPU      0.83s WALL (    2007 calls)
                                        0.75s GPU  (    2007 calls)
 
     Parallel routines
 
     PWSCF        :      2.94s CPU      7.70s WALL

 
   This run was terminated on:  15: 6:41  11May2023            

=------------------------------------------------------------------------------=
   JOB DONE.
=------------------------------------------------------------------------------=
