An instance of this daemon is already running

     Program PWSCF v.7.1 starts on 11May2023 at 15:19:19 

     This program is part of the open-source Quantum ESPRESSO suite
     for quantum simulation of materials; please cite
         "P. Giannozzi et al., J. Phys.:Condens. Matter 21 395502 (2009);
         "P. Giannozzi et al., J. Phys.:Condens. Matter 29 465901 (2017);
         "P. Giannozzi et al., J. Chem. Phys. 152 154105 (2020);
          URL http://www.quantum-espresso.org", 
     in publications or presentations arising from this work. More details at
     http://www.quantum-espresso.org/quote

     Parallel version (MPI & OpenMP), running on       4 processor cores
     Number of MPI processes:                 4
     Threads/MPI process:                     1

     MPI processes distributed on     1 nodes
     1001232 MiB available memory on the printing compute node when the environment starts
 
     Reading input from pw-si-95.in
Warning: card &CELL ignored
Warning: card / ignored

     Current dimensions of program PWSCF are:
     Max number of different atomic species (ntypx) = 10
     Max number of k-points (npk) =  40000
     Max angular momentum in pseudopotentials (lmaxx) =  4

     IMPORTANT: XC functional enforced from input :
     Exchange-correlation= PBE
                           (   1   4   3   4   0   0   0)
     Any further DFT definition will be discarded
     Please, verify this is what you really want


     gamma-point specific algorithms are used
 
     K-points division:     npool     =       2
     R & G space division:  proc/nbgrp/npool/nimage =       2
     Subspace diagonalization in iterative solution of the eigenvalue problem:
     a serial algorithm will be used

     Message from routine divide_et_impera:
     suboptimal parallelization: some nodes have no k-points
 
     Parallelization info
     --------------------
     sticks:   dense  smooth     PW     G-vecs:    dense   smooth      PW
     Min        1984    1984    519                93503    93503   12703
     Max        1985    1985    522                93504    93504   12710
     Sum        3969    3969   1041               187007   187007   25413
 
     Using Slab Decomposition
 


     bravais-lattice index     =            0
     lattice parameter (alat)  =      20.3501  a.u.
     unit-cell volume          =    8427.5066 (a.u.)^3
     number of atoms/cell      =           64
     number of atomic types    =            1
     number of electrons       =       256.00
     number of Kohn-Sham states=          154
     kinetic-energy cutoff     =      30.0000  Ry
     charge density cutoff     =     120.0000  Ry
     scf convergence threshold =      1.0E-06
     mixing beta               =       0.5000
     number of iterations used =            8  plain     mixing
     Exchange-correlation= PBE
                           (   1   4   3   4   0   0   0)

     GPU acceleration is ACTIVE.
     GPU-aware MPI enabled

     Message from routine print_cuda_info:
     High GPU oversubscription detected. Are you sure this is what you want?

     celldm(1)=  20.350092  celldm(2)=   0.000000  celldm(3)=   0.000000
     celldm(4)=   0.000000  celldm(5)=   0.000000  celldm(6)=   0.000000

     crystal axes: (cart. coord. in units of alat)
               a(1) = (   1.000000   0.000000   0.000000 )  
               a(2) = (   0.000000   1.000000   0.000000 )  
               a(3) = (   0.000000   0.000000   1.000000 )  

     reciprocal axes: (cart. coord. in units 2 pi/alat)
               b(1) = (  1.000000  0.000000  0.000000 )  
               b(2) = (  0.000000  1.000000  0.000000 )  
               b(3) = (  0.000000  0.000000  1.000000 )  


     PseudoPot. # 1 for Si read from file:
     /home/ppiaggi/pseudos/Si_ONCV_PBE_sr.upf
     MD5 check sum: 8553c464762ac42b85b1eed164b4d029
     Pseudo is Norm-conserving, Zval =  4.0
     Generated using ONCVPSP code by D. R. Hamann
     Using radial grid of 1510 points,  4 beta functions with: 
                l(1) =   0
                l(2) =   0
                l(3) =   1
                l(4) =   1

     atomic species   valence    mass     pseudopotential
        Si             4.00    28.08500     Si( 1.00)

     No symmetry found



   Cartesian axes

     site n.     atom                  positions (alat units)
         1           Si  tau(   1) = (   0.9022110   0.6757050   0.2311850  )
         2           Si  tau(   2) = (   0.8148820   0.4670590   0.7655630  )
         3           Si  tau(   3) = (   0.2310200   0.7858640   0.7110350  )
         4           Si  tau(   4) = (   0.2953590   0.3581760   0.8445630  )
         5           Si  tau(   5) = (   0.4821100   0.2747870   0.0468463  )
         6           Si  tau(   6) = (   0.4202730   0.9603020   0.1827570  )
         7           Si  tau(   7) = (   0.8660490   0.9049350   0.2147380  )
         8           Si  tau(   8) = (   0.0852889   0.4596870   0.9612800  )
         9           Si  tau(   9) = (   0.7715250   0.1095670   0.1160740  )
        10           Si  tau(  10) = (   0.8045510   0.0304047   0.7911410  )
        11           Si  tau(  11) = (   0.5501000   0.0559418   0.5247040  )
        12           Si  tau(  12) = (   0.1143770   0.2265000   0.4919130  )
        13           Si  tau(  13) = (   0.3643040   0.8964450   0.5343420  )
        14           Si  tau(  14) = (   0.4931250   0.0515705   0.0137079  )
        15           Si  tau(  15) = (   0.1127350   0.6461160   0.1450920  )
        16           Si  tau(  16) = (   0.3890180   0.4215850   0.3306250  )
        17           Si  tau(  17) = (   0.3479520   0.7258330   0.0866955  )
        18           Si  tau(  18) = (   0.2603730   0.0667265   0.3594500  )
        19           Si  tau(  19) = (   0.0049260   0.0312450   0.4931370  )
        20           Si  tau(  20) = (   0.2681430   0.6121840   0.8399450  )
        21           Si  tau(  21) = (   0.5632160   0.5277000   0.4639640  )
        22           Si  tau(  22) = (   0.9410400   0.1086440   0.3042710  )
        23           Si  tau(  23) = (   0.6039160   0.8013680   0.9480510  )
        24           Si  tau(  24) = (   0.5178900   0.3506470   0.6261250  )
        25           Si  tau(  25) = (   0.6012030   0.3674490   0.2197460  )
        26           Si  tau(  26) = (   0.3169420   0.8280100   0.8893510  )
        27           Si  tau(  27) = (   0.9540320   0.9963170   0.9668660  )
        28           Si  tau(  28) = (   0.4450520   0.9792140   0.8022710  )
        29           Si  tau(  29) = (   0.6727080   0.2011440   0.3444140  )
        30           Si  tau(  30) = (   0.7766580   0.3375980   0.5416560  )
        31           Si  tau(  31) = (   0.9177840   0.4557060   0.1381690  )
        32           Si  tau(  32) = (   0.1673870   0.6017440   0.6223830  )
        33           Si  tau(  33) = (   0.2480820   0.0195906   0.0295276  )
        34           Si  tau(  34) = (   0.2430620   0.4104140   0.1630340  )
        35           Si  tau(  35) = (   0.2418650   0.3986860   0.6374350  )
        36           Si  tau(  36) = (   0.0650331   0.3845220   0.3301000  )
        37           Si  tau(  37) = (   0.2067570   0.8517320   0.3605580  )
        38           Si  tau(  38) = (   0.6006220   0.4243950   0.8234360  )
        39           Si  tau(  39) = (   0.6003600   0.1269300   0.7356340  )
        40           Si  tau(  40) = (   0.9133360   0.6077650   0.5711340  )
        41           Si  tau(  41) = (   0.5050480   0.7296680   0.6088250  )
        42           Si  tau(  42) = (   0.4253220   0.2312340   0.4301770  )
        43           Si  tau(  43) = (   0.7053480   0.5843230   0.9292920  )
        44           Si  tau(  44) = (   0.6761740   0.2307630   0.9516630  )
        45           Si  tau(  45) = (   0.6411080   0.9874880   0.2726090  )
        46           Si  tau(  46) = (   0.8693700   0.3345780   0.9279790  )
        47           Si  tau(  47) = (   0.3077080   0.1975630   0.1836860  )
        48           Si  tau(  48) = (   0.2635450   0.1358110   0.8376660  )
        49           Si  tau(  49) = (   0.0221935   0.3775050   0.7229360  )
        50           Si  tau(  50) = (   0.7191290   0.6346670   0.6587600  )
        51           Si  tau(  51) = (   0.0089384   0.1808180   0.1145230  )
        52           Si  tau(  52) = (   0.9350050   0.8333330   0.5676240  )
        53           Si  tau(  53) = (   0.0927449   0.8085650   0.9341650  )
        54           Si  tau(  54) = (   0.7276960   0.5469220   0.1495420  )
        55           Si  tau(  55) = (   0.4805140   0.6013980   0.7680270  )
        56           Si  tau(  56) = (   0.1833370   0.0073886   0.6620630  )
        57           Si  tau(  57) = (   0.9238910   0.6575650   0.8871670  )
        58           Si  tau(  58) = (   0.4783330   0.5617220   0.1897470  )
        59           Si  tau(  59) = (   0.9084310   0.2224020   0.6718010  )
        60           Si  tau(  60) = (   0.1063910   0.9103180   0.1625160  )
        61           Si  tau(  61) = (   0.7820460   0.8201770   0.8106590  )
        62           Si  tau(  62) = (   0.7260100   0.7769200   0.3713090  )
        63           Si  tau(  63) = (   0.0528078   0.6805430   0.4108260  )
        64           Si  tau(  64) = (   0.7158720   0.8670380   0.5914130  )

     number of k points=     1  Fermi-Dirac smearing, width (Ry)=  0.0100
                       cart. coord. in units 2pi/alat
        k(    1) = (   0.0000000   0.0000000   0.0000000), wk =   2.0000000

     Dense  grid:    93504 G-vectors     FFT dimensions: (  72,  72,  72)

     Estimated max dynamical RAM per process >     149.64 MB

     Estimated total dynamical RAM >     575.72 MB

     Initial potential from superposition of free atoms

     starting charge     255.9608, renormalised to     256.0000
     Starting wfcs are  256 randomized atomic wfcs

     total cpu time spent up to now is        4.4 secs

     Self-consistent Calculation

     iteration #  1     ecut=    30.00 Ry     beta= 0.50
     Davidson diagonalization with overlap
     ethr =  1.00E-02,  avg # of iterations =  3.0

     Threshold (ethr) on eigenvalues was too large:
     Diagonalizing with lowered threshold

     Davidson diagonalization with overlap
     ethr =  5.26E-04,  avg # of iterations =  4.0

     total cpu time spent up to now is        4.6 secs

     total energy              =    -500.57103003 Ry
     estimated scf accuracy    <       1.75910531 Ry

     iteration #  2     ecut=    30.00 Ry     beta= 0.50
     Davidson diagonalization with overlap
     ethr =  6.87E-04,  avg # of iterations =  5.0

     total cpu time spent up to now is        4.7 secs

     total energy              =    -499.90199337 Ry
     estimated scf accuracy    <      10.05638665 Ry

     iteration #  3     ecut=    30.00 Ry     beta= 0.50
     Davidson diagonalization with overlap
     ethr =  6.87E-04,  avg # of iterations =  5.0

     total cpu time spent up to now is        4.8 secs

     total energy              =    -500.76470318 Ry
     estimated scf accuracy    <       3.56502147 Ry

     iteration #  4     ecut=    30.00 Ry     beta= 0.50
     Davidson diagonalization with overlap
     ethr =  6.87E-04,  avg # of iterations =  2.0

     total cpu time spent up to now is        4.9 secs

     total energy              =    -501.02276549 Ry
     estimated scf accuracy    <       0.75043243 Ry

     iteration #  5     ecut=    30.00 Ry     beta= 0.50
     Davidson diagonalization with overlap
     ethr =  2.93E-04,  avg # of iterations =  3.0

     total cpu time spent up to now is        5.0 secs

     total energy              =    -501.04971871 Ry
     estimated scf accuracy    <       0.87400309 Ry

     iteration #  6     ecut=    30.00 Ry     beta= 0.50
     Davidson diagonalization with overlap
     ethr =  2.93E-04,  avg # of iterations =  2.0

     total cpu time spent up to now is        5.1 secs

     total energy              =    -501.11775350 Ry
     estimated scf accuracy    <       0.11482256 Ry

     iteration #  7     ecut=    30.00 Ry     beta= 0.50
     Davidson diagonalization with overlap
     ethr =  4.49E-05,  avg # of iterations =  2.0

     total cpu time spent up to now is        5.1 secs

     total energy              =    -501.13185812 Ry
     estimated scf accuracy    <       0.02547242 Ry

     iteration #  8     ecut=    30.00 Ry     beta= 0.50
     Davidson diagonalization with overlap
     ethr =  9.95E-06,  avg # of iterations = 16.0

     total cpu time spent up to now is        5.3 secs

     total energy              =    -501.13397453 Ry
     estimated scf accuracy    <       0.03598287 Ry

     iteration #  9     ecut=    30.00 Ry     beta= 0.50
     Davidson diagonalization with overlap
     ethr =  9.95E-06,  avg # of iterations =  2.0

     total cpu time spent up to now is        5.4 secs

     total energy              =    -501.13661189 Ry
     estimated scf accuracy    <       0.00382498 Ry

     iteration # 10     ecut=    30.00 Ry     beta= 0.50
     Davidson diagonalization with overlap
     ethr =  1.49E-06,  avg # of iterations =  8.0

     total cpu time spent up to now is        5.5 secs

     total energy              =    -501.13701445 Ry
     estimated scf accuracy    <       0.00283391 Ry

     iteration # 11     ecut=    30.00 Ry     beta= 0.50
     Davidson diagonalization with overlap
     ethr =  1.11E-06,  avg # of iterations =  2.0

     total cpu time spent up to now is        5.6 secs

     total energy              =    -501.13725530 Ry
     estimated scf accuracy    <       0.00109814 Ry

     iteration # 12     ecut=    30.00 Ry     beta= 0.50
     Davidson diagonalization with overlap
     ethr =  4.29E-07,  avg # of iterations =  2.0

     total cpu time spent up to now is        5.7 secs

     total energy              =    -501.13731849 Ry
     estimated scf accuracy    <       0.00021522 Ry

     iteration # 13     ecut=    30.00 Ry     beta= 0.50
     Davidson diagonalization with overlap
     ethr =  8.41E-08,  avg # of iterations =  5.0

     total cpu time spent up to now is        5.8 secs

     total energy              =    -501.13731970 Ry
     estimated scf accuracy    <       0.00092305 Ry

     iteration # 14     ecut=    30.00 Ry     beta= 0.50
     Davidson diagonalization with overlap
     ethr =  8.41E-08,  avg # of iterations =  3.0

     total cpu time spent up to now is        5.9 secs

     total energy              =    -501.13737537 Ry
     estimated scf accuracy    <       0.00004274 Ry

     iteration # 15     ecut=    30.00 Ry     beta= 0.50
     Davidson diagonalization with overlap
     ethr =  1.67E-08,  avg # of iterations =  5.0

     total cpu time spent up to now is        6.0 secs

     total energy              =    -501.13738102 Ry
     estimated scf accuracy    <       0.00001831 Ry

     iteration # 16     ecut=    30.00 Ry     beta= 0.50
     Davidson diagonalization with overlap
     ethr =  7.15E-09,  avg # of iterations =  3.0

     total cpu time spent up to now is        6.1 secs

     total energy              =    -501.13738256 Ry
     estimated scf accuracy    <       0.00001519 Ry

     iteration # 17     ecut=    30.00 Ry     beta= 0.50
     Davidson diagonalization with overlap
     ethr =  5.93E-09,  avg # of iterations =  2.0

     total cpu time spent up to now is        6.2 secs

     total energy              =    -501.13738338 Ry
     estimated scf accuracy    <       0.00000518 Ry

     iteration # 18     ecut=    30.00 Ry     beta= 0.50
     Davidson diagonalization with overlap
     ethr =  2.03E-09,  avg # of iterations =  3.0

     total cpu time spent up to now is        6.2 secs

     total energy              =    -501.13738375 Ry
     estimated scf accuracy    <       0.00000663 Ry

     iteration # 19     ecut=    30.00 Ry     beta= 0.50
     Davidson diagonalization with overlap
     ethr =  2.03E-09,  avg # of iterations =  2.0

     total cpu time spent up to now is        6.3 secs

     total energy              =    -501.13738409 Ry
     estimated scf accuracy    <       0.00000105 Ry

     iteration # 20     ecut=    30.00 Ry     beta= 0.50
     Davidson diagonalization with overlap
     ethr =  4.09E-10,  avg # of iterations =  2.0

     total cpu time spent up to now is        6.4 secs

     End of self-consistent calculation

          k = 0.0000 0.0000 0.0000 ( 11720 PWs)   bands (ev):

    -6.0921  -5.5823  -5.2606  -4.8383  -4.6672  -4.6102  -4.4839  -4.2751
    -4.0221  -3.8219  -3.7956  -3.5776  -3.5149  -3.3539  -3.3477  -3.1401
    -3.0492  -2.9361  -2.6599  -2.6244  -2.5165  -2.3968  -2.0849  -2.0327
    -1.9438  -1.8454  -1.7675  -1.4872  -1.3076  -1.1514  -1.0275  -0.8901
    -0.7480  -0.6822  -0.6652  -0.4961  -0.4083  -0.3368  -0.2289  -0.2001
    -0.1196  -0.0463   0.1140   0.1865   0.2502   0.2985   0.4062   0.4338
     0.5853   0.6175   0.7902   0.8773   0.9566   1.0254   1.1753   1.2195
     1.3352   1.4787   1.6369   1.7600   1.8163   1.9482   2.0223   2.1137
     2.1333   2.1925   2.3367   2.4040   2.4936   2.6307   2.7766   2.8390
     2.8962   2.9851   3.0284   3.1268   3.2237   3.3042   3.3735   3.4233
     3.5321   3.6762   3.7798   3.8291   3.9336   4.0283   4.1447   4.1634
     4.2459   4.3464   4.4259   4.4440   4.5349   4.5938   4.6467   4.6883
     4.7498   4.8676   4.9626   5.0331   5.1060   5.1251   5.2506   5.2968
     5.3341   5.3916   5.4166   5.4489   5.5360   5.6551   5.7095   5.7437
     5.8034   5.8771   5.9084   5.9835   5.9949   6.0284   6.1517   6.2197
     6.2609   6.2840   6.3523   6.5038   6.5424   6.5604   6.6413   6.6729
     6.7529   6.8216   6.8732   6.9216   6.9593   7.0678   7.1534   7.1751
     7.2295   7.2606   7.4201   7.4467   7.4579   7.5558   7.5932   7.6532
     7.7441   7.7967   7.8674   7.9521   8.0072   8.0944   8.1754   8.2062
     8.2811   8.2853

     the Fermi energy is     6.7226 ev

!    total energy              =    -501.13738375 Ry
     estimated scf accuracy    <       0.00000059 Ry
     smearing contrib. (-TS)   =      -0.14870020 Ry
     internal energy E=F+TS    =    -500.98868355 Ry

     The total energy is F=E-TS. E is the sum of the following terms:
     one-electron contribution =     146.03684512 Ry
     hartree contribution      =      41.04496414 Ry
     xc contribution           =    -150.82734390 Ry
     ewald contribution        =    -537.24314891 Ry

     convergence has been achieved in  20 iterations

     Forces acting on atoms (cartesian axes, Ry/au):

     atom    1 type  1   force =    -0.01065987    0.02957518    0.02952758
     atom    2 type  1   force =     0.02527572    0.00958891   -0.02846672
     atom    3 type  1   force =    -0.03888798    0.05523530   -0.08702777
     atom    4 type  1   force =    -0.00648984   -0.02740772    0.03631138
     atom    5 type  1   force =    -0.02451546    0.03037215    0.00217111
     atom    6 type  1   force =    -0.00929807   -0.05020896    0.06486216
     atom    7 type  1   force =     0.01087012   -0.00360110   -0.01525679
     atom    8 type  1   force =     0.02521517    0.02490903   -0.01765404
     atom    9 type  1   force =     0.01678712   -0.01095371    0.02318711
     atom   10 type  1   force =     0.00771048    0.05984872   -0.01182400
     atom   11 type  1   force =     0.00880667   -0.02513216   -0.00490616
     atom   12 type  1   force =     0.03518011    0.01822297   -0.00277524
     atom   13 type  1   force =    -0.00874598    0.01216456    0.00748180
     atom   14 type  1   force =     0.02073834    0.00998152   -0.06377719
     atom   15 type  1   force =     0.03536555    0.02047680   -0.03351247
     atom   16 type  1   force =     0.01991272    0.01353501    0.02729258
     atom   17 type  1   force =    -0.01422458    0.01728517    0.01319771
     atom   18 type  1   force =     0.00941211    0.04259979    0.01003225
     atom   19 type  1   force =     0.03238836   -0.01562912    0.04533762
     atom   20 type  1   force =    -0.01423440   -0.06158705    0.03281019
     atom   21 type  1   force =    -0.00144087    0.02547245    0.01220339
     atom   22 type  1   force =    -0.04094224    0.00338215   -0.01238019
     atom   23 type  1   force =    -0.01117743   -0.02155728   -0.01607794
     atom   24 type  1   force =     0.00640830   -0.02015906   -0.02341420
     atom   25 type  1   force =    -0.01950622   -0.00135336   -0.02108904
     atom   26 type  1   force =     0.02320052    0.00839608    0.09580745
     atom   27 type  1   force =    -0.00569939   -0.00019595    0.02014522
     atom   28 type  1   force =     0.01007645    0.05035438   -0.00228557
     atom   29 type  1   force =     0.03071505   -0.01163435    0.03165687
     atom   30 type  1   force =    -0.04199470    0.00812276   -0.02028758
     atom   31 type  1   force =     0.04591475   -0.04270539   -0.01882444
     atom   32 type  1   force =    -0.04548483   -0.00529439   -0.01794915
     atom   33 type  1   force =    -0.01578866    0.01650678    0.00153650
     atom   34 type  1   force =    -0.04014070   -0.00856587    0.00713923
     atom   35 type  1   force =    -0.00968912   -0.02456959   -0.02813840
     atom   36 type  1   force =     0.00892979    0.00814118   -0.03557276
     atom   37 type  1   force =    -0.00212933   -0.00926049    0.00030886
     atom   38 type  1   force =    -0.00633955   -0.03427935    0.01075128
     atom   39 type  1   force =     0.02470776    0.00878806    0.00718503
     atom   40 type  1   force =     0.04075129   -0.03734322    0.01182645
     atom   41 type  1   force =     0.01878300    0.02054803   -0.06881252
     atom   42 type  1   force =     0.00236148   -0.01706148    0.02104031
     atom   43 type  1   force =    -0.00747137    0.05240987    0.04004691
     atom   44 type  1   force =    -0.00115285   -0.01332305   -0.02690527
     atom   45 type  1   force =    -0.00727713   -0.01075820    0.00326276
     atom   46 type  1   force =     0.03116706   -0.01634037    0.04254574
     atom   47 type  1   force =    -0.00955031   -0.01082278   -0.00475334
     atom   48 type  1   force =     0.00786571   -0.00746536   -0.01382896
     atom   49 type  1   force =     0.07337651    0.09133604    0.04182736
     atom   50 type  1   force =    -0.03347699    0.02887023    0.00146737
     atom   51 type  1   force =     0.00622710    0.01903668   -0.03088763
     atom   52 type  1   force =     0.00326853    0.01096386   -0.01826111
     atom   53 type  1   force =    -0.01516598   -0.00304586    0.03748551
     atom   54 type  1   force =    -0.04651744   -0.00011226   -0.00052132
     atom   55 type  1   force =    -0.01218219   -0.00649927    0.04875274
     atom   56 type  1   force =     0.01157245   -0.01748868   -0.01826168
     atom   57 type  1   force =     0.00964270   -0.00491287   -0.01962266
     atom   58 type  1   force =     0.01534141    0.01767307   -0.00527996
     atom   59 type  1   force =    -0.04704417   -0.12672743   -0.02010318
     atom   60 type  1   force =    -0.01640583   -0.02566523   -0.00488975
     atom   61 type  1   force =    -0.01655062   -0.04729900   -0.00331283
     atom   62 type  1   force =     0.01206839    0.00854402    0.00842625
     atom   63 type  1   force =    -0.00165174   -0.00379829   -0.01649367
     atom   64 type  1   force =    -0.04820486    0.00041750   -0.02247315

     Total force =     0.403905     Total SCF correction =     0.001553


     Computing stress (Cartesian axis) and pressure

          total   stress  (Ry/bohr**3)                   (kbar)     P=      -20.05
  -0.00017452   0.00002065  -0.00001566          -25.67        3.04       -2.30
   0.00002065  -0.00011218  -0.00008701            3.04      -16.50      -12.80
  -0.00001566  -0.00008701  -0.00012224           -2.30      -12.80      -17.98

 
     init_run     :      0.95s CPU      4.32s WALL (       1 calls)
     electrons    :      1.90s CPU      2.01s WALL (       1 calls)
     forces       :      0.03s CPU      0.03s WALL (       1 calls)
     stress       :      0.14s CPU      0.15s WALL (       1 calls)

     Called by init_run:
     wfcinit      :      0.44s CPU      3.66s WALL (       1 calls)
                                        3.66s GPU  (       1 calls)
     potinit      :      0.04s CPU      0.12s WALL (       1 calls)
     hinit0       :      0.45s CPU      0.48s WALL (       1 calls)

     Called by electrons:
     c_bands      :      1.23s CPU      1.29s WALL (      21 calls)
     sum_band     :      0.34s CPU      0.38s WALL (      21 calls)
     v_of_rho     :      0.14s CPU      0.23s WALL (      21 calls)
     mix_rho      :      0.15s CPU      0.17s WALL (      21 calls)

     Called by c_bands:
     init_us_2    :      0.05s CPU      0.06s WALL (      43 calls)
     init_us_2:gp :      0.05s CPU      0.06s WALL (      43 calls)
     regterg      :      1.07s CPU      1.12s WALL (      21 calls)

     Called by *egterg:
     rdiaghg      :      0.44s CPU      1.11s WALL (     101 calls)
                                        1.09s GPU  (     101 calls)
     h_psi        :      0.88s CPU      3.47s WALL (     103 calls)
                                        3.47s GPU  (     103 calls)
     g_psi        :      0.00s CPU      0.00s WALL (      81 calls)
                                        0.00s GPU  (      81 calls)

     Called by h_psi:
     h_psi:calbec :      0.42s CPU      2.95s WALL (     103 calls)
                                        2.95s GPU  (     103 calls)
     vloc_psi     :      0.40s CPU      0.46s WALL (     103 calls)
                                        0.45s GPU  (     103 calls)
     add_vuspsi   :      0.04s CPU      0.06s WALL (     103 calls)
                                        0.06s GPU  (     103 calls)

     General routines
     calbec       :      0.43s CPU      2.96s WALL (     108 calls)
     fft          :      0.55s CPU      0.67s WALL (     175 calls)
                                        0.12s GPU  (     111 calls)
     ffts         :      0.03s CPU      0.04s WALL (      21 calls)
     fftw         :      0.49s CPU      0.63s WALL (    2231 calls)
                                        0.55s GPU  (    2231 calls)
 
     Parallel routines
 
     PWSCF        :      3.06s CPU      6.60s WALL

 
   This run was terminated on:  15:19:25  11May2023            

=------------------------------------------------------------------------------=
   JOB DONE.
=------------------------------------------------------------------------------=
