An instance of this daemon is already running
An instance of this daemon is already running

     Program PWSCF v.7.1 starts on 11May2023 at 15: 7:14 

     This program is part of the open-source Quantum ESPRESSO suite
     for quantum simulation of materials; please cite
         "P. Giannozzi et al., J. Phys.:Condens. Matter 21 395502 (2009);
         "P. Giannozzi et al., J. Phys.:Condens. Matter 29 465901 (2017);
         "P. Giannozzi et al., J. Chem. Phys. 152 154105 (2020);
          URL http://www.quantum-espresso.org", 
     in publications or presentations arising from this work. More details at
     http://www.quantum-espresso.org/quote

     Parallel version (MPI & OpenMP), running on       4 processor cores
     Number of MPI processes:                 4
     Threads/MPI process:                     1

     MPI processes distributed on     1 nodes
     1005399 MiB available memory on the printing compute node when the environment starts
 
     Reading input from pw-si-12.in
Warning: card &CELL ignored
Warning: card / ignored

     Current dimensions of program PWSCF are:
     Max number of different atomic species (ntypx) = 10
     Max number of k-points (npk) =  40000
     Max angular momentum in pseudopotentials (lmaxx) =  4

     IMPORTANT: XC functional enforced from input :
     Exchange-correlation= PBE
                           (   1   4   3   4   0   0   0)
     Any further DFT definition will be discarded
     Please, verify this is what you really want


     gamma-point specific algorithms are used
 
     K-points division:     npool     =       2
     R & G space division:  proc/nbgrp/npool/nimage =       2
     Subspace diagonalization in iterative solution of the eigenvalue problem:
     a serial algorithm will be used

     Message from routine divide_et_impera:
     suboptimal parallelization: some nodes have no k-points
 
     Parallelization info
     --------------------
     sticks:   dense  smooth     PW     G-vecs:    dense   smooth      PW
     Min        2045    2045    541                98605    98605   13429
     Max        2048    2048    544                98608    98608   13436
     Sum        4093    4093   1085               197213   197213   26865
 
     Using Slab Decomposition
 


     bravais-lattice index     =            0
     lattice parameter (alat)  =      20.7140  a.u.
     unit-cell volume          =    8887.7771 (a.u.)^3
     number of atoms/cell      =           64
     number of atomic types    =            1
     number of electrons       =       256.00
     number of Kohn-Sham states=          154
     kinetic-energy cutoff     =      30.0000  Ry
     charge density cutoff     =     120.0000  Ry
     scf convergence threshold =      1.0E-06
     mixing beta               =       0.5000
     number of iterations used =            8  plain     mixing
     Exchange-correlation= PBE
                           (   1   4   3   4   0   0   0)

     GPU acceleration is ACTIVE.
     GPU-aware MPI enabled

     Message from routine print_cuda_info:
     High GPU oversubscription detected. Are you sure this is what you want?

     celldm(1)=  20.714020  celldm(2)=   0.000000  celldm(3)=   0.000000
     celldm(4)=   0.000000  celldm(5)=   0.000000  celldm(6)=   0.000000

     crystal axes: (cart. coord. in units of alat)
               a(1) = (   1.000000   0.000000   0.000000 )  
               a(2) = (   0.000000   1.000000   0.000000 )  
               a(3) = (   0.000000   0.000000   1.000000 )  

     reciprocal axes: (cart. coord. in units 2 pi/alat)
               b(1) = (  1.000000  0.000000  0.000000 )  
               b(2) = (  0.000000  1.000000  0.000000 )  
               b(3) = (  0.000000  0.000000  1.000000 )  


     PseudoPot. # 1 for Si read from file:
     /home/ppiaggi/pseudos/Si_ONCV_PBE_sr.upf
     MD5 check sum: 8553c464762ac42b85b1eed164b4d029
     Pseudo is Norm-conserving, Zval =  4.0
     Generated using ONCVPSP code by D. R. Hamann
     Using radial grid of 1510 points,  4 beta functions with: 
                l(1) =   0
                l(2) =   0
                l(3) =   1
                l(4) =   1

     atomic species   valence    mass     pseudopotential
        Si             4.00    28.08500     Si( 1.00)

     No symmetry found



   Cartesian axes

     site n.     atom                  positions (alat units)
         1           Si  tau(   1) = (   0.5598750   0.7949140   0.8252110  )
         2           Si  tau(   2) = (   0.9725810   0.2083130   0.6774930  )
         3           Si  tau(   3) = (   0.1797240   0.8311500   0.7496890  )
         4           Si  tau(   4) = (   0.5881060   0.7641630   0.4542920  )
         5           Si  tau(   5) = (   0.9588220   0.9257220   0.1796090  )
         6           Si  tau(   6) = (   0.4170590   0.4810090   0.0414403  )
         7           Si  tau(   7) = (   0.5479000   0.3292740   0.0291864  )
         8           Si  tau(   8) = (   0.0300820   0.7110770   0.2342210  )
         9           Si  tau(   9) = (   0.6953760   0.9749320   0.7477750  )
        10           Si  tau(  10) = (   0.7389030   0.1358230   0.0177226  )
        11           Si  tau(  11) = (   0.2177500   0.1748310   0.4854550  )
        12           Si  tau(  12) = (   0.0702309   0.0947057   0.8995030  )
        13           Si  tau(  13) = (   0.2667440   0.0118940   0.3183890  )
        14           Si  tau(  14) = (   0.2082360   0.6015310   0.0506677  )
        15           Si  tau(  15) = (   0.2175820   0.2224240   0.7433670  )
        16           Si  tau(  16) = (   0.4038320   0.5877800   0.5395670  )
        17           Si  tau(  17) = (   0.6304880   0.4618250   0.2501150  )
        18           Si  tau(  18) = (   0.3831140   0.8020450   0.6825060  )
        19           Si  tau(  19) = (   0.4001970   0.8983950   0.4486640  )
        20           Si  tau(  20) = (   0.1047370   0.5166030   0.2403010  )
        21           Si  tau(  21) = (   0.1360530   0.0208384   0.6118770  )
        22           Si  tau(  22) = (   0.8207080   0.3820480   0.6421140  )
        23           Si  tau(  23) = (   0.5799870   0.6001830   0.7172190  )
        24           Si  tau(  24) = (   0.2221790   0.4110100   0.5047840  )
        25           Si  tau(  25) = (   0.8885200   0.8031540   0.5446110  )
        26           Si  tau(  26) = (   0.3586900   0.6188020   0.8017860  )
        27           Si  tau(  27) = (   0.0847146   0.7146910   0.6057950  )
        28           Si  tau(  28) = (   0.4305080   0.0320298   0.7556100  )
        29           Si  tau(  29) = (   0.9287770   0.9383350   0.6949820  )
        30           Si  tau(  30) = (   0.7426990   0.6853790   0.1787910  )
        31           Si  tau(  31) = (   0.0629417   0.2693650   0.3183440  )
        32           Si  tau(  32) = (   0.6564300   0.1211200   0.4218360  )
        33           Si  tau(  33) = (   0.7915090   0.8112130   0.9848560  )
        34           Si  tau(  34) = (   0.4336700   0.1158570   0.5560630  )
        35           Si  tau(  35) = (   0.7722680   0.8513090   0.3947700  )
        36           Si  tau(  36) = (   0.4420270   0.1791290   0.2960640  )
        37           Si  tau(  37) = (   0.6297850   0.3817230   0.7212850  )
        38           Si  tau(  38) = (   0.5885970   0.1351640   0.8488730  )
        39           Si  tau(  39) = (   0.3410820   0.9099920   0.9134310  )
        40           Si  tau(  40) = (   0.5480080   0.8670130   0.0258880  )
        41           Si  tau(  41) = (   0.9438740   0.5950790   0.7074770  )
        42           Si  tau(  42) = (   0.8880400   0.9968630   0.9909440  )
        43           Si  tau(  43) = (   0.4584770   0.1195520   0.0705711  )
        44           Si  tau(  44) = (   0.0389229   0.8288320   0.9145840  )
        45           Si  tau(  45) = (   0.1805100   0.7869120   0.4278340  )
        46           Si  tau(  46) = (   0.3255190   0.3497670   0.3310430  )
        47           Si  tau(  47) = (   0.7518700   0.9927450   0.2153970  )
        48           Si  tau(  48) = (   0.2548920   0.3401110   0.1432380  )
        49           Si  tau(  49) = (   0.8399430   0.5047380   0.1792010  )
        50           Si  tau(  50) = (   0.2038590   0.4109770   0.9211180  )
        51           Si  tau(  51) = (   0.3982570   0.5650240   0.2459080  )
        52           Si  tau(  52) = (   0.7474270   0.1827310   0.6209240  )
        53           Si  tau(  53) = (   0.8776080   0.6275960   0.3992770  )
        54           Si  tau(  54) = (   0.6313630   0.5561960   0.0372412  )
        55           Si  tau(  55) = (   0.6662380   0.5476640   0.4904850  )
        56           Si  tau(  56) = (   0.9558490   0.5952570   0.0342199  )
        57           Si  tau(  57) = (   0.9608950   0.4409120   0.3961510  )
        58           Si  tau(  58) = (   0.1846990   0.8498250   0.0989726  )
        59           Si  tau(  59) = (   0.5542670   0.3260090   0.4250590  )
        60           Si  tau(  60) = (   0.1085710   0.1138860   0.1319630  )
        61           Si  tau(  61) = (   0.5434180   0.9009580   0.6295970  )
        62           Si  tau(  62) = (   0.0469643   0.3108660   0.0791679  )
        63           Si  tau(  63) = (   0.0567481   0.4201120   0.6193430  )
        64           Si  tau(  64) = (   0.7635230   0.7195380   0.7540260  )

     number of k points=     1  Fermi-Dirac smearing, width (Ry)=  0.0100
                       cart. coord. in units 2pi/alat
        k(    1) = (   0.0000000   0.0000000   0.0000000), wk =   2.0000000

     Dense  grid:    98607 G-vectors     FFT dimensions: (  75,  75,  75)

     Estimated max dynamical RAM per process >     158.80 MB

     Estimated total dynamical RAM >     611.13 MB

     Initial potential from superposition of free atoms

     starting charge     255.9608, renormalised to     256.0000
     Starting wfcs are  256 randomized atomic wfcs

     total cpu time spent up to now is        4.8 secs

     Self-consistent Calculation

     iteration #  1     ecut=    30.00 Ry     beta= 0.50
     Davidson diagonalization with overlap
     ethr =  1.00E-02,  avg # of iterations =  3.0

     Threshold (ethr) on eigenvalues was too large:
     Diagonalizing with lowered threshold

     Davidson diagonalization with overlap
     ethr =  6.55E-04,  avg # of iterations =  4.0

     total cpu time spent up to now is        5.1 secs

     total energy              =    -499.92069257 Ry
     estimated scf accuracy    <       2.22876375 Ry

     iteration #  2     ecut=    30.00 Ry     beta= 0.50
     Davidson diagonalization with overlap
     ethr =  8.71E-04,  avg # of iterations =  3.0

     total cpu time spent up to now is        5.2 secs

     total energy              =    -499.36107508 Ry
     estimated scf accuracy    <       9.78229262 Ry

     iteration #  3     ecut=    30.00 Ry     beta= 0.50
     Davidson diagonalization with overlap
     ethr =  8.71E-04,  avg # of iterations =  5.0

     total cpu time spent up to now is        5.4 secs

     total energy              =    -500.21908719 Ry
     estimated scf accuracy    <       5.30076703 Ry

     iteration #  4     ecut=    30.00 Ry     beta= 0.50
     Davidson diagonalization with overlap
     ethr =  8.71E-04,  avg # of iterations =  2.0

     total cpu time spent up to now is        5.5 secs

     total energy              =    -500.62692864 Ry
     estimated scf accuracy    <       0.61132481 Ry

     iteration #  5     ecut=    30.00 Ry     beta= 0.50
     Davidson diagonalization with overlap
     ethr =  2.39E-04,  avg # of iterations =  3.0

     total cpu time spent up to now is        5.6 secs

     total energy              =    -500.65616729 Ry
     estimated scf accuracy    <       0.47997216 Ry

     iteration #  6     ecut=    30.00 Ry     beta= 0.50
     Davidson diagonalization with overlap
     ethr =  1.87E-04,  avg # of iterations =  2.0

     total cpu time spent up to now is        5.7 secs

     total energy              =    -500.68754573 Ry
     estimated scf accuracy    <       0.39668541 Ry

     iteration #  7     ecut=    30.00 Ry     beta= 0.50
     Davidson diagonalization with overlap
     ethr =  1.55E-04,  avg # of iterations =  1.0

     total cpu time spent up to now is        5.8 secs

     total energy              =    -500.71111971 Ry
     estimated scf accuracy    <       0.06369125 Ry

     iteration #  8     ecut=    30.00 Ry     beta= 0.50
     Davidson diagonalization with overlap
     ethr =  2.49E-05,  avg # of iterations =  2.0

     total cpu time spent up to now is        6.0 secs

     total energy              =    -500.71917250 Ry
     estimated scf accuracy    <       0.04129782 Ry

     iteration #  9     ecut=    30.00 Ry     beta= 0.50
     Davidson diagonalization with overlap
     ethr =  1.61E-05,  avg # of iterations =  3.0

     total cpu time spent up to now is        6.1 secs

     total energy              =    -500.72204470 Ry
     estimated scf accuracy    <       0.00574631 Ry

     iteration # 10     ecut=    30.00 Ry     beta= 0.50
     Davidson diagonalization with overlap
     c_bands:  1 eigenvalues not converged
     ethr =  2.24E-06,  avg # of iterations = 20.0

     total cpu time spent up to now is        6.3 secs

     total energy              =    -500.72245696 Ry
     estimated scf accuracy    <       0.00845159 Ry

     iteration # 11     ecut=    30.00 Ry     beta= 0.50
     Davidson diagonalization with overlap
     ethr =  2.24E-06,  avg # of iterations =  2.0

     total cpu time spent up to now is        6.4 secs

     total energy              =    -500.72309026 Ry
     estimated scf accuracy    <       0.00128364 Ry

     iteration # 12     ecut=    30.00 Ry     beta= 0.50
     Davidson diagonalization with overlap
     ethr =  5.01E-07,  avg # of iterations =  2.0

     total cpu time spent up to now is        6.6 secs

     total energy              =    -500.72318277 Ry
     estimated scf accuracy    <       0.00046658 Ry

     iteration # 13     ecut=    30.00 Ry     beta= 0.50
     Davidson diagonalization with overlap
     ethr =  1.82E-07,  avg # of iterations =  3.0

     total cpu time spent up to now is        6.7 secs

     total energy              =    -500.72322609 Ry
     estimated scf accuracy    <       0.00037061 Ry

     iteration # 14     ecut=    30.00 Ry     beta= 0.50
     Davidson diagonalization with overlap
     ethr =  1.45E-07,  avg # of iterations =  2.0

     total cpu time spent up to now is        6.8 secs

     total energy              =    -500.72324487 Ry
     estimated scf accuracy    <       0.00022801 Ry

     iteration # 15     ecut=    30.00 Ry     beta= 0.50
     Davidson diagonalization with overlap
     ethr =  8.91E-08,  avg # of iterations =  1.0

     total cpu time spent up to now is        6.9 secs

     total energy              =    -500.72326058 Ry
     estimated scf accuracy    <       0.00004806 Ry

     iteration # 16     ecut=    30.00 Ry     beta= 0.50
     Davidson diagonalization with overlap
     ethr =  1.88E-08,  avg # of iterations =  2.0

     total cpu time spent up to now is        7.0 secs

     total energy              =    -500.72326711 Ry
     estimated scf accuracy    <       0.00001808 Ry

     iteration # 17     ecut=    30.00 Ry     beta= 0.50
     Davidson diagonalization with overlap
     ethr =  7.06E-09,  avg # of iterations =  2.0

     total cpu time spent up to now is        7.3 secs

     total energy              =    -500.72326721 Ry
     estimated scf accuracy    <       0.00002216 Ry

     iteration # 18     ecut=    30.00 Ry     beta= 0.50
     Davidson diagonalization with overlap
     ethr =  7.06E-09,  avg # of iterations =  2.0

     total cpu time spent up to now is        7.3 secs

     total energy              =    -500.72326879 Ry
     estimated scf accuracy    <       0.00000882 Ry

     iteration # 19     ecut=    30.00 Ry     beta= 0.50
     Davidson diagonalization with overlap
     ethr =  3.44E-09,  avg # of iterations =  2.0

     total cpu time spent up to now is        7.4 secs

     total energy              =    -500.72326939 Ry
     estimated scf accuracy    <       0.00000159 Ry

     iteration # 20     ecut=    30.00 Ry     beta= 0.50
     Davidson diagonalization with overlap
     ethr =  6.20E-10,  avg # of iterations =  2.0

     total cpu time spent up to now is        7.5 secs

     total energy              =    -500.72326951 Ry
     estimated scf accuracy    <       0.00000115 Ry

     iteration # 21     ecut=    30.00 Ry     beta= 0.50
     Davidson diagonalization with overlap
     ethr =  4.47E-10,  avg # of iterations =  2.0

     total cpu time spent up to now is        7.6 secs

     End of self-consistent calculation

          k = 0.0000 0.0000 0.0000 ( 12419 PWs)   bands (ev):

    -6.9689  -6.3333  -5.7627  -5.4694  -5.4049  -5.1035  -5.0153  -4.9061
    -4.7318  -4.6721  -4.4194  -4.1702  -4.0538  -3.9399  -3.7105  -3.6132
    -3.4571  -3.3242  -3.2162  -3.1595  -2.9849  -2.9374  -2.7987  -2.7755
    -2.4748  -2.2103  -2.1777  -1.9294  -1.8700  -1.7311  -1.5238  -1.4550
    -1.4182  -1.2268  -1.1528  -1.1052  -1.0225  -0.9657  -0.9116  -0.7656
    -0.7146  -0.5346  -0.4278  -0.4165  -0.2419  -0.1150  -0.0370   0.0172
     0.0354   0.1463   0.2156   0.3566   0.4501   0.5763   0.6708   0.8449
     0.9333   1.0309   1.0832   1.1855   1.2867   1.3489   1.5535   1.6848
     1.7179   1.7961   1.9425   2.0112   2.0770   2.1926   2.2552   2.3009
     2.3323   2.4451   2.6086   2.6496   2.7617   2.8298   2.9195   3.0288
     3.0453   3.1481   3.1561   3.3504   3.3998   3.4201   3.5167   3.5700
     3.6271   3.7172   3.8405   3.9064   3.9710   3.9810   4.0290   4.1718
     4.2659   4.3786   4.4199   4.4724   4.4929   4.5670   4.6152   4.6368
     4.7590   4.8009   4.9079   4.9623   5.0168   5.0495   5.1006   5.1398
     5.1742   5.2827   5.3171   5.4141   5.4583   5.6010   5.6252   5.6460
     5.7506   5.7765   5.7949   5.8789   5.9427   6.0139   6.0485   6.0703
     6.1655   6.1761   6.2273   6.2603   6.3282   6.4349   6.5073   6.5643
     6.6338   6.6934   6.8061   6.8631   6.8882   6.9587   6.9731   7.0162
     7.0779   7.1295   7.1563   7.2991   7.4467   7.4766   7.5140   7.5726
     7.6341   7.6803

     the Fermi energy is     6.1181 ev

!    total energy              =    -500.72326947 Ry
     estimated scf accuracy    <       0.00000022 Ry
     smearing contrib. (-TS)   =      -0.16405928 Ry
     internal energy E=F+TS    =    -500.55921019 Ry

     The total energy is F=E-TS. E is the sum of the following terms:
     one-electron contribution =      90.93999033 Ry
     hartree contribution      =      63.10916565 Ry
     xc contribution           =    -150.26287221 Ry
     ewald contribution        =    -504.34549395 Ry

     convergence has been achieved in  21 iterations

     Forces acting on atoms (cartesian axes, Ry/au):

     atom    1 type  1   force =    -0.01302847   -0.01378618    0.02236624
     atom    2 type  1   force =     0.01459450   -0.00211566    0.01728101
     atom    3 type  1   force =     0.00617694    0.05303049    0.01810241
     atom    4 type  1   force =    -0.04094991   -0.01017643    0.02458605
     atom    5 type  1   force =     0.03597760    0.00490668    0.01581203
     atom    6 type  1   force =    -0.07504720    0.05719840   -0.00698241
     atom    7 type  1   force =     0.06691422   -0.06641908    0.01459495
     atom    8 type  1   force =    -0.00514837    0.06457755    0.00617065
     atom    9 type  1   force =     0.07630089    0.00169200    0.00428107
     atom   10 type  1   force =    -0.07421614    0.04275753    0.02301404
     atom   11 type  1   force =     0.01763655    0.00208035   -0.02113087
     atom   12 type  1   force =    -0.00402039    0.00523119   -0.01255543
     atom   13 type  1   force =    -0.02126409    0.02264387   -0.02212898
     atom   14 type  1   force =    -0.00835039    0.02118619   -0.00275603
     atom   15 type  1   force =    -0.02010686   -0.01406824    0.00622916
     atom   16 type  1   force =     0.00739366    0.01233356    0.02607994
     atom   17 type  1   force =    -0.02519146   -0.00901198   -0.00460497
     atom   18 type  1   force =    -0.08854675   -0.05853755   -0.00967570
     atom   19 type  1   force =    -0.01602525   -0.00945982    0.01262790
     atom   20 type  1   force =     0.02734149   -0.04303334   -0.01170539
     atom   21 type  1   force =    -0.02857063   -0.01186502    0.04336460
     atom   22 type  1   force =     0.04482253    0.03248836   -0.02568721
     atom   23 type  1   force =    -0.01394964   -0.03065641   -0.03204008
     atom   24 type  1   force =     0.05122210    0.00689720   -0.01492987
     atom   25 type  1   force =     0.03847279   -0.06133275    0.07310728
     atom   26 type  1   force =     0.00888313   -0.00834689    0.00855035
     atom   27 type  1   force =     0.00007244   -0.00613678   -0.03246060
     atom   28 type  1   force =    -0.04567431    0.03214458    0.03194297
     atom   29 type  1   force =     0.02186474    0.04429927    0.05701783
     atom   30 type  1   force =    -0.02150655    0.07061508   -0.00002696
     atom   31 type  1   force =     0.02685434   -0.02286150   -0.01889925
     atom   32 type  1   force =    -0.02740464   -0.00265893   -0.00241017
     atom   33 type  1   force =    -0.01671914   -0.06936287   -0.01457054
     atom   34 type  1   force =     0.00053075   -0.01173388   -0.04059843
     atom   35 type  1   force =    -0.05109784    0.03320687   -0.11763349
     atom   36 type  1   force =     0.01862514   -0.05784294   -0.03736936
     atom   37 type  1   force =    -0.02671384   -0.02417253    0.01044638
     atom   38 type  1   force =     0.03162801    0.03985449    0.03868082
     atom   39 type  1   force =    -0.00325095    0.00337835    0.01776682
     atom   40 type  1   force =    -0.00082872    0.01386571    0.01035201
     atom   41 type  1   force =    -0.00014717   -0.03681039    0.01465042
     atom   42 type  1   force =     0.05847588   -0.00270821   -0.03846900
     atom   43 type  1   force =     0.00606478    0.00919450    0.01170027
     atom   44 type  1   force =    -0.00575923    0.01030274    0.00204043
     atom   45 type  1   force =     0.01832205    0.00527445   -0.02996191
     atom   46 type  1   force =     0.02046350    0.04276084    0.04898030
     atom   47 type  1   force =    -0.01367669    0.00554473    0.02270626
     atom   48 type  1   force =    -0.00733449   -0.00583024   -0.07279732
     atom   49 type  1   force =     0.01167714   -0.07435414    0.04570502
     atom   50 type  1   force =     0.00552890    0.00164087    0.01268776
     atom   51 type  1   force =     0.00329641   -0.03561025    0.00460347
     atom   52 type  1   force =    -0.00513606   -0.02599091   -0.00414879
     atom   53 type  1   force =    -0.04354537    0.04753330   -0.01290016
     atom   54 type  1   force =    -0.00387576    0.00996271    0.00006396
     atom   55 type  1   force =     0.00760982    0.00470992    0.00248199
     atom   56 type  1   force =     0.04043413    0.04693272   -0.02427829
     atom   57 type  1   force =     0.02533932   -0.02925219    0.02963759
     atom   58 type  1   force =    -0.01376682   -0.02159627   -0.00910075
     atom   59 type  1   force =     0.00989403    0.00960119   -0.00081485
     atom   60 type  1   force =    -0.00211300   -0.03548556    0.03030168
     atom   61 type  1   force =     0.08503220    0.01935346   -0.10040640
     atom   62 type  1   force =    -0.01263892    0.02007521   -0.01814808
     atom   63 type  1   force =    -0.08184849   -0.01759475    0.02601167
     atom   64 type  1   force =     0.03000359    0.02153734    0.00524592

     Total force =     0.460766     Total SCF correction =     0.000827


     Computing stress (Cartesian axis) and pressure

          total   stress  (Ry/bohr**3)                   (kbar)     P=      -15.78
  -0.00004706  -0.00006559  -0.00001803           -6.92       -9.65       -2.65
  -0.00006559  -0.00005461   0.00001536           -9.65       -8.03        2.26
  -0.00001803   0.00001536  -0.00022007           -2.65        2.26      -32.37

 
     init_run     :      0.64s CPU      4.77s WALL (       1 calls)
     electrons    :      2.23s CPU      2.80s WALL (       1 calls)
     forces       :      0.03s CPU      0.03s WALL (       1 calls)
     stress       :      0.11s CPU      0.23s WALL (       1 calls)

     Called by init_run:
     wfcinit      :      0.45s CPU      4.43s WALL (       1 calls)
                                        4.43s GPU  (       1 calls)
     potinit      :      0.04s CPU      0.11s WALL (       1 calls)
     hinit0       :      0.14s CPU      0.16s WALL (       1 calls)

     Called by electrons:
     c_bands      :      1.44s CPU      1.94s WALL (      22 calls)
     sum_band     :      0.41s CPU      0.46s WALL (      22 calls)
     v_of_rho     :      0.16s CPU      0.24s WALL (      22 calls)
     mix_rho      :      0.18s CPU      0.19s WALL (      22 calls)

     Called by c_bands:
     init_us_2    :      0.06s CPU      0.06s WALL (      45 calls)
     init_us_2:gp :      0.06s CPU      0.06s WALL (      45 calls)
     regterg      :      1.28s CPU      1.77s WALL (      22 calls)

     Called by *egterg:
     rdiaghg      :      0.41s CPU      1.29s WALL (      91 calls)
                                        1.28s GPU  (      91 calls)
     h_psi        :      1.13s CPU      4.50s WALL (      93 calls)
                                        4.50s GPU  (      93 calls)
     g_psi        :      0.00s CPU      0.00s WALL (      70 calls)
                                        0.00s GPU  (      70 calls)

     Called by h_psi:
     h_psi:calbec :      0.42s CPU      3.61s WALL (      93 calls)
                                        3.61s GPU  (      93 calls)
     vloc_psi     :      0.65s CPU      0.83s WALL (      93 calls)
                                        0.83s GPU  (      93 calls)
     add_vuspsi   :      0.03s CPU      0.05s WALL (      93 calls)
                                        0.05s GPU  (      93 calls)

     General routines
     calbec       :      0.43s CPU      3.61s WALL (      98 calls)
     fft          :      0.27s CPU      0.37s WALL (     183 calls)
                                        0.11s GPU  (     116 calls)
     ffts         :      0.05s CPU      0.06s WALL (      22 calls)
     fftw         :      0.73s CPU      0.93s WALL (    2296 calls)
                                        0.84s GPU  (    2296 calls)
 
     Parallel routines
 
     PWSCF        :      3.05s CPU      7.91s WALL

 
   This run was terminated on:  15: 7:21  11May2023            

=------------------------------------------------------------------------------=
   JOB DONE.
=------------------------------------------------------------------------------=
