An instance of this daemon is already running
An instance of this daemon is already running

     Program PWSCF v.7.1 starts on 11May2023 at 15: 8:16 

     This program is part of the open-source Quantum ESPRESSO suite
     for quantum simulation of materials; please cite
         "P. Giannozzi et al., J. Phys.:Condens. Matter 21 395502 (2009);
         "P. Giannozzi et al., J. Phys.:Condens. Matter 29 465901 (2017);
         "P. Giannozzi et al., J. Chem. Phys. 152 154105 (2020);
          URL http://www.quantum-espresso.org", 
     in publications or presentations arising from this work. More details at
     http://www.quantum-espresso.org/quote

     Parallel version (MPI & OpenMP), running on       4 processor cores
     Number of MPI processes:                 4
     Threads/MPI process:                     1

     MPI processes distributed on     1 nodes
     1005431 MiB available memory on the printing compute node when the environment starts
 
     Reading input from pw-si-19.in
Warning: card &CELL ignored
Warning: card / ignored

     Current dimensions of program PWSCF are:
     Max number of different atomic species (ntypx) = 10
     Max number of k-points (npk) =  40000
     Max angular momentum in pseudopotentials (lmaxx) =  4

     IMPORTANT: XC functional enforced from input :
     Exchange-correlation= PBE
                           (   1   4   3   4   0   0   0)
     Any further DFT definition will be discarded
     Please, verify this is what you really want


     gamma-point specific algorithms are used
 
     K-points division:     npool     =       2
     R & G space division:  proc/nbgrp/npool/nimage =       2
     Subspace diagonalization in iterative solution of the eigenvalue problem:
     a serial algorithm will be used

     Message from routine divide_et_impera:
     suboptimal parallelization: some nodes have no k-points
 
     Parallelization info
     --------------------
     sticks:   dense  smooth     PW     G-vecs:    dense   smooth      PW
     Min        1945    1945    516                91383    91383   12416
     Max        1948    1948    517                91388    91388   12421
     Sum        3893    3893   1033               182771   182771   24837
 
     Using Slab Decomposition
 


     bravais-lattice index     =            0
     lattice parameter (alat)  =      20.1915  a.u.
     unit-cell volume          =    8232.0157 (a.u.)^3
     number of atoms/cell      =           64
     number of atomic types    =            1
     number of electrons       =       256.00
     number of Kohn-Sham states=          154
     kinetic-energy cutoff     =      30.0000  Ry
     charge density cutoff     =     120.0000  Ry
     scf convergence threshold =      1.0E-06
     mixing beta               =       0.5000
     number of iterations used =            8  plain     mixing
     Exchange-correlation= PBE
                           (   1   4   3   4   0   0   0)

     GPU acceleration is ACTIVE.
     GPU-aware MPI enabled

     Message from routine print_cuda_info:
     High GPU oversubscription detected. Are you sure this is what you want?

     celldm(1)=  20.191507  celldm(2)=   0.000000  celldm(3)=   0.000000
     celldm(4)=   0.000000  celldm(5)=   0.000000  celldm(6)=   0.000000

     crystal axes: (cart. coord. in units of alat)
               a(1) = (   1.000000   0.000000   0.000000 )  
               a(2) = (   0.000000   1.000000   0.000000 )  
               a(3) = (   0.000000   0.000000   1.000000 )  

     reciprocal axes: (cart. coord. in units 2 pi/alat)
               b(1) = (  1.000000  0.000000  0.000000 )  
               b(2) = (  0.000000  1.000000  0.000000 )  
               b(3) = (  0.000000  0.000000  1.000000 )  


     PseudoPot. # 1 for Si read from file:
     /home/ppiaggi/pseudos/Si_ONCV_PBE_sr.upf
     MD5 check sum: 8553c464762ac42b85b1eed164b4d029
     Pseudo is Norm-conserving, Zval =  4.0
     Generated using ONCVPSP code by D. R. Hamann
     Using radial grid of 1510 points,  4 beta functions with: 
                l(1) =   0
                l(2) =   0
                l(3) =   1
                l(4) =   1

     atomic species   valence    mass     pseudopotential
        Si             4.00    28.08500     Si( 1.00)

     No symmetry found



   Cartesian axes

     site n.     atom                  positions (alat units)
         1           Si  tau(   1) = (   0.1657490   0.2437130   0.7390850  )
         2           Si  tau(   2) = (   0.5994640   0.0123338   0.9551350  )
         3           Si  tau(   3) = (   0.8258370   0.5697370   0.2597610  )
         4           Si  tau(   4) = (   0.3860730   0.9593010   0.9230750  )
         5           Si  tau(   5) = (   0.3072950   0.8249300   0.1018080  )
         6           Si  tau(   6) = (   0.0675085   0.3391630   0.3884390  )
         7           Si  tau(   7) = (   0.6273640   0.2935810   0.7602780  )
         8           Si  tau(   8) = (   0.5587190   0.1362080   0.1303270  )
         9           Si  tau(   9) = (   0.7738600   0.6045490   0.7906120  )
        10           Si  tau(  10) = (   0.4500190   0.6367380   0.3625340  )
        11           Si  tau(  11) = (   0.9449260   0.5826500   0.0502131  )
        12           Si  tau(  12) = (   0.5739150   0.9300780   0.5910980  )
        13           Si  tau(  13) = (   0.0308695   0.7808380   0.5846010  )
        14           Si  tau(  14) = (   0.0692581   0.7479680   0.0209827  )
        15           Si  tau(  15) = (   0.9620300   0.9147630   0.1599820  )
        16           Si  tau(  16) = (   0.4908940   0.4923440   0.7497430  )
        17           Si  tau(  17) = (   0.7872750   0.9385690   0.5053520  )
        18           Si  tau(  18) = (   0.0282053   0.8834840   0.3634290  )
        19           Si  tau(  19) = (   0.3878570   0.9057730   0.4711030  )
        20           Si  tau(  20) = (   0.5439790   0.3695080   0.0648711  )
        21           Si  tau(  21) = (   0.8197500   0.7914020   0.2906980  )
        22           Si  tau(  22) = (   0.7861740   0.2257600   0.3130870  )
        23           Si  tau(  23) = (   0.2227430   0.0165647   0.5512680  )
        24           Si  tau(  24) = (   0.5330330   0.6665600   0.6214390  )
        25           Si  tau(  25) = (   0.2505300   0.5914720   0.8163850  )
        26           Si  tau(  26) = (   0.2234520   0.4905730   0.3636760  )
        27           Si  tau(  27) = (   0.1636780   0.7204020   0.4068540  )
        28           Si  tau(  28) = (   0.9811510   0.5290860   0.4552040  )
        29           Si  tau(  29) = (   0.7874020   0.3613350   0.6162580  )
        30           Si  tau(  30) = (   0.6537700   0.7011170   0.4146530  )
        31           Si  tau(  31) = (   0.5673390   0.7667530   0.1581990  )
        32           Si  tau(  32) = (   0.2959480   0.7086610   0.6171940  )
        33           Si  tau(  33) = (   0.3722870   0.5196960   0.1073310  )
        34           Si  tau(  34) = (   0.2391880   0.3493290   0.1824520  )
        35           Si  tau(  35) = (   0.4816240   0.6536420   0.9253430  )
        36           Si  tau(  36) = (   0.1287380   0.1162800   0.3907420  )
        37           Si  tau(  37) = (   0.2502740   0.9244790   0.7428980  )
        38           Si  tau(  38) = (   0.5140450   0.0970271   0.3988370  )
        39           Si  tau(  39) = (   0.9779330   0.2650940   0.1997670  )
        40           Si  tau(  40) = (   0.1464840   0.0696964   0.9295900  )
        41           Si  tau(  41) = (   0.6856760   0.8336960   0.8499410  )
        42           Si  tau(  42) = (   0.6032470   0.5376530   0.1794150  )
        43           Si  tau(  43) = (   0.0136556   0.5940530   0.8003870  )
        44           Si  tau(  44) = (   0.3352950   0.2344880   0.5313090  )
        45           Si  tau(  45) = (   0.1475030   0.4662160   0.0137547  )
        46           Si  tau(  46) = (   0.0115765   0.8497030   0.8390830  )
        47           Si  tau(  47) = (   0.7236880   0.3992920   0.9404340  )
        48           Si  tau(  48) = (   0.4700230   0.9589060   0.2240300  )
        49           Si  tau(  49) = (   0.7352440   0.8703500   0.0859926  )
        50           Si  tau(  50) = (   0.4169500   0.4295580   0.4227030  )
        51           Si  tau(  51) = (   0.5455340   0.1404010   0.6257990  )
        52           Si  tau(  52) = (   0.3089800   0.1595100   0.2720790  )
        53           Si  tau(  53) = (   0.7053610   0.0276764   0.3015650  )
        54           Si  tau(  54) = (   0.9138770   0.2964420   0.9841190  )
        55           Si  tau(  55) = (   0.9406120   0.0677225   0.0238194  )
        56           Si  tau(  56) = (   0.8630610   0.1485690   0.6417780  )
        57           Si  tau(  57) = (   0.0105736   0.3603230   0.6842270  )
        58           Si  tau(  58) = (   0.3699150   0.2693040   0.7880700  )
        59           Si  tau(  59) = (   0.7508420   0.1571350   0.8661050  )
        60           Si  tau(  60) = (   0.3176860   0.1552890   0.0476604  )
        61           Si  tau(  61) = (   0.8926330   0.9439610   0.6913600  )
        62           Si  tau(  62) = (   0.7714670   0.5526030   0.5318630  )
        63           Si  tau(  63) = (   0.1935180   0.6530650   0.1963170  )
        64           Si  tau(  64) = (   0.7286690   0.6218430   0.0017796  )

     number of k points=     1  Fermi-Dirac smearing, width (Ry)=  0.0100
                       cart. coord. in units 2pi/alat
        k(    1) = (   0.0000000   0.0000000   0.0000000), wk =   2.0000000

     Dense  grid:    91386 G-vectors     FFT dimensions: (  72,  72,  72)

     Estimated max dynamical RAM per process >     146.54 MB

     Estimated total dynamical RAM >     563.83 MB

     Initial potential from superposition of free atoms

     starting charge     255.9608, renormalised to     256.0000
     Starting wfcs are  256 randomized atomic wfcs

     total cpu time spent up to now is        4.5 secs

     Self-consistent Calculation

     iteration #  1     ecut=    30.00 Ry     beta= 0.50
     Davidson diagonalization with overlap
     ethr =  1.00E-02,  avg # of iterations =  3.0

     Threshold (ethr) on eigenvalues was too large:
     Diagonalizing with lowered threshold

     Davidson diagonalization with overlap
     ethr =  5.50E-04,  avg # of iterations =  4.0

     total cpu time spent up to now is        4.7 secs

     total energy              =    -500.49509547 Ry
     estimated scf accuracy    <       1.77157901 Ry

     iteration #  2     ecut=    30.00 Ry     beta= 0.50
     Davidson diagonalization with overlap
     ethr =  6.92E-04,  avg # of iterations =  5.0

     total cpu time spent up to now is        4.8 secs

     total energy              =    -499.61059336 Ry
     estimated scf accuracy    <      12.68781880 Ry

     iteration #  3     ecut=    30.00 Ry     beta= 0.50
     Davidson diagonalization with overlap
     ethr =  6.92E-04,  avg # of iterations =  4.0

     total cpu time spent up to now is        4.9 secs

     total energy              =    -500.71039113 Ry
     estimated scf accuracy    <       2.82539016 Ry

     iteration #  4     ecut=    30.00 Ry     beta= 0.50
     Davidson diagonalization with overlap
     ethr =  6.92E-04,  avg # of iterations =  2.0

     total cpu time spent up to now is        5.0 secs

     total energy              =    -500.90729366 Ry
     estimated scf accuracy    <       0.76056842 Ry

     iteration #  5     ecut=    30.00 Ry     beta= 0.50
     Davidson diagonalization with overlap
     ethr =  2.97E-04,  avg # of iterations =  2.0

     total cpu time spent up to now is        5.1 secs

     total energy              =    -500.94361251 Ry
     estimated scf accuracy    <       0.67211819 Ry

     iteration #  6     ecut=    30.00 Ry     beta= 0.50
     Davidson diagonalization with overlap
     ethr =  2.63E-04,  avg # of iterations =  2.0

     total cpu time spent up to now is        5.2 secs

     total energy              =    -501.00075828 Ry
     estimated scf accuracy    <       0.09922935 Ry

     iteration #  7     ecut=    30.00 Ry     beta= 0.50
     Davidson diagonalization with overlap
     ethr =  3.88E-05,  avg # of iterations =  2.0

     total cpu time spent up to now is        5.2 secs

     total energy              =    -501.01156579 Ry
     estimated scf accuracy    <       0.03282613 Ry

     iteration #  8     ecut=    30.00 Ry     beta= 0.50
     Davidson diagonalization with overlap
     ethr =  1.28E-05,  avg # of iterations = 20.0

     total cpu time spent up to now is        5.4 secs

     total energy              =    -501.01421549 Ry
     estimated scf accuracy    <       0.04449378 Ry

     iteration #  9     ecut=    30.00 Ry     beta= 0.50
     Davidson diagonalization with overlap
     ethr =  1.28E-05,  avg # of iterations =  2.0

     total cpu time spent up to now is        5.5 secs

     total energy              =    -501.01728130 Ry
     estimated scf accuracy    <       0.00239725 Ry

     iteration # 10     ecut=    30.00 Ry     beta= 0.50
     Davidson diagonalization with overlap
     ethr =  9.36E-07,  avg # of iterations =  7.0

     total cpu time spent up to now is        5.6 secs

     total energy              =    -501.01759350 Ry
     estimated scf accuracy    <       0.00360616 Ry

     iteration # 11     ecut=    30.00 Ry     beta= 0.50
     Davidson diagonalization with overlap
     ethr =  9.36E-07,  avg # of iterations =  2.0

     total cpu time spent up to now is        5.7 secs

     total energy              =    -501.01784979 Ry
     estimated scf accuracy    <       0.00150116 Ry

     iteration # 12     ecut=    30.00 Ry     beta= 0.50
     Davidson diagonalization with overlap
     ethr =  5.86E-07,  avg # of iterations =  2.0

     total cpu time spent up to now is        5.8 secs

     total energy              =    -501.01796024 Ry
     estimated scf accuracy    <       0.00029015 Ry

     iteration # 13     ecut=    30.00 Ry     beta= 0.50
     Davidson diagonalization with overlap
     ethr =  1.13E-07,  avg # of iterations =  4.0

     total cpu time spent up to now is        5.9 secs

     total energy              =    -501.01796561 Ry
     estimated scf accuracy    <       0.00075978 Ry

     iteration # 14     ecut=    30.00 Ry     beta= 0.50
     Davidson diagonalization with overlap
     ethr =  1.13E-07,  avg # of iterations =  2.0

     total cpu time spent up to now is        6.0 secs

     total energy              =    -501.01801298 Ry
     estimated scf accuracy    <       0.00002797 Ry

     iteration # 15     ecut=    30.00 Ry     beta= 0.50
     Davidson diagonalization with overlap
     ethr =  1.09E-08,  avg # of iterations =  5.0

     total cpu time spent up to now is        6.1 secs

     total energy              =    -501.01801689 Ry
     estimated scf accuracy    <       0.00004384 Ry

     iteration # 16     ecut=    30.00 Ry     beta= 0.50
     Davidson diagonalization with overlap
     ethr =  1.09E-08,  avg # of iterations =  3.0

     total cpu time spent up to now is        6.2 secs

     total energy              =    -501.01802025 Ry
     estimated scf accuracy    <       0.00002048 Ry

     iteration # 17     ecut=    30.00 Ry     beta= 0.50
     Davidson diagonalization with overlap
     ethr =  8.00E-09,  avg # of iterations =  2.0

     total cpu time spent up to now is        6.3 secs

     total energy              =    -501.01802151 Ry
     estimated scf accuracy    <       0.00000252 Ry

     iteration # 18     ecut=    30.00 Ry     beta= 0.50
     Davidson diagonalization with overlap
     ethr =  9.86E-10,  avg # of iterations =  4.0

     total cpu time spent up to now is        6.4 secs

     total energy              =    -501.01802178 Ry
     estimated scf accuracy    <       0.00000361 Ry

     iteration # 19     ecut=    30.00 Ry     beta= 0.50
     Davidson diagonalization with overlap
     ethr =  9.86E-10,  avg # of iterations =  2.0

     total cpu time spent up to now is        6.4 secs

     End of self-consistent calculation

          k = 0.0000 0.0000 0.0000 ( 11444 PWs)   bands (ev):

    -5.8749  -5.0596  -5.0181  -4.7659  -4.7124  -4.4738  -4.2160  -3.9638
    -3.8561  -3.7465  -3.6292  -3.6128  -3.4492  -3.3243  -3.1585  -3.0156
    -2.9064  -2.8775  -2.7241  -2.5998  -2.5177  -2.2947  -2.2586  -2.0630
    -1.9126  -1.8377  -1.6985  -1.3819  -1.1481  -1.1044  -0.9194  -0.6663
    -0.5925  -0.4930  -0.4123  -0.2917  -0.2289  -0.1935  -0.0959  -0.0608
     0.0121   0.1034   0.2556   0.3420   0.4581   0.5828   0.6294   0.6840
     0.7639   0.8349   1.0156   1.0316   1.1180   1.2018   1.3338   1.5116
     1.5513   1.7197   1.7537   1.9318   1.9989   2.0540   2.1456   2.1913
     2.3695   2.4844   2.5560   2.5871   2.6730   2.7670   2.7966   2.8256
     2.9133   3.0854   3.1392   3.2748   3.3634   3.4349   3.5344   3.6398
     3.7394   3.8701   4.0138   4.0718   4.1261   4.2792   4.3190   4.4338
     4.5034   4.5608   4.6587   4.7097   4.7898   4.8439   4.8818   4.9366
     4.9554   5.0856   5.1086   5.2181   5.2365   5.3844   5.4460   5.5053
     5.5163   5.6196   5.6440   5.7140   5.8309   5.8501   5.8683   5.9827
     6.1514   6.1824   6.1960   6.2704   6.3240   6.3794   6.3958   6.5080
     6.5674   6.6003   6.6099   6.6899   6.7528   6.8159   6.9122   6.9310
     6.9871   7.0484   7.1051   7.1882   7.2828   7.3397   7.3754   7.4316
     7.4817   7.5340   7.5681   7.6628   7.7058   7.7863   7.8902   7.9458
     8.0314   8.0455   8.1592   8.1783   8.2312   8.2947   8.3282   8.3457
     8.4047   8.4445

     the Fermi energy is     6.9727 ev

!    total energy              =    -501.01802161 Ry
     estimated scf accuracy    <       0.00000058 Ry
     smearing contrib. (-TS)   =      -0.14910850 Ry
     internal energy E=F+TS    =    -500.86891311 Ry

     The total energy is F=E-TS. E is the sum of the following terms:
     one-electron contribution =     158.90917509 Ry
     hartree contribution      =      36.85973351 Ry
     xc contribution           =    -151.69365917 Ry
     ewald contribution        =    -544.94416254 Ry

     convergence has been achieved in  19 iterations

     Forces acting on atoms (cartesian axes, Ry/au):

     atom    1 type  1   force =     0.04131233   -0.08371003    0.02788681
     atom    2 type  1   force =     0.02001610   -0.00209407   -0.00503524
     atom    3 type  1   force =     0.01920579    0.00577978   -0.00873472
     atom    4 type  1   force =    -0.01929707   -0.00039951    0.01361925
     atom    5 type  1   force =     0.03460379    0.02181272   -0.02845877
     atom    6 type  1   force =    -0.01381425   -0.02338720    0.02155045
     atom    7 type  1   force =    -0.02767215    0.06948277   -0.03228684
     atom    8 type  1   force =     0.00749671    0.05914953   -0.00080821
     atom    9 type  1   force =     0.01906955    0.00044306   -0.04864969
     atom   10 type  1   force =     0.00419498    0.03655623   -0.02614953
     atom   11 type  1   force =    -0.02179514   -0.05179562    0.00944836
     atom   12 type  1   force =     0.00758506   -0.05086121    0.00121982
     atom   13 type  1   force =     0.00595007   -0.00356813    0.02585942
     atom   14 type  1   force =     0.03538104    0.04734030    0.02637884
     atom   15 type  1   force =     0.00004012   -0.03676715    0.00482989
     atom   16 type  1   force =    -0.00838586   -0.05754132    0.02705032
     atom   17 type  1   force =    -0.03803979   -0.00206567   -0.04002831
     atom   18 type  1   force =    -0.03061482    0.04033511    0.01774244
     atom   19 type  1   force =     0.03466204   -0.04968309   -0.03123837
     atom   20 type  1   force =    -0.03514739   -0.07331993   -0.02531313
     atom   21 type  1   force =    -0.00398075   -0.00471418    0.02081844
     atom   22 type  1   force =     0.01000722    0.01582592   -0.00380765
     atom   23 type  1   force =    -0.00459977    0.02831731    0.03386323
     atom   24 type  1   force =     0.00192869    0.03135700   -0.01962360
     atom   25 type  1   force =     0.01237529   -0.01081884    0.01540208
     atom   26 type  1   force =    -0.01987491    0.01697259   -0.01210653
     atom   27 type  1   force =     0.03185854   -0.03694279    0.04085011
     atom   28 type  1   force =    -0.01182559    0.02510236    0.00294208
     atom   29 type  1   force =     0.01258036   -0.03864077    0.01733170
     atom   30 type  1   force =     0.00292785    0.00834404    0.02431497
     atom   31 type  1   force =    -0.04302678   -0.04081643    0.02364383
     atom   32 type  1   force =     0.00211757    0.02556671   -0.00286814
     atom   33 type  1   force =    -0.00392709    0.00807353   -0.02438825
     atom   34 type  1   force =    -0.01798322    0.00446157   -0.00250701
     atom   35 type  1   force =    -0.01020119    0.00914599    0.01843701
     atom   36 type  1   force =    -0.02280055    0.00876685   -0.02789636
     atom   37 type  1   force =    -0.02723999   -0.03071866    0.03226270
     atom   38 type  1   force =    -0.00849615    0.01306903    0.02972127
     atom   39 type  1   force =    -0.01012153   -0.02942268   -0.01336820
     atom   40 type  1   force =    -0.00662353    0.01524237   -0.05590634
     atom   41 type  1   force =    -0.00085258   -0.05346328   -0.02248385
     atom   42 type  1   force =     0.03953579    0.05437520    0.04677719
     atom   43 type  1   force =    -0.01455926    0.00703127   -0.00567827
     atom   44 type  1   force =     0.00961303    0.00630353    0.02983780
     atom   45 type  1   force =    -0.00313258    0.01140199   -0.01264233
     atom   46 type  1   force =     0.05548516   -0.01016463   -0.01127133
     atom   47 type  1   force =    -0.00491285    0.00722113   -0.01358920
     atom   48 type  1   force =    -0.04019808   -0.05180778    0.02414264
     atom   49 type  1   force =     0.04472568    0.01846257   -0.03728303
     atom   50 type  1   force =     0.02484882   -0.04824286    0.02515908
     atom   51 type  1   force =    -0.04377397    0.03174070   -0.00931936
     atom   52 type  1   force =     0.01819630   -0.01349844    0.01449045
     atom   53 type  1   force =    -0.00758567   -0.01051802   -0.02157931
     atom   54 type  1   force =     0.01604908    0.00862750   -0.00602607
     atom   55 type  1   force =    -0.01334484    0.05771469   -0.03139085
     atom   56 type  1   force =    -0.01753646    0.02091925    0.00911917
     atom   57 type  1   force =    -0.08622548    0.07885487   -0.02994954
     atom   58 type  1   force =     0.04759501    0.02636774    0.01451657
     atom   59 type  1   force =     0.05005905   -0.04078416    0.00467953
     atom   60 type  1   force =     0.02134370   -0.00362006   -0.02951672
     atom   61 type  1   force =     0.00077443   -0.01880245    0.01787720
     atom   62 type  1   force =    -0.00806189    0.03454455    0.00834433
     atom   63 type  1   force =     0.02161217   -0.02488003   -0.02935262
     atom   64 type  1   force =    -0.02750014    0.04833924    0.03914039

     Total force =     0.402606     Total SCF correction =     0.001443


     Computing stress (Cartesian axis) and pressure

          total   stress  (Ry/bohr**3)                   (kbar)     P=       -0.80
   0.00002210  -0.00001749   0.00005204            3.25       -2.57        7.66
  -0.00001749  -0.00003554  -0.00005978           -2.57       -5.23       -8.79
   0.00005204  -0.00005978  -0.00000294            7.66       -8.79       -0.43

 
     init_run     :      0.93s CPU      4.46s WALL (       1 calls)
     electrons    :      1.77s CPU      1.91s WALL (       1 calls)
     forces       :      0.03s CPU      0.03s WALL (       1 calls)
     stress       :      0.14s CPU      0.14s WALL (       1 calls)

     Called by init_run:
     wfcinit      :      0.42s CPU      3.80s WALL (       1 calls)
                                        3.80s GPU  (       1 calls)
     potinit      :      0.04s CPU      0.12s WALL (       1 calls)
     hinit0       :      0.45s CPU      0.48s WALL (       1 calls)

     Called by electrons:
     c_bands      :      1.18s CPU      1.25s WALL (      20 calls)
     sum_band     :      0.31s CPU      0.35s WALL (      20 calls)
     v_of_rho     :      0.13s CPU      0.22s WALL (      20 calls)
     mix_rho      :      0.13s CPU      0.15s WALL (      20 calls)

     Called by c_bands:
     init_us_2    :      0.05s CPU      0.05s WALL (      41 calls)
     init_us_2:gp :      0.05s CPU      0.05s WALL (      41 calls)
     regterg      :      1.04s CPU      1.09s WALL (      20 calls)

     Called by *egterg:
     rdiaghg      :      0.44s CPU      1.20s WALL (      98 calls)
                                        1.18s GPU  (      98 calls)
     h_psi        :      0.84s CPU      3.50s WALL (     100 calls)
                                        3.49s GPU  (     100 calls)
     g_psi        :      0.00s CPU      0.00s WALL (      79 calls)
                                        0.00s GPU  (      79 calls)

     Called by h_psi:
     h_psi:calbec :      0.40s CPU      2.99s WALL (     100 calls)
                                        2.99s GPU  (     100 calls)
     vloc_psi     :      0.38s CPU      0.44s WALL (     100 calls)
                                        0.43s GPU  (     100 calls)
     add_vuspsi   :      0.04s CPU      0.06s WALL (     100 calls)
                                        0.06s GPU  (     100 calls)

     General routines
     calbec       :      0.41s CPU      3.00s WALL (     105 calls)
     fft          :      0.54s CPU      0.66s WALL (     167 calls)
                                        0.12s GPU  (     106 calls)
     ffts         :      0.03s CPU      0.03s WALL (      20 calls)
     fftw         :      0.46s CPU      0.59s WALL (    2132 calls)
                                        0.52s GPU  (    2132 calls)
 
     Parallel routines
 
     PWSCF        :      2.91s CPU      6.62s WALL

 
   This run was terminated on:  15: 8:23  11May2023            

=------------------------------------------------------------------------------=
   JOB DONE.
=------------------------------------------------------------------------------=
