Removing intel version 2021.1.2
Removing oclfpga version 2021.1.2
Removing intel-dpl version 2021.1.2
Removing intel-debugger version 10.0.0
Removing intel-mkl version 2021.1.1
Removing intel-tbb version 2021.1.1
Removing intel-rt version 2021.1.2
An instance of this daemon is already running
An instance of this daemon is already running

     Program PWSCF v.7.1 starts on  8May2023 at 14:43:27 

     This program is part of the open-source Quantum ESPRESSO suite
     for quantum simulation of materials; please cite
         "P. Giannozzi et al., J. Phys.:Condens. Matter 21 395502 (2009);
         "P. Giannozzi et al., J. Phys.:Condens. Matter 29 465901 (2017);
         "P. Giannozzi et al., J. Chem. Phys. 152 154105 (2020);
          URL http://www.quantum-espresso.org", 
     in publications or presentations arising from this work. More details at
     http://www.quantum-espresso.org/quote

     Parallel version (MPI & OpenMP), running on       4 processor cores
     Number of MPI processes:                 4
     Threads/MPI process:                     1

     MPI processes distributed on     1 nodes
     666891 MiB available memory on the printing compute node when the environment starts
 
     Reading input from pw-si.in

     Current dimensions of program PWSCF are:
     Max number of different atomic species (ntypx) = 10
     Max number of k-points (npk) =  40000
     Max angular momentum in pseudopotentials (lmaxx) =  4

     IMPORTANT: XC functional enforced from input :
     Exchange-correlation= PBE
                           (   1   4   3   4   0   0   0)
     Any further DFT definition will be discarded
     Please, verify this is what you really want


     gamma-point specific algorithms are used
     Found identity + (  0.0000  0.2500  0.2500) symmetry
     This is a supercell, fractional translations are disabled
     Message from routine setup:
     using ibrav=0 with symmetry is DISCOURAGED, use correct ibrav instead
 
     K-points division:     npool     =       2
     R & G space division:  proc/nbgrp/npool/nimage =       2
     Subspace diagonalization in iterative solution of the eigenvalue problem:
     a serial algorithm will be used

     Message from routine divide_et_impera:
     suboptimal parallelization: some nodes have no k-points
 
     Parallelization info
     --------------------
     sticks:   dense  smooth     PW     G-vecs:    dense   smooth      PW
     Min        3360    3360    873               206688   206688   27479
     Max        3361    3361    876               206693   206693   27484
     Sum        6721    6721   1749               413381   413381   54963
 
     Using Slab Decomposition
 


     bravais-lattice index     =            0
     lattice parameter (alat)  =      20.5251  a.u.
     unit-cell volume          =    8646.7724 (a.u.)^3
     number of atoms/cell      =           64
     number of atomic types    =            1
     number of electrons       =       256.00
     number of Kohn-Sham states=          128
     kinetic-energy cutoff     =      50.0000  Ry
     charge density cutoff     =     200.0000  Ry
     scf convergence threshold =      1.0E-06
     mixing beta               =       0.5000
     number of iterations used =            8  plain     mixing
     energy convergence thresh.=      1.0E-04
     force convergence thresh. =      1.0E-03
     press convergence thresh. =      5.0E-01
     Exchange-correlation= PBE
                           (   1   4   3   4   0   0   0)
     nstep                     =           50


     GPU acceleration is ACTIVE.
     GPU-aware MPI enabled

     Message from routine print_cuda_info:
     High GPU oversubscription detected. Are you sure this is what you want?

     celldm(1)=  20.525071  celldm(2)=   0.000000  celldm(3)=   0.000000
     celldm(4)=   0.000000  celldm(5)=   0.000000  celldm(6)=   0.000000

     crystal axes: (cart. coord. in units of alat)
               a(1) = (   1.000000   0.000000   0.000000 )  
               a(2) = (   0.000000   1.000000   0.000000 )  
               a(3) = (   0.000000   0.000000   1.000000 )  

     reciprocal axes: (cart. coord. in units 2 pi/alat)
               b(1) = (  1.000000  0.000000  0.000000 )  
               b(2) = (  0.000000  1.000000  0.000000 )  
               b(3) = (  0.000000  0.000000  1.000000 )  


     PseudoPot. # 1 for Si read from file:
     /home/ppiaggi/pseudos/Si_ONCV_PBE_sr.upf
     MD5 check sum: 8553c464762ac42b85b1eed164b4d029
     Pseudo is Norm-conserving, Zval =  4.0
     Generated using ONCVPSP code by D. R. Hamann
     Using radial grid of 1510 points,  4 beta functions with: 
                l(1) =   0
                l(2) =   0
                l(3) =   1
                l(4) =   1

     atomic species   valence    mass     pseudopotential
        Si             4.00    28.08550     Si( 1.00)

     24 Sym. Ops. (no inversion) found



   Cartesian axes

     site n.     atom                  positions (alat units)
         1           Si  tau(   1) = (   0.0000000   0.0000000   0.0000000  )
         2           Si  tau(   2) = (   0.0000000   0.2500000   0.2500000  )
         3           Si  tau(   3) = (   0.2500000   0.0000000   0.2500000  )
         4           Si  tau(   4) = (   0.2500000   0.2500000   0.0000000  )
         5           Si  tau(   5) = (   0.1250000   0.1250000   0.1250000  )
         6           Si  tau(   6) = (   0.5000000   0.0000000   0.0000000  )
         7           Si  tau(   7) = (   0.5000000   0.2500000   0.2500000  )
         8           Si  tau(   8) = (   0.6250000   0.1250000   0.1250000  )
         9           Si  tau(   9) = (   0.7500000   0.0000000   0.2500000  )
        10           Si  tau(  10) = (   0.7500000   0.2500000   0.0000000  )
        11           Si  tau(  11) = (   0.0000000   0.5000000   0.0000000  )
        12           Si  tau(  12) = (   0.2500000   0.5000000   0.2500000  )
        13           Si  tau(  13) = (   0.1250000   0.6250000   0.1250000  )
        14           Si  tau(  14) = (   0.3750000   0.3750000   0.1250000  )
        15           Si  tau(  15) = (   0.5000000   0.5000000   0.0000000  )
        16           Si  tau(  16) = (   0.6250000   0.6250000   0.1250000  )
        17           Si  tau(  17) = (   0.8750000   0.3750000   0.1250000  )
        18           Si  tau(  18) = (   0.7500000   0.5000000   0.2500000  )
        19           Si  tau(  19) = (   0.0000000   0.7500000   0.2500000  )
        20           Si  tau(  20) = (   0.2500000   0.7500000   0.0000000  )
        21           Si  tau(  21) = (   0.3750000   0.8750000   0.1250000  )
        22           Si  tau(  22) = (   0.5000000   0.7500000   0.2500000  )
        23           Si  tau(  23) = (   0.7500000   0.7500000   0.0000000  )
        24           Si  tau(  24) = (   0.8750000   0.8750000   0.1250000  )
        25           Si  tau(  25) = (   0.0000000   0.0000000   0.5000000  )
        26           Si  tau(  26) = (   0.2500000   0.2500000   0.5000000  )
        27           Si  tau(  27) = (   0.1250000   0.1250000   0.6250000  )
        28           Si  tau(  28) = (   0.3750000   0.1250000   0.3750000  )
        29           Si  tau(  29) = (   0.5000000   0.0000000   0.5000000  )
        30           Si  tau(  30) = (   0.6250000   0.1250000   0.6250000  )
        31           Si  tau(  31) = (   0.8750000   0.1250000   0.3750000  )
        32           Si  tau(  32) = (   0.7500000   0.2500000   0.5000000  )
        33           Si  tau(  33) = (   0.1250000   0.3750000   0.3750000  )
        34           Si  tau(  34) = (   0.0000000   0.5000000   0.5000000  )
        35           Si  tau(  35) = (   0.1250000   0.6250000   0.6250000  )
        36           Si  tau(  36) = (   0.6250000   0.3750000   0.3750000  )
        37           Si  tau(  37) = (   0.3750000   0.6250000   0.3750000  )
        38           Si  tau(  38) = (   0.3750000   0.3750000   0.6250000  )
        39           Si  tau(  39) = (   0.5000000   0.5000000   0.5000000  )
        40           Si  tau(  40) = (   0.6250000   0.6250000   0.6250000  )
        41           Si  tau(  41) = (   0.8750000   0.6250000   0.3750000  )
        42           Si  tau(  42) = (   0.8750000   0.3750000   0.6250000  )
        43           Si  tau(  43) = (   0.1250000   0.8750000   0.3750000  )
        44           Si  tau(  44) = (   0.2500000   0.7500000   0.5000000  )
        45           Si  tau(  45) = (   0.6250000   0.8750000   0.3750000  )
        46           Si  tau(  46) = (   0.3750000   0.8750000   0.6250000  )
        47           Si  tau(  47) = (   0.7500000   0.7500000   0.5000000  )
        48           Si  tau(  48) = (   0.8750000   0.8750000   0.6250000  )
        49           Si  tau(  49) = (   0.0000000   0.2500000   0.7500000  )
        50           Si  tau(  50) = (   0.2500000   0.0000000   0.7500000  )
        51           Si  tau(  51) = (   0.3750000   0.1250000   0.8750000  )
        52           Si  tau(  52) = (   0.5000000   0.2500000   0.7500000  )
        53           Si  tau(  53) = (   0.7500000   0.0000000   0.7500000  )
        54           Si  tau(  54) = (   0.8750000   0.1250000   0.8750000  )
        55           Si  tau(  55) = (   0.1250000   0.3750000   0.8750000  )
        56           Si  tau(  56) = (   0.2500000   0.5000000   0.7500000  )
        57           Si  tau(  57) = (   0.6250000   0.3750000   0.8750000  )
        58           Si  tau(  58) = (   0.3750000   0.6250000   0.8750000  )
        59           Si  tau(  59) = (   0.7500000   0.5000000   0.7500000  )
        60           Si  tau(  60) = (   0.8750000   0.6250000   0.8750000  )
        61           Si  tau(  61) = (   0.0000000   0.7500000   0.7500000  )
        62           Si  tau(  62) = (   0.1250000   0.8750000   0.8750000  )
        63           Si  tau(  63) = (   0.5000000   0.7500000   0.7500000  )
        64           Si  tau(  64) = (   0.6250000   0.8750000   0.8750000  )

     number of k points=     1
                       cart. coord. in units 2pi/alat
        k(    1) = (   0.0000000   0.0000000   0.0000000), wk =   2.0000000

     Dense  grid:   206691 G-vectors     FFT dimensions: (  96,  96,  96)

     Estimated max dynamical RAM per process >     302.86 MB

     Estimated total dynamical RAM >       1.13 GB

     Initial potential from superposition of free atoms

     starting charge     255.9608, renormalised to     256.0000
     Starting wfcs are  256 randomized atomic wfcs

     total cpu time spent up to now is        6.7 secs

     Self-consistent Calculation

     iteration #  1     ecut=    50.00 Ry     beta= 0.50
     Davidson diagonalization with overlap
     ethr =  1.00E-02,  avg # of iterations =  2.0

     Threshold (ethr) on eigenvalues was too large:
     Diagonalizing with lowered threshold

     Davidson diagonalization with overlap
     ethr =  6.77E-04,  avg # of iterations =  2.0

     total cpu time spent up to now is        7.1 secs

     total energy              =    -503.98817340 Ry
     estimated scf accuracy    <       1.93749352 Ry

     iteration #  2     ecut=    50.00 Ry     beta= 0.50
     Davidson diagonalization with overlap
     ethr =  7.57E-04,  avg # of iterations =  1.0

     total cpu time spent up to now is        7.2 secs

     total energy              =    -503.96169029 Ry
     estimated scf accuracy    <       0.37776718 Ry

     iteration #  3     ecut=    50.00 Ry     beta= 0.50
     Davidson diagonalization with overlap
     ethr =  1.48E-04,  avg # of iterations =  2.0

     total cpu time spent up to now is        7.4 secs

     total energy              =    -503.99221469 Ry
     estimated scf accuracy    <       0.00626439 Ry

     iteration #  4     ecut=    50.00 Ry     beta= 0.50
     Davidson diagonalization with overlap
     ethr =  2.45E-06,  avg # of iterations =  4.0

     total cpu time spent up to now is        7.6 secs

     total energy              =    -503.99549974 Ry
     estimated scf accuracy    <       0.00069728 Ry

     iteration #  5     ecut=    50.00 Ry     beta= 0.50
     Davidson diagonalization with overlap
     ethr =  2.72E-07,  avg # of iterations =  4.0

     total cpu time spent up to now is        7.8 secs

     total energy              =    -503.99569446 Ry
     estimated scf accuracy    <       0.00000753 Ry

     iteration #  6     ecut=    50.00 Ry     beta= 0.50
     Davidson diagonalization with overlap
     ethr =  2.94E-09,  avg # of iterations = 13.0

     total cpu time spent up to now is        8.1 secs

     total energy              =    -503.99571685 Ry
     estimated scf accuracy    <       0.00000291 Ry

     iteration #  7     ecut=    50.00 Ry     beta= 0.50
     Davidson diagonalization with overlap
     ethr =  1.14E-09,  avg # of iterations =  2.0

     total cpu time spent up to now is        8.3 secs

     total energy              =    -503.99571768 Ry
     estimated scf accuracy    <       0.00000182 Ry

     iteration #  8     ecut=    50.00 Ry     beta= 0.50
     Davidson diagonalization with overlap
     ethr =  7.11E-10,  avg # of iterations =  2.0

     total cpu time spent up to now is        8.4 secs

     End of self-consistent calculation

          k = 0.0000 0.0000 0.0000 ( 25814 PWs)   bands (ev):

    -5.6942  -4.6117  -4.6117  -4.6117  -4.6117  -4.6117  -4.6117  -3.6493
    -3.6493  -3.6493  -3.6493  -3.6493  -3.6493  -3.6492  -3.6492  -3.6492
    -3.6492  -3.6492  -3.6492  -3.3610  -3.3610  -3.3610  -3.3609  -1.5478
    -1.5478  -1.5478  -1.5478  -1.5478  -1.5478  -1.3833  -1.3833  -1.3833
    -1.3833  -1.3833  -1.3833  -1.3833  -1.3833  -1.3832  -1.3832  -1.3832
    -1.3832  -0.7039  -0.7039  -0.7039  -0.7038   0.7886   0.7886   0.7886
     0.7887   0.7887   0.7887   0.7887   0.7887   0.7887   0.7887   0.7887
     0.7887   2.4124   2.4124   2.4124   2.4124   2.4124   2.4124   2.4124
     2.4124   2.4125   2.4125   2.4125   2.4125   2.5124   2.5124   2.5124
     2.5124   2.5124   2.5124   2.5124   2.5124   2.5124   2.5124   2.5124
     2.5124   2.7524   2.7524   2.7524   2.7525   2.7525   2.7525   3.4198
     3.4198   3.4198   3.4198   3.4198   3.4198   4.3806   4.3807   4.3807
     4.3807   4.3807   4.3807   4.3807   4.3807   4.3807   4.3807   4.3807
     4.3807   4.9452   4.9452   4.9452   4.9452   4.9452   4.9453   4.9453
     4.9453   4.9453   4.9453   4.9453   4.9453   5.0757   5.0757   5.0757
     5.0757   5.0757   5.0757   5.0757   5.0757   6.2714   6.2714   6.2714

     highest occupied level (ev):     6.2714

!    total energy              =    -503.99571764 Ry
     estimated scf accuracy    <       0.00000048 Ry

     The total energy is the sum of the following terms:
     one-electron contribution =     151.84749548 Ry
     hartree contribution      =      36.13456587 Ry
     xc contribution           =    -154.48087012 Ry
     ewald contribution        =    -537.49690888 Ry

     convergence has been achieved in   8 iterations

     Forces acting on atoms (cartesian axes, Ry/au):

     atom    1 type  1   force =     0.00000000    0.00000000    0.00000000
     atom    2 type  1   force =     0.00000076   -0.00000309   -0.00000309
     atom    3 type  1   force =    -0.00000309    0.00000076   -0.00000309
     atom    4 type  1   force =    -0.00000309   -0.00000309    0.00000076
     atom    5 type  1   force =    -0.00000177   -0.00000177   -0.00000177
     atom    6 type  1   force =     0.00000000    0.00000000    0.00000000
     atom    7 type  1   force =    -0.00000060   -0.00000477   -0.00000477
     atom    8 type  1   force =     0.00000250   -0.00000165   -0.00000165
     atom    9 type  1   force =     0.00000309   -0.00000076   -0.00000309
     atom   10 type  1   force =     0.00000309   -0.00000309   -0.00000076
     atom   11 type  1   force =     0.00000000    0.00000000    0.00000000
     atom   12 type  1   force =    -0.00000477   -0.00000060   -0.00000477
     atom   13 type  1   force =    -0.00000165    0.00000250   -0.00000165
     atom   14 type  1   force =    -0.00000423   -0.00000423   -0.00000293
     atom   15 type  1   force =     0.00000000    0.00000000    0.00000000
     atom   16 type  1   force =     0.00000423    0.00000423   -0.00000293
     atom   17 type  1   force =     0.00000165   -0.00000250   -0.00000165
     atom   18 type  1   force =     0.00000477    0.00000060   -0.00000477
     atom   19 type  1   force =    -0.00000076    0.00000309   -0.00000309
     atom   20 type  1   force =    -0.00000309    0.00000309   -0.00000076
     atom   21 type  1   force =    -0.00000250    0.00000165   -0.00000165
     atom   22 type  1   force =     0.00000060    0.00000477   -0.00000477
     atom   23 type  1   force =     0.00000309    0.00000309    0.00000076
     atom   24 type  1   force =     0.00000177    0.00000177   -0.00000177
     atom   25 type  1   force =     0.00000000    0.00000000    0.00000000
     atom   26 type  1   force =    -0.00000477   -0.00000477   -0.00000060
     atom   27 type  1   force =    -0.00000165   -0.00000165    0.00000250
     atom   28 type  1   force =    -0.00000423   -0.00000293   -0.00000423
     atom   29 type  1   force =     0.00000000    0.00000000    0.00000000
     atom   30 type  1   force =     0.00000423   -0.00000293    0.00000423
     atom   31 type  1   force =     0.00000165   -0.00000165   -0.00000250
     atom   32 type  1   force =     0.00000477   -0.00000477    0.00000060
     atom   33 type  1   force =    -0.00000293   -0.00000423   -0.00000423
     atom   34 type  1   force =     0.00000000    0.00000000    0.00000000
     atom   35 type  1   force =    -0.00000293    0.00000423    0.00000423
     atom   36 type  1   force =     0.00000433   -0.00000433   -0.00000433
     atom   37 type  1   force =    -0.00000433    0.00000433   -0.00000433
     atom   38 type  1   force =    -0.00000433   -0.00000433    0.00000433
     atom   39 type  1   force =     0.00000000    0.00000000    0.00000000
     atom   40 type  1   force =     0.00000433    0.00000433    0.00000433
     atom   41 type  1   force =     0.00000293    0.00000423   -0.00000423
     atom   42 type  1   force =     0.00000293   -0.00000423    0.00000423
     atom   43 type  1   force =    -0.00000165    0.00000165   -0.00000250
     atom   44 type  1   force =    -0.00000477    0.00000477    0.00000060
     atom   45 type  1   force =     0.00000423    0.00000293   -0.00000423
     atom   46 type  1   force =    -0.00000423    0.00000293    0.00000423
     atom   47 type  1   force =     0.00000477    0.00000477   -0.00000060
     atom   48 type  1   force =     0.00000165    0.00000165    0.00000250
     atom   49 type  1   force =    -0.00000076   -0.00000309    0.00000309
     atom   50 type  1   force =    -0.00000309   -0.00000076    0.00000309
     atom   51 type  1   force =    -0.00000250   -0.00000165    0.00000165
     atom   52 type  1   force =     0.00000060   -0.00000477    0.00000477
     atom   53 type  1   force =     0.00000309    0.00000076    0.00000309
     atom   54 type  1   force =     0.00000177   -0.00000177    0.00000177
     atom   55 type  1   force =    -0.00000165   -0.00000250    0.00000165
     atom   56 type  1   force =    -0.00000477    0.00000060    0.00000477
     atom   57 type  1   force =     0.00000423   -0.00000423    0.00000293
     atom   58 type  1   force =    -0.00000423    0.00000423    0.00000293
     atom   59 type  1   force =     0.00000477   -0.00000060    0.00000477
     atom   60 type  1   force =     0.00000165    0.00000250    0.00000165
     atom   61 type  1   force =     0.00000076    0.00000309    0.00000309
     atom   62 type  1   force =    -0.00000177    0.00000177    0.00000177
     atom   63 type  1   force =    -0.00000060    0.00000477    0.00000477
     atom   64 type  1   force =     0.00000250    0.00000165    0.00000165

     Total force =     0.000041     Total SCF correction =     0.000389
     SCF correction compared to forces is large: reduce conv_thr to get better values


     Computing stress (Cartesian axis) and pressure

          total   stress  (Ry/bohr**3)                   (kbar)     P=       31.42
   0.00021360   0.00000000   0.00000000           31.42        0.00        0.00
   0.00000000   0.00021360   0.00000000            0.00       31.42        0.00
   0.00000000   0.00000000   0.00021360            0.00        0.00       31.42


     BFGS Geometry Optimization
     Energy error            =      0.0E+00 Ry
     Gradient error          =      4.8E-06 Ry/Bohr
     Cell gradient error     =      3.1E+01 kbar

     number of scf cycles    =   1
     number of bfgs steps    =   0

     enthalpy           new  =    -503.9957176446 Ry

     new trust radius        =       0.0993094934 bohr
     new conv_thr            =       0.0000010000 Ry

     new unit-cell volume =   8786.03225 a.u.^3 (  1301.95565 Ang^3 )
     density =      2.29253 g/cm^3

CELL_PARAMETERS (angstrom)
  10.919398875   0.000000000   0.000000000
   0.000000000  10.919398875   0.000000000
   0.000000000   0.000000000  10.919398875

ATOMIC_POSITIONS (angstrom)
Si            0.0000000000        0.0000000000        0.0000000000
Si            0.0000004052        2.7298480742        2.7298480742
Si            2.7298480742        0.0000004052        2.7298480742
Si            2.7298480742        2.7298480742        0.0000004052
Si            1.3649239190        1.3649239190        1.3649239190
Si            5.4596994373        0.0000000000        0.0000000000
Si            5.4596991193        2.7298471807        2.7298471807
Si            6.8246256260        1.3649239839        1.3649239839
Si            8.1895508004       -0.0000004052        2.7298480742
Si            8.1895508004        2.7298480742       -0.0000004052
Si            0.0000000000        5.4596994373        0.0000000000
Si            2.7298471807        5.4596991193        2.7298471807
Si            1.3649239839        6.8246256260        1.3649239839
Si            4.0947723291        4.0947723291        1.3649232986
Si            5.4596994373        5.4596994373        0.0000000000
Si            6.8246265455        6.8246265455        1.3649232986
Si            9.5544748907        4.0947732485        1.3649239839
Si            8.1895516939        5.4596997553        2.7298471807
Si           -0.0000004052        8.1895508004        2.7298480742
Si            2.7298480742        8.1895508004       -0.0000004052
Si            4.0947732485        9.5544748907        1.3649239839
Si            5.4596997553        8.1895516939        2.7298471807
Si            8.1895508004        8.1895508004        0.0000004052
Si            9.5544749556        9.5544749556        1.3649239190
Si            0.0000000000        0.0000000000        5.4596994373
Si            2.7298471807        2.7298471807        5.4596991193
Si            1.3649239839        1.3649239839        6.8246256260
Si            4.0947723291        1.3649232986        4.0947723291
Si            5.4596994373        0.0000000000        5.4596994373
Si            6.8246265455        1.3649232986        6.8246265455
Si            9.5544748907        1.3649239839        4.0947732485
Si            8.1895516939        2.7298471807        5.4596997553
Si            1.3649232986        4.0947723291        4.0947723291
Si            0.0000000000        5.4596994373        5.4596994373
Si            1.3649232986        6.8246265455        6.8246265455
Si            6.8246265985        4.0947722760        4.0947722760
Si            4.0947722760        6.8246265985        4.0947722760
Si            4.0947722760        4.0947722760        6.8246265985
Si            5.4596994373        5.4596994373        5.4596994373
Si            6.8246265985        6.8246265985        6.8246265985
Si            9.5544755760        6.8246265455        4.0947723291
Si            9.5544755760        4.0947723291        6.8246265455
Si            1.3649239839        9.5544748907        4.0947732485
Si            2.7298471807        8.1895516939        5.4596997553
Si            6.8246265455        9.5544755760        4.0947723291
Si            4.0947723291        9.5544755760        6.8246265455
Si            8.1895516939        8.1895516939        5.4596991193
Si            9.5544748907        9.5544748907        6.8246256260
Si           -0.0000004052        2.7298480742        8.1895508004
Si            2.7298480742       -0.0000004052        8.1895508004
Si            4.0947732485        1.3649239839        9.5544748907
Si            5.4596997553        2.7298471807        8.1895516939
Si            8.1895508004        0.0000004052        8.1895508004
Si            9.5544749556        1.3649239190        9.5544749556
Si            1.3649239839        4.0947732485        9.5544748907
Si            2.7298471807        5.4596997553        8.1895516939
Si            6.8246265455        4.0947723291        9.5544755760
Si            4.0947723291        6.8246265455        9.5544755760
Si            8.1895516939        5.4596991193        8.1895516939
Si            9.5544748907        6.8246256260        9.5544748907
Si            0.0000004052        8.1895508004        8.1895508004
Si            1.3649239190        9.5544749556        9.5544749556
Si            5.4596991193        8.1895516939        8.1895516939
Si            6.8246256260        9.5544748907        9.5544748907



     Writing config-only to output data dir ./pwscf.save/
     NEW-OLD atomic charge density approx. for the potential
     extrapolated charge  260.05702, renormalised to  256.00000

     total cpu time spent up to now is       11.0 secs

     Self-consistent Calculation

     iteration #  1     ecut=    50.00 Ry     beta= 0.50
     Davidson diagonalization with overlap
     ethr =  1.00E-06,  avg # of iterations =  6.0

     total cpu time spent up to now is       11.4 secs

     total energy              =    -504.01273701 Ry
     estimated scf accuracy    <       0.00258588 Ry

     iteration #  2     ecut=    50.00 Ry     beta= 0.50
     Davidson diagonalization with overlap
     ethr =  1.01E-06,  avg # of iterations =  4.0

     total cpu time spent up to now is       11.6 secs

     total energy              =    -504.01802020 Ry
     estimated scf accuracy    <       0.00109925 Ry

     iteration #  3     ecut=    50.00 Ry     beta= 0.50
     Davidson diagonalization with overlap
     ethr =  4.29E-07,  avg # of iterations =  1.0

     total cpu time spent up to now is       11.7 secs

     total energy              =    -504.01785632 Ry
     estimated scf accuracy    <       0.00047924 Ry

     iteration #  4     ecut=    50.00 Ry     beta= 0.50
     Davidson diagonalization with overlap
     ethr =  1.87E-07,  avg # of iterations =  2.0

     total cpu time spent up to now is       11.9 secs

     total energy              =    -504.01790707 Ry
     estimated scf accuracy    <       0.00002970 Ry

     iteration #  5     ecut=    50.00 Ry     beta= 0.50
     Davidson diagonalization with overlap
     ethr =  1.16E-08,  avg # of iterations =  2.0

     total cpu time spent up to now is       12.1 secs

     total energy              =    -504.01790664 Ry
     estimated scf accuracy    <       0.00001146 Ry

     iteration #  6     ecut=    50.00 Ry     beta= 0.50
     Davidson diagonalization with overlap
     ethr =  4.48E-09,  avg # of iterations =  1.0

     total cpu time spent up to now is       12.2 secs

     total energy              =    -504.01790552 Ry
     estimated scf accuracy    <       0.00000612 Ry

     iteration #  7     ecut=    50.00 Ry     beta= 0.50
     Davidson diagonalization with overlap
     ethr =  2.39E-09,  avg # of iterations =  2.0

     total cpu time spent up to now is       12.4 secs

     total energy              =    -504.01790442 Ry
     estimated scf accuracy    <       0.00000304 Ry

     iteration #  8     ecut=    50.00 Ry     beta= 0.50
     Davidson diagonalization with overlap
     ethr =  1.19E-09,  avg # of iterations =  2.0

     total cpu time spent up to now is       12.6 secs

     End of self-consistent calculation

          k = 0.0000 0.0000 0.0000 ( 25814 PWs)   bands (ev):

    -5.7509  -4.6833  -4.6833  -4.6833  -4.6833  -4.6833  -4.6833  -3.7363
    -3.7363  -3.7363  -3.7363  -3.7363  -3.7363  -3.7363  -3.7363  -3.7363
    -3.7363  -3.7363  -3.7363  -3.4579  -3.4579  -3.4579  -3.4579  -1.6625
    -1.6625  -1.6625  -1.6625  -1.6625  -1.6625  -1.5050  -1.5050  -1.5050
    -1.5050  -1.5050  -1.5050  -1.5050  -1.5050  -1.5050  -1.5050  -1.5050
    -1.5050  -0.7954  -0.7954  -0.7954  -0.7954   0.6515   0.6515   0.6515
     0.6515   0.6515   0.6515   0.6515   0.6515   0.6515   0.6515   0.6515
     0.6515   2.3137   2.3137   2.3137   2.3137   2.3137   2.3137   2.3137
     2.3137   2.3138   2.3138   2.3138   2.3138   2.4076   2.4076   2.4076
     2.4076   2.4076   2.4076   2.4076   2.4076   2.4076   2.4076   2.4076
     2.4076   2.5834   2.5834   2.5834   2.5834   2.5834   2.5834   3.2955
     3.2955   3.2955   3.2955   3.2955   3.2955   4.2443   4.2443   4.2443
     4.2443   4.2443   4.2443   4.2443   4.2443   4.2443   4.2443   4.2443
     4.2443   4.7971   4.7971   4.7971   4.7971   4.7971   4.7971   4.7971
     4.7971   4.7971   4.7971   4.7971   4.7971   4.9235   4.9235   4.9235
     4.9235   4.9235   4.9235   4.9235   4.9235   6.1054   6.1054   6.1054

     highest occupied level (ev):     6.1054

!    total energy              =    -504.01790459 Ry
     estimated scf accuracy    <       0.00000029 Ry

     The total energy is the sum of the following terms:
     one-electron contribution =     147.99742613 Ry
     hartree contribution      =      36.57051337 Ry
     xc contribution           =    -153.94387404 Ry
     ewald contribution        =    -534.64197005 Ry

     convergence has been achieved in   8 iterations

     Forces acting on atoms (cartesian axes, Ry/au):

     atom    1 type  1   force =     0.00000000    0.00000000    0.00000000
     atom    2 type  1   force =    -0.00000062    0.00000325    0.00000325
     atom    3 type  1   force =     0.00000325   -0.00000062    0.00000325
     atom    4 type  1   force =     0.00000325    0.00000325   -0.00000062
     atom    5 type  1   force =     0.00000271    0.00000271    0.00000271
     atom    6 type  1   force =     0.00000000    0.00000000    0.00000000
     atom    7 type  1   force =    -0.00000011    0.00000387    0.00000387
     atom    8 type  1   force =    -0.00000203    0.00000209    0.00000209
     atom    9 type  1   force =    -0.00000325    0.00000062    0.00000325
     atom   10 type  1   force =    -0.00000325    0.00000325    0.00000062
     atom   11 type  1   force =     0.00000000    0.00000000    0.00000000
     atom   12 type  1   force =     0.00000387   -0.00000011    0.00000387
     atom   13 type  1   force =     0.00000209   -0.00000203    0.00000209
     atom   14 type  1   force =     0.00000275    0.00000275    0.00000266
     atom   15 type  1   force =     0.00000000    0.00000000    0.00000000
     atom   16 type  1   force =    -0.00000275   -0.00000275    0.00000266
     atom   17 type  1   force =    -0.00000209    0.00000203    0.00000209
     atom   18 type  1   force =    -0.00000387    0.00000011    0.00000387
     atom   19 type  1   force =     0.00000062   -0.00000325    0.00000325
     atom   20 type  1   force =     0.00000325   -0.00000325    0.00000062
     atom   21 type  1   force =     0.00000203   -0.00000209    0.00000209
     atom   22 type  1   force =     0.00000011   -0.00000387    0.00000387
     atom   23 type  1   force =    -0.00000325   -0.00000325   -0.00000062
     atom   24 type  1   force =    -0.00000271   -0.00000271    0.00000271
     atom   25 type  1   force =     0.00000000    0.00000000    0.00000000
     atom   26 type  1   force =     0.00000387    0.00000387   -0.00000011
     atom   27 type  1   force =     0.00000209    0.00000209   -0.00000203
     atom   28 type  1   force =     0.00000275    0.00000266    0.00000275
     atom   29 type  1   force =     0.00000000    0.00000000    0.00000000
     atom   30 type  1   force =    -0.00000275    0.00000266   -0.00000275
     atom   31 type  1   force =    -0.00000209    0.00000209    0.00000203
     atom   32 type  1   force =    -0.00000387    0.00000387    0.00000011
     atom   33 type  1   force =     0.00000266    0.00000275    0.00000275
     atom   34 type  1   force =     0.00000000    0.00000000    0.00000000
     atom   35 type  1   force =     0.00000266   -0.00000275   -0.00000275
     atom   36 type  1   force =    -0.00000265    0.00000265    0.00000265
     atom   37 type  1   force =     0.00000265   -0.00000265    0.00000265
     atom   38 type  1   force =     0.00000265    0.00000265   -0.00000265
     atom   39 type  1   force =     0.00000000    0.00000000    0.00000000
     atom   40 type  1   force =    -0.00000265   -0.00000265   -0.00000265
     atom   41 type  1   force =    -0.00000266   -0.00000275    0.00000275
     atom   42 type  1   force =    -0.00000266    0.00000275   -0.00000275
     atom   43 type  1   force =     0.00000209   -0.00000209    0.00000203
     atom   44 type  1   force =     0.00000387   -0.00000387    0.00000011
     atom   45 type  1   force =    -0.00000275   -0.00000266    0.00000275
     atom   46 type  1   force =     0.00000275   -0.00000266   -0.00000275
     atom   47 type  1   force =    -0.00000387   -0.00000387   -0.00000011
     atom   48 type  1   force =    -0.00000209   -0.00000209   -0.00000203
     atom   49 type  1   force =     0.00000062    0.00000325   -0.00000325
     atom   50 type  1   force =     0.00000325    0.00000062   -0.00000325
     atom   51 type  1   force =     0.00000203    0.00000209   -0.00000209
     atom   52 type  1   force =     0.00000011    0.00000387   -0.00000387
     atom   53 type  1   force =    -0.00000325   -0.00000062   -0.00000325
     atom   54 type  1   force =    -0.00000271    0.00000271   -0.00000271
     atom   55 type  1   force =     0.00000209    0.00000203   -0.00000209
     atom   56 type  1   force =     0.00000387    0.00000011   -0.00000387
     atom   57 type  1   force =    -0.00000275    0.00000275   -0.00000266
     atom   58 type  1   force =     0.00000275   -0.00000275   -0.00000266
     atom   59 type  1   force =    -0.00000387   -0.00000011   -0.00000387
     atom   60 type  1   force =    -0.00000209   -0.00000203   -0.00000209
     atom   61 type  1   force =    -0.00000062   -0.00000325   -0.00000325
     atom   62 type  1   force =     0.00000271   -0.00000271   -0.00000271
     atom   63 type  1   force =    -0.00000011   -0.00000387   -0.00000387
     atom   64 type  1   force =    -0.00000203   -0.00000209   -0.00000209

     Total force =     0.000035     Total SCF correction =     0.000891
     SCF correction compared to forces is large: reduce conv_thr to get better values


     Computing stress (Cartesian axis) and pressure

          total   stress  (Ry/bohr**3)                   (kbar)     P=       15.72
   0.00010687   0.00000000   0.00000000           15.72        0.00        0.00
   0.00000000   0.00010687   0.00000000            0.00       15.72        0.00
   0.00000000   0.00000000   0.00010687            0.00        0.00       15.72

     Energy error            =      2.2E-02 Ry
     Gradient error          =      3.9E-06 Ry/Bohr
     Cell gradient error     =      1.6E+01 kbar

     number of scf cycles    =   2
     number of bfgs steps    =   1

     enthalpy           old  =    -503.9957176446 Ry
     enthalpy           new  =    -504.0179045862 Ry

     CASE: enthalpy          _new < enthalpy          _old

     new trust radius        =       0.1018645307 bohr
     new conv_thr            =       0.0000000100 Ry

     new unit-cell volume =   8930.03419 a.u.^3 (  1323.29454 Ang^3 )
     density =      2.25556 g/cm^3

CELL_PARAMETERS (angstrom)
  10.978731741   0.000000000   0.000000000
   0.000000000  10.978731741   0.000000000
   0.000000000   0.000000000  10.978731741

ATOMIC_POSITIONS (angstrom)
Si            0.0000000000        0.0000000000        0.0000000000
Si           -0.0000002710        2.7446848193        2.7446848193
Si            2.7446848193       -0.0000002710        2.7446848193
Si            2.7446848193        2.7446848193       -0.0000002710
Si            1.3723434746        1.3723434746        1.3723434746
Si            5.4893658703        0.0000000000        0.0000000000
Si            5.4893654309        2.7446845988        2.7446845988
Si            6.8617064625        1.3723428635        1.3723428635
Si            8.2340469213        0.0000002710        2.7446848193
Si            8.2340469213        2.7446848193        0.0000002710
Si            0.0000000000        5.4893658703        0.0000000000
Si            2.7446845988        5.4893654309        2.7446845988
Si            1.3723428635        6.8617064625        1.3723428635
Si            4.1170251308        4.1170251308        1.3723427901
Si            5.4893658703        5.4893658703        0.0000000000
Si            6.8617066098        6.8617066098        1.3723427901
Si            9.6063888771        4.1170252781        1.3723428635
Si            8.2340471417        5.4893663097        2.7446845988
Si            0.0000002710        8.2340469213        2.7446848193
Si            2.7446848193        8.2340469213        0.0000002710
Si            4.1170252781        9.6063888771        1.3723428635
Si            5.4893663097        8.2340471417        2.7446845988
Si            8.2340469213        8.2340469213       -0.0000002710
Si            9.6063882659        9.6063882659        1.3723434746
Si            0.0000000000        0.0000000000        5.4893658703
Si            2.7446845988        2.7446845988        5.4893654309
Si            1.3723428635        1.3723428635        6.8617064625
Si            4.1170251308        1.3723427901        4.1170251308
Si            5.4893658703        0.0000000000        5.4893658703
Si            6.8617066098        1.3723427901        6.8617066098
Si            9.6063888771        1.3723428635        4.1170252781
Si            8.2340471417        2.7446845988        5.4893663097
Si            1.3723427901        4.1170251308        4.1170251308
Si            0.0000000000        5.4893658703        5.4893658703
Si            1.3723427901        6.8617066098        6.8617066098
Si            6.8617067715        4.1170249691        4.1170249691
Si            4.1170249691        6.8617067715        4.1170249691
Si            4.1170249691        4.1170249691        6.8617067715
Si            5.4893658703        5.4893658703        5.4893658703
Si            6.8617067715        6.8617067715        6.8617067715
Si            9.6063889505        6.8617066098        4.1170251308
Si            9.6063889505        4.1170251308        6.8617066098
Si            1.3723428635        9.6063888771        4.1170252781
Si            2.7446845988        8.2340471417        5.4893663097
Si            6.8617066098        9.6063889505        4.1170251308
Si            4.1170251308        9.6063889505        6.8617066098
Si            8.2340471417        8.2340471417        5.4893654309
Si            9.6063888771        9.6063888771        6.8617064625
Si            0.0000002710        2.7446848193        8.2340469213
Si            2.7446848193        0.0000002710        8.2340469213
Si            4.1170252781        1.3723428635        9.6063888771
Si            5.4893663097        2.7446845988        8.2340471417
Si            8.2340469213       -0.0000002710        8.2340469213
Si            9.6063882659        1.3723434746        9.6063882659
Si            1.3723428635        4.1170252781        9.6063888771
Si            2.7446845988        5.4893663097        8.2340471417
Si            6.8617066098        4.1170251308        9.6063889505
Si            4.1170251308        6.8617066098        9.6063889505
Si            8.2340471417        5.4893654309        8.2340471417
Si            9.6063888771        6.8617064625        9.6063888771
Si           -0.0000002710        8.2340469213        8.2340469213
Si            1.3723434746        9.6063882659        9.6063882659
Si            5.4893654309        8.2340471417        8.2340471417
Si            6.8617064625        9.6063888771        9.6063888771



     Writing config-only to output data dir ./pwscf.save/
     NEW-OLD atomic charge density approx. for the potential
     extrapolated charge  260.12751, renormalised to  256.00000

     total cpu time spent up to now is       15.2 secs

     Self-consistent Calculation

     iteration #  1     ecut=    50.00 Ry     beta= 0.50
     Davidson diagonalization with overlap
     ethr =  1.00E-06,  avg # of iterations =  6.0

     total cpu time spent up to now is       15.5 secs

     total energy              =    -504.02045977 Ry
     estimated scf accuracy    <       0.00272902 Ry

     iteration #  2     ecut=    50.00 Ry     beta= 0.50
     Davidson diagonalization with overlap
     ethr =  1.07E-06,  avg # of iterations =  4.0

     total cpu time spent up to now is       15.7 secs

     total energy              =    -504.02599746 Ry
     estimated scf accuracy    <       0.00114946 Ry

     iteration #  3     ecut=    50.00 Ry     beta= 0.50
     Davidson diagonalization with overlap
     ethr =  4.49E-07,  avg # of iterations =  1.0

     total cpu time spent up to now is       15.8 secs

     total energy              =    -504.02583456 Ry
     estimated scf accuracy    <       0.00049760 Ry

     iteration #  4     ecut=    50.00 Ry     beta= 0.50
     Davidson diagonalization with overlap
     ethr =  1.94E-07,  avg # of iterations =  2.0

     total cpu time spent up to now is       16.0 secs

     total energy              =    -504.02588060 Ry
     estimated scf accuracy    <       0.00000243 Ry

     iteration #  5     ecut=    50.00 Ry     beta= 0.50
     Davidson diagonalization with overlap
     ethr =  9.48E-10,  avg # of iterations =  4.0

     total cpu time spent up to now is       16.2 secs

     total energy              =    -504.02588498 Ry
     estimated scf accuracy    <       0.00001229 Ry

     iteration #  6     ecut=    50.00 Ry     beta= 0.50
     Davidson diagonalization with overlap
     ethr =  9.48E-10,  avg # of iterations =  1.0

     total cpu time spent up to now is       16.4 secs

     total energy              =    -504.02587875 Ry
     estimated scf accuracy    <       0.00001543 Ry

     iteration #  7     ecut=    50.00 Ry     beta= 0.50
     Davidson diagonalization with overlap
     ethr =  9.48E-10,  avg # of iterations =  2.0

     total cpu time spent up to now is       16.6 secs

     total energy              =    -504.02587942 Ry
     estimated scf accuracy    <       0.00000144 Ry

     iteration #  8     ecut=    50.00 Ry     beta= 0.50
     Davidson diagonalization with overlap
     ethr =  5.63E-10,  avg # of iterations =  2.0

     total cpu time spent up to now is       16.8 secs

     total energy              =    -504.02587952 Ry
     estimated scf accuracy    <       0.00000026 Ry

     iteration #  9     ecut=    50.00 Ry     beta= 0.50
     Davidson diagonalization with overlap
     ethr =  1.01E-10,  avg # of iterations =  2.0

     total cpu time spent up to now is       16.9 secs

     total energy              =    -504.02587956 Ry
     estimated scf accuracy    <       0.00000004 Ry

     iteration # 10     ecut=    50.00 Ry     beta= 0.50
     Davidson diagonalization with overlap
     ethr =  1.61E-11,  avg # of iterations =  4.0

     total cpu time spent up to now is       17.1 secs

     End of self-consistent calculation

          k = 0.0000 0.0000 0.0000 ( 25814 PWs)   bands (ev):

    -5.8077  -4.7551  -4.7551  -4.7551  -4.7551  -4.7551  -4.7551  -3.8236
    -3.8236  -3.8236  -3.8236  -3.8236  -3.8236  -3.8236  -3.8236  -3.8236
    -3.8236  -3.8236  -3.8236  -3.5550  -3.5550  -3.5550  -3.5550  -1.7777
    -1.7777  -1.7777  -1.7777  -1.7777  -1.7777  -1.6272  -1.6272  -1.6272
    -1.6272  -1.6272  -1.6272  -1.6272  -1.6272  -1.6272  -1.6272  -1.6272
    -1.6272  -0.8879  -0.8879  -0.8879  -0.8879   0.5135   0.5135   0.5135
     0.5135   0.5135   0.5135   0.5135   0.5135   0.5135   0.5135   0.5135
     0.5135   2.2147   2.2147   2.2147   2.2147   2.2147   2.2147   2.2147
     2.2147   2.2147   2.2147   2.2147   2.2147   2.3027   2.3027   2.3027
     2.3027   2.3027   2.3027   2.3027   2.3027   2.3027   2.3027   2.3027
     2.3027   2.4133   2.4133   2.4133   2.4133   2.4133   2.4133   3.1709
     3.1709   3.1709   3.1709   3.1709   3.1709   4.1076   4.1076   4.1076
     4.1076   4.1076   4.1076   4.1076   4.1076   4.1076   4.1076   4.1076
     4.1076   4.6486   4.6486   4.6486   4.6486   4.6486   4.6486   4.6486
     4.6486   4.6486   4.6486   4.6486   4.6486   4.7711   4.7711   4.7711
     4.7711   4.7711   4.7711   4.7711   4.7711   5.9389   5.9389   5.9389

     highest occupied level (ev):     5.9389

!    total energy              =    -504.02587956 Ry
     estimated scf accuracy    <          9.1E-09 Ry

     The total energy is the sum of the following terms:
     one-electron contribution =     144.11112989 Ry
     hartree contribution      =      37.01854843 Ry
     xc contribution           =    -153.40297807 Ry
     ewald contribution        =    -531.75257981 Ry

     convergence has been achieved in  10 iterations

     Forces acting on atoms (cartesian axes, Ry/au):

     atom    1 type  1   force =     0.00000000    0.00000000    0.00000000
     atom    2 type  1   force =     0.00000011   -0.00000161   -0.00000161
     atom    3 type  1   force =    -0.00000161    0.00000011   -0.00000161
     atom    4 type  1   force =    -0.00000161   -0.00000161    0.00000011
     atom    5 type  1   force =    -0.00000143   -0.00000143   -0.00000143
     atom    6 type  1   force =     0.00000000    0.00000000    0.00000000
     atom    7 type  1   force =     0.00000024   -0.00000155   -0.00000155
     atom    8 type  1   force =     0.00000083   -0.00000116   -0.00000116
     atom    9 type  1   force =     0.00000161   -0.00000011   -0.00000161
     atom   10 type  1   force =     0.00000161   -0.00000161   -0.00000011
     atom   11 type  1   force =     0.00000000    0.00000000    0.00000000
     atom   12 type  1   force =    -0.00000155    0.00000024   -0.00000155
     atom   13 type  1   force =    -0.00000116    0.00000083   -0.00000116
     atom   14 type  1   force =    -0.00000088   -0.00000088   -0.00000116
     atom   15 type  1   force =     0.00000000    0.00000000    0.00000000
     atom   16 type  1   force =     0.00000088    0.00000088   -0.00000116
     atom   17 type  1   force =     0.00000116   -0.00000083   -0.00000116
     atom   18 type  1   force =     0.00000155   -0.00000024   -0.00000155
     atom   19 type  1   force =    -0.00000011    0.00000161   -0.00000161
     atom   20 type  1   force =    -0.00000161    0.00000161   -0.00000011
     atom   21 type  1   force =    -0.00000083    0.00000116   -0.00000116
     atom   22 type  1   force =    -0.00000024    0.00000155   -0.00000155
     atom   23 type  1   force =     0.00000161    0.00000161    0.00000011
     atom   24 type  1   force =     0.00000143    0.00000143   -0.00000143
     atom   25 type  1   force =     0.00000000    0.00000000    0.00000000
     atom   26 type  1   force =    -0.00000155   -0.00000155    0.00000024
     atom   27 type  1   force =    -0.00000116   -0.00000116    0.00000083
     atom   28 type  1   force =    -0.00000088   -0.00000116   -0.00000088
     atom   29 type  1   force =     0.00000000    0.00000000    0.00000000
     atom   30 type  1   force =     0.00000088   -0.00000116    0.00000088
     atom   31 type  1   force =     0.00000116   -0.00000116   -0.00000083
     atom   32 type  1   force =     0.00000155   -0.00000155   -0.00000024
     atom   33 type  1   force =    -0.00000116   -0.00000088   -0.00000088
     atom   34 type  1   force =     0.00000000    0.00000000    0.00000000
     atom   35 type  1   force =    -0.00000116    0.00000088    0.00000088
     atom   36 type  1   force =     0.00000077   -0.00000077   -0.00000077
     atom   37 type  1   force =    -0.00000077    0.00000077   -0.00000077
     atom   38 type  1   force =    -0.00000077   -0.00000077    0.00000077
     atom   39 type  1   force =     0.00000000    0.00000000    0.00000000
     atom   40 type  1   force =     0.00000077    0.00000077    0.00000077
     atom   41 type  1   force =     0.00000116    0.00000088   -0.00000088
     atom   42 type  1   force =     0.00000116   -0.00000088    0.00000088
     atom   43 type  1   force =    -0.00000116    0.00000116   -0.00000083
     atom   44 type  1   force =    -0.00000155    0.00000155   -0.00000024
     atom   45 type  1   force =     0.00000088    0.00000116   -0.00000088
     atom   46 type  1   force =    -0.00000088    0.00000116    0.00000088
     atom   47 type  1   force =     0.00000155    0.00000155    0.00000024
     atom   48 type  1   force =     0.00000116    0.00000116    0.00000083
     atom   49 type  1   force =    -0.00000011   -0.00000161    0.00000161
     atom   50 type  1   force =    -0.00000161   -0.00000011    0.00000161
     atom   51 type  1   force =    -0.00000083   -0.00000116    0.00000116
     atom   52 type  1   force =    -0.00000024   -0.00000155    0.00000155
     atom   53 type  1   force =     0.00000161    0.00000011    0.00000161
     atom   54 type  1   force =     0.00000143   -0.00000143    0.00000143
     atom   55 type  1   force =    -0.00000116   -0.00000083    0.00000116
     atom   56 type  1   force =    -0.00000155   -0.00000024    0.00000155
     atom   57 type  1   force =     0.00000088   -0.00000088    0.00000116
     atom   58 type  1   force =    -0.00000088    0.00000088    0.00000116
     atom   59 type  1   force =     0.00000155    0.00000024    0.00000155
     atom   60 type  1   force =     0.00000116    0.00000083    0.00000116
     atom   61 type  1   force =     0.00000011    0.00000161    0.00000161
     atom   62 type  1   force =    -0.00000143    0.00000143    0.00000143
     atom   63 type  1   force =     0.00000024    0.00000155    0.00000155
     atom   64 type  1   force =     0.00000083    0.00000116    0.00000116

     Total force =     0.000015     Total SCF correction =     0.000067
     SCF correction compared to forces is large: reduce conv_thr to get better values


     Computing stress (Cartesian axis) and pressure

          total   stress  (Ry/bohr**3)                   (kbar)     P=        0.80
   0.00000542   0.00000000   0.00000000            0.80        0.00        0.00
   0.00000000   0.00000542   0.00000000            0.00        0.80        0.00
   0.00000000   0.00000000   0.00000542            0.00        0.00        0.80

     Energy error            =      8.0E-03 Ry
     Gradient error          =      1.6E-06 Ry/Bohr
     Cell gradient error     =      8.0E-01 kbar

     number of scf cycles    =   3
     number of bfgs steps    =   2

     enthalpy           old  =    -504.0179045862 Ry
     enthalpy           new  =    -504.0258795633 Ry

     CASE: enthalpy          _new < enthalpy          _old

     new trust radius        =       0.0055199793 bohr
     new conv_thr            =       0.0000000100 Ry

     new unit-cell volume =   8937.86095 a.u.^3 (  1324.45435 Ang^3 )
     density =      2.25359 g/cm^3

CELL_PARAMETERS (angstrom)
  10.981938254   0.000000000   0.000000000
   0.000000000  10.981938254   0.000000000
   0.000000000   0.000000000  10.981938254

ATOMIC_POSITIONS (angstrom)
Si            0.0000000000        0.0000000000        0.0000000000
Si           -0.0000002255        2.7454856243        2.7454856243
Si            2.7454856243       -0.0000002255        2.7454856243
Si            2.7454856243        2.7454856243       -0.0000002255
Si            1.3727435529        1.3727435529        1.3727435529
Si            5.4909691270        0.0000000000        0.0000000000
Si            5.4909688216        2.7454854608        2.7454854608
Si            6.8637109434        1.3727430769        1.3727430769
Si            8.2364526297        0.0000002255        2.7454856243
Si            8.2364526297        2.7454856243        0.0000002255
Si            0.0000000000        5.4909691270        0.0000000000
Si            2.7454854608        5.4909688216        2.7454854608
Si            1.3727430769        6.8637109434        1.3727430769
Si            4.1182271509        4.1182271509        1.3727430239
Si            5.4909691270        5.4909691270        0.0000000000
Si            6.8637111031        6.8637111031        1.3727430239
Si            9.6091951771        4.1182273106        1.3727430769
Si            8.2364527933        5.4909694324        2.7454854608
Si            0.0000002255        8.2364526297        2.7454856243
Si            2.7454856243        8.2364526297        0.0000002255
Si            4.1182273106        9.6091951771        1.3727430769
Si            5.4909694324        8.2364527933        2.7454854608
Si            8.2364526297        8.2364526297       -0.0000002255
Si            9.6091947012        9.6091947012        1.3727435529
Si            0.0000000000        0.0000000000        5.4909691270
Si            2.7454854608        2.7454854608        5.4909688216
Si            1.3727430769        1.3727430769        6.8637109434
Si            4.1182271509        1.3727430239        4.1182271509
Si            5.4909691270        0.0000000000        5.4909691270
Si            6.8637111031        1.3727430239        6.8637111031
Si            9.6091951771        1.3727430769        4.1182273106
Si            8.2364527933        2.7454854608        5.4909694324
Si            1.3727430239        4.1182271509        4.1182271509
Si            0.0000000000        5.4909691270        5.4909691270
Si            1.3727430239        6.8637111031        6.8637111031
Si            6.8637112038        4.1182270502        4.1182270502
Si            4.1182270502        6.8637112038        4.1182270502
Si            4.1182270502        4.1182270502        6.8637112038
Si            5.4909691270        5.4909691270        5.4909691270
Si            6.8637112038        6.8637112038        6.8637112038
Si            9.6091952301        6.8637111031        4.1182271509
Si            9.6091952301        4.1182271509        6.8637111031
Si            1.3727430769        9.6091951771        4.1182273106
Si            2.7454854608        8.2364527933        5.4909694324
Si            6.8637111031        9.6091952301        4.1182271509
Si            4.1182271509        9.6091952301        6.8637111031
Si            8.2364527933        8.2364527933        5.4909688216
Si            9.6091951771        9.6091951771        6.8637109434
Si            0.0000002255        2.7454856243        8.2364526297
Si            2.7454856243        0.0000002255        8.2364526297
Si            4.1182273106        1.3727430769        9.6091951771
Si            5.4909694324        2.7454854608        8.2364527933
Si            8.2364526297       -0.0000002255        8.2364526297
Si            9.6091947012        1.3727435529        9.6091947012
Si            1.3727430769        4.1182273106        9.6091951771
Si            2.7454854608        5.4909694324        8.2364527933
Si            6.8637111031        4.1182271509        9.6091952301
Si            4.1182271509        6.8637111031        9.6091952301
Si            8.2364527933        5.4909688216        8.2364527933
Si            9.6091951771        6.8637109434        9.6091951771
Si           -0.0000002255        8.2364526297        8.2364526297
Si            1.3727435529        9.6091947012        9.6091947012
Si            5.4909688216        8.2364527933        8.2364527933
Si            6.8637109434        9.6091951771        9.6091951771



     Writing config-only to output data dir ./pwscf.save/
     NEW-OLD atomic charge density approx. for the potential
     extrapolated charge  256.22414, renormalised to  256.00000

     total cpu time spent up to now is       19.7 secs

     Self-consistent Calculation

     iteration #  1     ecut=    50.00 Ry     beta= 0.50
     Davidson diagonalization with overlap
     ethr =  1.00E-06,  avg # of iterations =  2.0

     Threshold (ethr) on eigenvalues was too large:
     Diagonalizing with lowered threshold

     Davidson diagonalization with overlap
     ethr =  3.46E-09,  avg # of iterations =  4.0

     total cpu time spent up to now is       20.1 secs

     total energy              =    -504.02588511 Ry
     estimated scf accuracy    <       0.00000848 Ry

     iteration #  2     ecut=    50.00 Ry     beta= 0.50
     Davidson diagonalization with overlap
     ethr =  3.31E-09,  avg # of iterations =  3.0

     total cpu time spent up to now is       20.3 secs

     total energy              =    -504.02590140 Ry
     estimated scf accuracy    <       0.00000325 Ry

     iteration #  3     ecut=    50.00 Ry     beta= 0.50
     Davidson diagonalization with overlap
     ethr =  1.27E-09,  avg # of iterations =  1.0

     total cpu time spent up to now is       20.5 secs

     total energy              =    -504.02590100 Ry
     estimated scf accuracy    <       0.00000138 Ry

     iteration #  4     ecut=    50.00 Ry     beta= 0.50
     Davidson diagonalization with overlap
     ethr =  5.38E-10,  avg # of iterations =  2.0

     total cpu time spent up to now is       20.6 secs

     total energy              =    -504.02590108 Ry
     estimated scf accuracy    <       0.00000004 Ry

     iteration #  5     ecut=    50.00 Ry     beta= 0.50
     Davidson diagonalization with overlap
     ethr =  1.46E-11,  avg # of iterations =  3.0

     total cpu time spent up to now is       20.8 secs

     total energy              =    -504.02590109 Ry
     estimated scf accuracy    <       0.00000003 Ry

     iteration #  6     ecut=    50.00 Ry     beta= 0.50
     Davidson diagonalization with overlap
     ethr =  1.24E-11,  avg # of iterations =  2.0

     total cpu time spent up to now is       21.0 secs

     End of self-consistent calculation

          k = 0.0000 0.0000 0.0000 ( 25814 PWs)   bands (ev):

    -5.8107  -4.7589  -4.7589  -4.7589  -4.7589  -4.7589  -4.7589  -3.8283
    -3.8283  -3.8283  -3.8283  -3.8283  -3.8283  -3.8283  -3.8282  -3.8282
    -3.8282  -3.8282  -3.8282  -3.5601  -3.5601  -3.5601  -3.5601  -1.7838
    -1.7838  -1.7838  -1.7838  -1.7838  -1.7838  -1.6337  -1.6337  -1.6337
    -1.6337  -1.6337  -1.6337  -1.6337  -1.6337  -1.6337  -1.6337  -1.6337
    -1.6337  -0.8928  -0.8928  -0.8928  -0.8928   0.5061   0.5061   0.5061
     0.5061   0.5061   0.5061   0.5061   0.5061   0.5061   0.5061   0.5061
     0.5061   2.2095   2.2095   2.2095   2.2095   2.2095   2.2095   2.2095
     2.2095   2.2095   2.2095   2.2095   2.2095   2.2971   2.2971   2.2971
     2.2971   2.2971   2.2971   2.2971   2.2971   2.2971   2.2971   2.2971
     2.2971   2.4042   2.4042   2.4042   2.4042   2.4042   2.4042   3.1643
     3.1643   3.1643   3.1643   3.1643   3.1643   4.1003   4.1003   4.1003
     4.1003   4.1003   4.1003   4.1003   4.1003   4.1003   4.1003   4.1003
     4.1003   4.6407   4.6407   4.6407   4.6407   4.6407   4.6407   4.6407
     4.6407   4.6407   4.6407   4.6407   4.6407   4.7630   4.7630   4.7630
     4.7630   4.7630   4.7630   4.7630   4.7630   5.9301   5.9301   5.9301

     highest occupied level (ev):     5.9301

!    total energy              =    -504.02590109 Ry
     estimated scf accuracy    <          5.6E-10 Ry

     The total energy is the sum of the following terms:
     one-electron contribution =     143.90278007 Ry
     hartree contribution      =      37.04249133 Ry
     xc contribution           =    -153.37385414 Ry
     ewald contribution        =    -531.59731835 Ry

     convergence has been achieved in   6 iterations

     Forces acting on atoms (cartesian axes, Ry/au):

     atom    1 type  1   force =     0.00000000    0.00000000    0.00000000
     atom    2 type  1   force =     0.00000009    0.00000040    0.00000040
     atom    3 type  1   force =     0.00000040    0.00000009    0.00000040
     atom    4 type  1   force =     0.00000040    0.00000040    0.00000009
     atom    5 type  1   force =     0.00000004    0.00000004    0.00000004
     atom    6 type  1   force =     0.00000000    0.00000000    0.00000000
     atom    7 type  1   force =     0.00000012    0.00000024    0.00000024
     atom    8 type  1   force =    -0.00000052    0.00000027    0.00000027
     atom    9 type  1   force =    -0.00000040   -0.00000009    0.00000040
     atom   10 type  1   force =    -0.00000040    0.00000040   -0.00000009
     atom   11 type  1   force =     0.00000000    0.00000000    0.00000000
     atom   12 type  1   force =     0.00000024    0.00000012    0.00000024
     atom   13 type  1   force =     0.00000027   -0.00000052    0.00000027
     atom   14 type  1   force =     0.00000040    0.00000040    0.00000016
     atom   15 type  1   force =     0.00000000    0.00000000    0.00000000
     atom   16 type  1   force =    -0.00000040   -0.00000040    0.00000016
     atom   17 type  1   force =    -0.00000027    0.00000052    0.00000027
     atom   18 type  1   force =    -0.00000024   -0.00000012    0.00000024
     atom   19 type  1   force =    -0.00000009   -0.00000040    0.00000040
     atom   20 type  1   force =     0.00000040   -0.00000040   -0.00000009
     atom   21 type  1   force =     0.00000052   -0.00000027    0.00000027
     atom   22 type  1   force =    -0.00000012   -0.00000024    0.00000024
     atom   23 type  1   force =    -0.00000040   -0.00000040    0.00000009
     atom   24 type  1   force =    -0.00000004   -0.00000004    0.00000004
     atom   25 type  1   force =     0.00000000    0.00000000    0.00000000
     atom   26 type  1   force =     0.00000024    0.00000024    0.00000012
     atom   27 type  1   force =     0.00000027    0.00000027   -0.00000052
     atom   28 type  1   force =     0.00000040    0.00000016    0.00000040
     atom   29 type  1   force =     0.00000000    0.00000000    0.00000000
     atom   30 type  1   force =    -0.00000040    0.00000016   -0.00000040
     atom   31 type  1   force =    -0.00000027    0.00000027    0.00000052
     atom   32 type  1   force =    -0.00000024    0.00000024   -0.00000012
     atom   33 type  1   force =     0.00000016    0.00000040    0.00000040
     atom   34 type  1   force =     0.00000000    0.00000000    0.00000000
     atom   35 type  1   force =     0.00000016   -0.00000040   -0.00000040
     atom   36 type  1   force =    -0.00000028    0.00000028    0.00000028
     atom   37 type  1   force =     0.00000028   -0.00000028    0.00000028
     atom   38 type  1   force =     0.00000028    0.00000028   -0.00000028
     atom   39 type  1   force =     0.00000000    0.00000000    0.00000000
     atom   40 type  1   force =    -0.00000028   -0.00000028   -0.00000028
     atom   41 type  1   force =    -0.00000016   -0.00000040    0.00000040
     atom   42 type  1   force =    -0.00000016    0.00000040   -0.00000040
     atom   43 type  1   force =     0.00000027   -0.00000027    0.00000052
     atom   44 type  1   force =     0.00000024   -0.00000024   -0.00000012
     atom   45 type  1   force =    -0.00000040   -0.00000016    0.00000040
     atom   46 type  1   force =     0.00000040   -0.00000016   -0.00000040
     atom   47 type  1   force =    -0.00000024   -0.00000024    0.00000012
     atom   48 type  1   force =    -0.00000027   -0.00000027   -0.00000052
     atom   49 type  1   force =    -0.00000009    0.00000040   -0.00000040
     atom   50 type  1   force =     0.00000040   -0.00000009   -0.00000040
     atom   51 type  1   force =     0.00000052    0.00000027   -0.00000027
     atom   52 type  1   force =    -0.00000012    0.00000024   -0.00000024
     atom   53 type  1   force =    -0.00000040    0.00000009   -0.00000040
     atom   54 type  1   force =    -0.00000004    0.00000004   -0.00000004
     atom   55 type  1   force =     0.00000027    0.00000052   -0.00000027
     atom   56 type  1   force =     0.00000024   -0.00000012   -0.00000024
     atom   57 type  1   force =    -0.00000040    0.00000040   -0.00000016
     atom   58 type  1   force =     0.00000040   -0.00000040   -0.00000016
     atom   59 type  1   force =    -0.00000024    0.00000012   -0.00000024
     atom   60 type  1   force =    -0.00000027   -0.00000052   -0.00000027
     atom   61 type  1   force =     0.00000009   -0.00000040   -0.00000040
     atom   62 type  1   force =     0.00000004   -0.00000004   -0.00000004
     atom   63 type  1   force =     0.00000012   -0.00000024   -0.00000024
     atom   64 type  1   force =    -0.00000052   -0.00000027   -0.00000027

     Total force =     0.000004     Total SCF correction =     0.000005
     SCF correction compared to forces is large: reduce conv_thr to get better values


     Computing stress (Cartesian axis) and pressure

          total   stress  (Ry/bohr**3)                   (kbar)     P=        0.02
   0.00000010   0.00000000   0.00000000            0.02        0.00        0.00
   0.00000000   0.00000010   0.00000000            0.00        0.02        0.00
   0.00000000   0.00000000   0.00000010            0.00        0.00        0.02

     Energy error            =      2.2E-05 Ry
     Gradient error          =      5.2E-07 Ry/Bohr
     Cell gradient error     =      1.5E-02 kbar

     bfgs converged in   4 scf cycles and   3 bfgs steps
     (criteria: energy <  1.0E-04 Ry, force <  1.0E-03 Ry/Bohr, cell <  5.0E-01 kbar)

     End of BFGS Geometry Optimization

     Final enthalpy           =    -504.0259010909 Ry

     File ./pwscf.bfgs deleted, as requested
Begin final coordinates
     new unit-cell volume =   8937.86095 a.u.^3 (  1324.45435 Ang^3 )
     density =      2.25359 g/cm^3

CELL_PARAMETERS (angstrom)
  10.981938254   0.000000000   0.000000000
   0.000000000  10.981938254   0.000000000
   0.000000000   0.000000000  10.981938254

ATOMIC_POSITIONS (angstrom)
Si            0.0000000000        0.0000000000        0.0000000000
Si           -0.0000002255        2.7454856243        2.7454856243
Si            2.7454856243       -0.0000002255        2.7454856243
Si            2.7454856243        2.7454856243       -0.0000002255
Si            1.3727435529        1.3727435529        1.3727435529
Si            5.4909691270        0.0000000000        0.0000000000
Si            5.4909688216        2.7454854608        2.7454854608
Si            6.8637109434        1.3727430769        1.3727430769
Si            8.2364526297        0.0000002255        2.7454856243
Si            8.2364526297        2.7454856243        0.0000002255
Si            0.0000000000        5.4909691270        0.0000000000
Si            2.7454854608        5.4909688216        2.7454854608
Si            1.3727430769        6.8637109434        1.3727430769
Si            4.1182271509        4.1182271509        1.3727430239
Si            5.4909691270        5.4909691270        0.0000000000
Si            6.8637111031        6.8637111031        1.3727430239
Si            9.6091951771        4.1182273106        1.3727430769
Si            8.2364527933        5.4909694324        2.7454854608
Si            0.0000002255        8.2364526297        2.7454856243
Si            2.7454856243        8.2364526297        0.0000002255
Si            4.1182273106        9.6091951771        1.3727430769
Si            5.4909694324        8.2364527933        2.7454854608
Si            8.2364526297        8.2364526297       -0.0000002255
Si            9.6091947012        9.6091947012        1.3727435529
Si            0.0000000000        0.0000000000        5.4909691270
Si            2.7454854608        2.7454854608        5.4909688216
Si            1.3727430769        1.3727430769        6.8637109434
Si            4.1182271509        1.3727430239        4.1182271509
Si            5.4909691270        0.0000000000        5.4909691270
Si            6.8637111031        1.3727430239        6.8637111031
Si            9.6091951771        1.3727430769        4.1182273106
Si            8.2364527933        2.7454854608        5.4909694324
Si            1.3727430239        4.1182271509        4.1182271509
Si            0.0000000000        5.4909691270        5.4909691270
Si            1.3727430239        6.8637111031        6.8637111031
Si            6.8637112038        4.1182270502        4.1182270502
Si            4.1182270502        6.8637112038        4.1182270502
Si            4.1182270502        4.1182270502        6.8637112038
Si            5.4909691270        5.4909691270        5.4909691270
Si            6.8637112038        6.8637112038        6.8637112038
Si            9.6091952301        6.8637111031        4.1182271509
Si            9.6091952301        4.1182271509        6.8637111031
Si            1.3727430769        9.6091951771        4.1182273106
Si            2.7454854608        8.2364527933        5.4909694324
Si            6.8637111031        9.6091952301        4.1182271509
Si            4.1182271509        9.6091952301        6.8637111031
Si            8.2364527933        8.2364527933        5.4909688216
Si            9.6091951771        9.6091951771        6.8637109434
Si            0.0000002255        2.7454856243        8.2364526297
Si            2.7454856243        0.0000002255        8.2364526297
Si            4.1182273106        1.3727430769        9.6091951771
Si            5.4909694324        2.7454854608        8.2364527933
Si            8.2364526297       -0.0000002255        8.2364526297
Si            9.6091947012        1.3727435529        9.6091947012
Si            1.3727430769        4.1182273106        9.6091951771
Si            2.7454854608        5.4909694324        8.2364527933
Si            6.8637111031        4.1182271509        9.6091952301
Si            4.1182271509        6.8637111031        9.6091952301
Si            8.2364527933        5.4909688216        8.2364527933
Si            9.6091951771        6.8637109434        9.6091951771
Si           -0.0000002255        8.2364526297        8.2364526297
Si            1.3727435529        9.6091947012        9.6091947012
Si            5.4909688216        8.2364527933        8.2364527933
Si            6.8637109434        9.6091951771        9.6091951771
End final coordinates



     Writing config-only to output data dir ./pwscf.save/

     Final scf calculation at the relaxed structure.
     The G-vectors are recalculated for the final unit cell
     Results may differ from those at the preceding step.
 
     Parallelization info
     --------------------
     sticks:   dense  smooth     PW     G-vecs:    dense   smooth      PW
     Min        3430    3430    891               213474   213474   28525
     Max        3431    3431    898               213479   213479   28526
     Sum        6861    6861   1789               426953   426953   57051
 
     Using Slab Decomposition
 


     bravais-lattice index     =            0
     lattice parameter (alat)  =      20.5251  a.u.
     unit-cell volume          =    8937.8609 (a.u.)^3
     number of atoms/cell      =           64
     number of atomic types    =            1
     number of electrons       =       256.00
     number of Kohn-Sham states=          128
     kinetic-energy cutoff     =      50.0000  Ry
     charge density cutoff     =     200.0000  Ry
     scf convergence threshold =      1.0E-08
     mixing beta               =       0.5000
     number of iterations used =            8  plain     mixing
     press convergence thresh. =      5.0E-01
     Exchange-correlation= PBE
                           (   1   4   3   4   0   0   0)

     GPU acceleration is ACTIVE.
     GPU-aware MPI enabled

     Message from routine print_cuda_info:
     High GPU oversubscription detected. Are you sure this is what you want?

     celldm(1)=  20.525071  celldm(2)=   0.000000  celldm(3)=   0.000000
     celldm(4)=   0.000000  celldm(5)=   0.000000  celldm(6)=   0.000000

     crystal axes: (cart. coord. in units of alat)
               a(1) = (   1.011098   0.000000   0.000000 )  
               a(2) = (   0.000000   1.011098   0.000000 )  
               a(3) = (   0.000000   0.000000   1.011098 )  

     reciprocal axes: (cart. coord. in units 2 pi/alat)
               b(1) = (  0.989024  0.000000  0.000000 )  
               b(2) = (  0.000000  0.989024  0.000000 )  
               b(3) = (  0.000000  0.000000  0.989024 )  


     PseudoPot. # 1 for Si read from file:
     /home/ppiaggi/pseudos/Si_ONCV_PBE_sr.upf
     MD5 check sum: 8553c464762ac42b85b1eed164b4d029
     Pseudo is Norm-conserving, Zval =  4.0
     Generated using ONCVPSP code by D. R. Hamann
     Using radial grid of 1510 points,  4 beta functions with: 
                l(1) =   0
                l(2) =   0
                l(3) =   1
                l(4) =   1

     atomic species   valence    mass     pseudopotential
        Si             4.00    28.08550     Si( 1.00)

     24 Sym. Ops. (no inversion) found



   Cartesian axes

     site n.     atom                  positions (alat units)
         1           Si  tau(   1) = (   0.0000000   0.0000000   0.0000000  )
         2           Si  tau(   2) = (  -0.0000000   0.2527746   0.2527746  )
         3           Si  tau(   3) = (   0.2527746  -0.0000000   0.2527746  )
         4           Si  tau(   4) = (   0.2527746   0.2527746  -0.0000000  )
         5           Si  tau(   5) = (   0.1263873   0.1263873   0.1263873  )
         6           Si  tau(   6) = (   0.5055489   0.0000000   0.0000000  )
         7           Si  tau(   7) = (   0.5055489   0.2527745   0.2527745  )
         8           Si  tau(   8) = (   0.6319361   0.1263873   0.1263873  )
         9           Si  tau(   9) = (   0.7583233   0.0000000   0.2527746  )
        10           Si  tau(  10) = (   0.7583233   0.2527746   0.0000000  )
        11           Si  tau(  11) = (   0.0000000   0.5055489   0.0000000  )
        12           Si  tau(  12) = (   0.2527745   0.5055489   0.2527745  )
        13           Si  tau(  13) = (   0.1263873   0.6319361   0.1263873  )
        14           Si  tau(  14) = (   0.3791617   0.3791617   0.1263873  )
        15           Si  tau(  15) = (   0.5055489   0.5055489   0.0000000  )
        16           Si  tau(  16) = (   0.6319361   0.6319361   0.1263873  )
        17           Si  tau(  17) = (   0.8847106   0.3791617   0.1263873  )
        18           Si  tau(  18) = (   0.7583233   0.5055490   0.2527745  )
        19           Si  tau(  19) = (   0.0000000   0.7583233   0.2527746  )
        20           Si  tau(  20) = (   0.2527746   0.7583233   0.0000000  )
        21           Si  tau(  21) = (   0.3791617   0.8847106   0.1263873  )
        22           Si  tau(  22) = (   0.5055490   0.7583233   0.2527745  )
        23           Si  tau(  23) = (   0.7583233   0.7583233  -0.0000000  )
        24           Si  tau(  24) = (   0.8847105   0.8847105   0.1263873  )
        25           Si  tau(  25) = (   0.0000000   0.0000000   0.5055489  )
        26           Si  tau(  26) = (   0.2527745   0.2527745   0.5055489  )
        27           Si  tau(  27) = (   0.1263873   0.1263873   0.6319361  )
        28           Si  tau(  28) = (   0.3791617   0.1263873   0.3791617  )
        29           Si  tau(  29) = (   0.5055489   0.0000000   0.5055489  )
        30           Si  tau(  30) = (   0.6319361   0.1263873   0.6319361  )
        31           Si  tau(  31) = (   0.8847106   0.1263873   0.3791617  )
        32           Si  tau(  32) = (   0.7583233   0.2527745   0.5055490  )
        33           Si  tau(  33) = (   0.1263873   0.3791617   0.3791617  )
        34           Si  tau(  34) = (   0.0000000   0.5055489   0.5055489  )
        35           Si  tau(  35) = (   0.1263873   0.6319361   0.6319361  )
        36           Si  tau(  36) = (   0.6319361   0.3791617   0.3791617  )
        37           Si  tau(  37) = (   0.3791617   0.6319361   0.3791617  )
        38           Si  tau(  38) = (   0.3791617   0.3791617   0.6319361  )
        39           Si  tau(  39) = (   0.5055489   0.5055489   0.5055489  )
        40           Si  tau(  40) = (   0.6319361   0.6319361   0.6319361  )
        41           Si  tau(  41) = (   0.8847106   0.6319361   0.3791617  )
        42           Si  tau(  42) = (   0.8847106   0.3791617   0.6319361  )
        43           Si  tau(  43) = (   0.1263873   0.8847106   0.3791617  )
        44           Si  tau(  44) = (   0.2527745   0.7583233   0.5055490  )
        45           Si  tau(  45) = (   0.6319361   0.8847106   0.3791617  )
        46           Si  tau(  46) = (   0.3791617   0.8847106   0.6319361  )
        47           Si  tau(  47) = (   0.7583233   0.7583233   0.5055489  )
        48           Si  tau(  48) = (   0.8847106   0.8847106   0.6319361  )
        49           Si  tau(  49) = (   0.0000000   0.2527746   0.7583233  )
        50           Si  tau(  50) = (   0.2527746   0.0000000   0.7583233  )
        51           Si  tau(  51) = (   0.3791617   0.1263873   0.8847106  )
        52           Si  tau(  52) = (   0.5055490   0.2527745   0.7583233  )
        53           Si  tau(  53) = (   0.7583233  -0.0000000   0.7583233  )
        54           Si  tau(  54) = (   0.8847105   0.1263873   0.8847105  )
        55           Si  tau(  55) = (   0.1263873   0.3791617   0.8847106  )
        56           Si  tau(  56) = (   0.2527745   0.5055490   0.7583233  )
        57           Si  tau(  57) = (   0.6319361   0.3791617   0.8847106  )
        58           Si  tau(  58) = (   0.3791617   0.6319361   0.8847106  )
        59           Si  tau(  59) = (   0.7583233   0.5055489   0.7583233  )
        60           Si  tau(  60) = (   0.8847106   0.6319361   0.8847106  )
        61           Si  tau(  61) = (  -0.0000000   0.7583233   0.7583233  )
        62           Si  tau(  62) = (   0.1263873   0.8847105   0.8847105  )
        63           Si  tau(  63) = (   0.5055489   0.7583233   0.7583233  )
        64           Si  tau(  64) = (   0.6319361   0.8847106   0.8847106  )

     number of k points=     1
                       cart. coord. in units 2pi/alat
        k(    1) = (   0.0000000   0.0000000   0.0000000), wk =   2.0000000

     Dense  grid:   213477 G-vectors     FFT dimensions: (  96,  96,  96)

     Estimated max dynamical RAM per process >     312.69 MB

     Estimated total dynamical RAM >       1.17 GB

     Initial potential from superposition of free atoms

     starting charge     255.9608, renormalised to     256.0000
     Starting wfcs are  256 randomized atomic wfcs

     total cpu time spent up to now is       23.0 secs

     Self-consistent Calculation

     iteration #  1     ecut=    50.00 Ry     beta= 0.50
     Davidson diagonalization with overlap
     ethr =  1.00E-06,  avg # of iterations =  9.0

     total cpu time spent up to now is       23.3 secs

     total energy              =    -504.02127675 Ry
     estimated scf accuracy    <       1.95118151 Ry

     iteration #  2     ecut=    50.00 Ry     beta= 0.50
     Davidson diagonalization with overlap
     ethr =  7.62E-04,  avg # of iterations =  1.0

     total cpu time spent up to now is       23.5 secs

     total energy              =    -504.00240792 Ry
     estimated scf accuracy    <       0.35078830 Ry

     iteration #  3     ecut=    50.00 Ry     beta= 0.50
     Davidson diagonalization with overlap
     ethr =  1.37E-04,  avg # of iterations =  1.0

     total cpu time spent up to now is       23.6 secs

     total energy              =    -504.02371490 Ry
     estimated scf accuracy    <       0.00499396 Ry

     iteration #  4     ecut=    50.00 Ry     beta= 0.50
     Davidson diagonalization with overlap
     ethr =  1.95E-06,  avg # of iterations =  4.0

     total cpu time spent up to now is       23.8 secs

     total energy              =    -504.02634259 Ry
     estimated scf accuracy    <       0.00006015 Ry

     iteration #  5     ecut=    50.00 Ry     beta= 0.50
     Davidson diagonalization with overlap
     ethr =  2.35E-08,  avg # of iterations = 10.0

     total cpu time spent up to now is       24.1 secs

     total energy              =    -504.02645158 Ry
     estimated scf accuracy    <       0.00001088 Ry

     iteration #  6     ecut=    50.00 Ry     beta= 0.50
     Davidson diagonalization with overlap
     ethr =  4.25E-09,  avg # of iterations =  5.0

     total cpu time spent up to now is       24.3 secs

     total energy              =    -504.02645509 Ry
     estimated scf accuracy    <       0.00000230 Ry

     iteration #  7     ecut=    50.00 Ry     beta= 0.50
     Davidson diagonalization with overlap
     ethr =  8.97E-10,  avg # of iterations =  3.0

     total cpu time spent up to now is       24.5 secs

     total energy              =    -504.02645462 Ry
     estimated scf accuracy    <       0.00000380 Ry

     iteration #  8     ecut=    50.00 Ry     beta= 0.50
     Davidson diagonalization with overlap
     ethr =  8.97E-10,  avg # of iterations =  2.0

     total cpu time spent up to now is       24.7 secs

     total energy              =    -504.02645469 Ry
     estimated scf accuracy    <       0.00000029 Ry

     iteration #  9     ecut=    50.00 Ry     beta= 0.50
     Davidson diagonalization with overlap
     ethr =  1.13E-10,  avg # of iterations =  7.0

     total cpu time spent up to now is       24.9 secs

     total energy              =    -504.02645475 Ry
     estimated scf accuracy    <       0.00000005 Ry

     iteration # 10     ecut=    50.00 Ry     beta= 0.50
     Davidson diagonalization with overlap
     ethr =  1.86E-11,  avg # of iterations =  4.0

     total cpu time spent up to now is       25.1 secs

     End of self-consistent calculation

          k = 0.0000 0.0000 0.0000 ( 26678 PWs)   bands (ev):

    -5.8107  -4.7589  -4.7589  -4.7589  -4.7589  -4.7589  -4.7589  -3.8283
    -3.8283  -3.8283  -3.8282  -3.8282  -3.8282  -3.8282  -3.8282  -3.8282
    -3.8282  -3.8282  -3.8282  -3.5601  -3.5601  -3.5601  -3.5601  -1.7838
    -1.7838  -1.7838  -1.7838  -1.7838  -1.7838  -1.6337  -1.6337  -1.6337
    -1.6337  -1.6337  -1.6337  -1.6337  -1.6337  -1.6337  -1.6337  -1.6337
    -1.6337  -0.8928  -0.8928  -0.8928  -0.8928   0.5061   0.5061   0.5061
     0.5061   0.5061   0.5061   0.5061   0.5061   0.5061   0.5061   0.5061
     0.5061   2.2095   2.2095   2.2095   2.2095   2.2095   2.2095   2.2095
     2.2095   2.2095   2.2095   2.2095   2.2095   2.2971   2.2971   2.2971
     2.2971   2.2971   2.2971   2.2971   2.2971   2.2971   2.2971   2.2971
     2.2971   2.4041   2.4041   2.4041   2.4041   2.4041   2.4041   3.1643
     3.1643   3.1643   3.1643   3.1643   3.1643   4.1003   4.1003   4.1003
     4.1003   4.1003   4.1003   4.1003   4.1003   4.1003   4.1003   4.1003
     4.1003   4.6406   4.6406   4.6407   4.6407   4.6407   4.6407   4.6407
     4.6407   4.6407   4.6407   4.6407   4.6407   4.7630   4.7630   4.7630
     4.7630   4.7630   4.7630   4.7630   4.7630   5.9298   5.9298   5.9298

     highest occupied level (ev):     5.9298

!    total energy              =    -504.02645475 Ry
     estimated scf accuracy    <          2.5E-09 Ry

     The total energy is the sum of the following terms:
     one-electron contribution =     143.90179139 Ry
     hartree contribution      =      37.04298451 Ry
     xc contribution           =    -153.37391230 Ry
     ewald contribution        =    -531.59731835 Ry

     convergence has been achieved in  10 iterations

     Forces acting on atoms (cartesian axes, Ry/au):

     atom    1 type  1   force =     0.00000000    0.00000000    0.00000000
     atom    2 type  1   force =    -0.00000009    0.00000067    0.00000067
     atom    3 type  1   force =     0.00000067   -0.00000009    0.00000067
     atom    4 type  1   force =     0.00000067    0.00000067   -0.00000009
     atom    5 type  1   force =     0.00000009    0.00000009    0.00000009
     atom    6 type  1   force =     0.00000000    0.00000000    0.00000000
     atom    7 type  1   force =     0.00000017    0.00000056    0.00000056
     atom    8 type  1   force =    -0.00000062    0.00000051    0.00000051
     atom    9 type  1   force =    -0.00000067    0.00000009    0.00000067
     atom   10 type  1   force =    -0.00000067    0.00000067    0.00000009
     atom   11 type  1   force =     0.00000000    0.00000000    0.00000000
     atom   12 type  1   force =     0.00000056    0.00000017    0.00000056
     atom   13 type  1   force =     0.00000051   -0.00000062    0.00000051
     atom   14 type  1   force =     0.00000073    0.00000073    0.00000029
     atom   15 type  1   force =     0.00000000    0.00000000    0.00000000
     atom   16 type  1   force =    -0.00000073   -0.00000073    0.00000029
     atom   17 type  1   force =    -0.00000051    0.00000062    0.00000051
     atom   18 type  1   force =    -0.00000056   -0.00000017    0.00000056
     atom   19 type  1   force =     0.00000009   -0.00000067    0.00000067
     atom   20 type  1   force =     0.00000067   -0.00000067    0.00000009
     atom   21 type  1   force =     0.00000062   -0.00000051    0.00000051
     atom   22 type  1   force =    -0.00000017   -0.00000056    0.00000056
     atom   23 type  1   force =    -0.00000067   -0.00000067   -0.00000009
     atom   24 type  1   force =    -0.00000009   -0.00000009    0.00000009
     atom   25 type  1   force =     0.00000000    0.00000000    0.00000000
     atom   26 type  1   force =     0.00000056    0.00000056    0.00000017
     atom   27 type  1   force =     0.00000051    0.00000051   -0.00000062
     atom   28 type  1   force =     0.00000073    0.00000029    0.00000073
     atom   29 type  1   force =     0.00000000    0.00000000    0.00000000
     atom   30 type  1   force =    -0.00000073    0.00000029   -0.00000073
     atom   31 type  1   force =    -0.00000051    0.00000051    0.00000062
     atom   32 type  1   force =    -0.00000056    0.00000056   -0.00000017
     atom   33 type  1   force =     0.00000029    0.00000073    0.00000073
     atom   34 type  1   force =     0.00000000    0.00000000    0.00000000
     atom   35 type  1   force =     0.00000029   -0.00000073   -0.00000073
     atom   36 type  1   force =    -0.00000063    0.00000063    0.00000063
     atom   37 type  1   force =     0.00000063   -0.00000063    0.00000063
     atom   38 type  1   force =     0.00000063    0.00000063   -0.00000063
     atom   39 type  1   force =     0.00000000    0.00000000    0.00000000
     atom   40 type  1   force =    -0.00000063   -0.00000063   -0.00000063
     atom   41 type  1   force =    -0.00000029   -0.00000073    0.00000073
     atom   42 type  1   force =    -0.00000029    0.00000073   -0.00000073
     atom   43 type  1   force =     0.00000051   -0.00000051    0.00000062
     atom   44 type  1   force =     0.00000056   -0.00000056   -0.00000017
     atom   45 type  1   force =    -0.00000073   -0.00000029    0.00000073
     atom   46 type  1   force =     0.00000073   -0.00000029   -0.00000073
     atom   47 type  1   force =    -0.00000056   -0.00000056    0.00000017
     atom   48 type  1   force =    -0.00000051   -0.00000051   -0.00000062
     atom   49 type  1   force =     0.00000009    0.00000067   -0.00000067
     atom   50 type  1   force =     0.00000067    0.00000009   -0.00000067
     atom   51 type  1   force =     0.00000062    0.00000051   -0.00000051
     atom   52 type  1   force =    -0.00000017    0.00000056   -0.00000056
     atom   53 type  1   force =    -0.00000067   -0.00000009   -0.00000067
     atom   54 type  1   force =    -0.00000009    0.00000009   -0.00000009
     atom   55 type  1   force =     0.00000051    0.00000062   -0.00000051
     atom   56 type  1   force =     0.00000056   -0.00000017   -0.00000056
     atom   57 type  1   force =    -0.00000073    0.00000073   -0.00000029
     atom   58 type  1   force =     0.00000073   -0.00000073   -0.00000029
     atom   59 type  1   force =    -0.00000056    0.00000017   -0.00000056
     atom   60 type  1   force =    -0.00000051   -0.00000062   -0.00000051
     atom   61 type  1   force =    -0.00000009   -0.00000067   -0.00000067
     atom   62 type  1   force =     0.00000009   -0.00000009   -0.00000009
     atom   63 type  1   force =     0.00000017   -0.00000056   -0.00000056
     atom   64 type  1   force =    -0.00000062   -0.00000051   -0.00000051

     Total force =     0.000007     Total SCF correction =     0.000090
     SCF correction compared to forces is large: reduce conv_thr to get better values


     Computing stress (Cartesian axis) and pressure

          total   stress  (Ry/bohr**3)                   (kbar)     P=        0.03
   0.00000022   0.00000000   0.00000000            0.03        0.00        0.00
   0.00000000   0.00000022   0.00000000            0.00        0.03        0.00
   0.00000000   0.00000000   0.00000022            0.00        0.00        0.03


     Writing all to output data dir ./pwscf.save/
 
     init_run     :      3.86s CPU      8.15s WALL (       2 calls)
     electrons    :      7.99s CPU      8.65s WALL (       5 calls)
     update_pot   :      6.29s CPU      6.32s WALL (       3 calls)
     forces       :      0.43s CPU      0.47s WALL (       5 calls)
     stress       :      1.43s CPU      1.53s WALL (       5 calls)

     Called by init_run:
     wfcinit      :      0.66s CPU      4.64s WALL (       2 calls)
                                        4.64s GPU  (       2 calls)
     potinit      :      1.90s CPU      2.03s WALL (       2 calls)
     hinit0       :      1.20s CPU      1.23s WALL (       2 calls)

     Called by electrons:
     c_bands      :      4.18s CPU      4.37s WALL (      44 calls)
     sum_band     :      1.85s CPU      2.04s WALL (      44 calls)
     v_of_rho     :      1.00s CPU      1.19s WALL (      47 calls)
     mix_rho      :      0.78s CPU      0.88s WALL (      44 calls)

     Called by c_bands:
     init_us_2    :      0.17s CPU      0.18s WALL (      90 calls)
     init_us_2:gp :      0.17s CPU      0.18s WALL (      90 calls)
     regterg      :      3.43s CPU      3.60s WALL (      44 calls)

     Called by *egterg:
     rdiaghg      :      0.70s CPU      1.58s WALL (     182 calls)
                                        1.55s GPU  (     182 calls)
     h_psi        :      2.74s CPU      5.95s WALL (     189 calls)
                                        5.94s GPU  (     189 calls)
     g_psi        :      0.00s CPU      0.02s WALL (     143 calls)
                                        0.02s GPU  (     143 calls)

     Called by h_psi:
     h_psi:calbec :      0.67s CPU      3.68s WALL (     189 calls)
                                        3.68s GPU  (     189 calls)
     vloc_psi     :      1.91s CPU      2.10s WALL (     189 calls)
                                        2.08s GPU  (     189 calls)
     add_vuspsi   :      0.08s CPU      0.13s WALL (     189 calls)
                                        0.13s GPU  (     189 calls)

     General routines
     calbec       :      0.71s CPU      3.74s WALL (     214 calls)
     fft          :      1.92s CPU      2.19s WALL (     411 calls)
                                        0.25s GPU  (     268 calls)
     ffts         :      0.46s CPU      0.49s WALL (      44 calls)
     fftw         :      1.94s CPU      2.45s WALL (    3988 calls)
                                        2.09s GPU  (    3988 calls)
 
     Parallel routines
 
     PWSCF        :     20.31s CPU     25.55s WALL

 
   This run was terminated on:  14:43:52   8May2023            

=------------------------------------------------------------------------------=
   JOB DONE.
=------------------------------------------------------------------------------=
Warning: ieee_inexact is signaling
FORTRAN STOP
Warning: ieee_inexact is signaling
FORTRAN STOP
Warning: ieee_divide_by_zero is signaling
Warning: ieee_inexact is signaling
FORTRAN STOP
Warning: ieee_inexact is signaling
FORTRAN STOP
