0.7505546219578346 3.034259323347587 5.869260096637576 3.357332692554224 8.932357905292253 4.983305427811918 7.109293298061642 3.403764603908917 9.229961973613477 6.217456098236077 1.3938673454363473 0.1152131071528598 3.7563264618480483 2.402607661320822 10.259751567090618 2.9304212761392967 10.624056820248716 2.685521652227915 3.1108297268601786 0.8807145578778596 6.02141506513423 7.30906101746914 2.723525185833202 1.9976121937324336 6.0101375057034705 10.273726640736804 7.925513432731874 10.028848683606268 1.7544567456792188 3.894138021424121 1.890664963472628 5.182433977184435 4.322165277052658 9.761653942203528 7.417784923758382 0.003923854011355508 8.241458431039915 7.223585567028513 8.685649105180165 9.156749921132139 3.517222701813185 5.34663567583191 4.768089293660652 7.532153026458217 8.49838311832127 4.245909041862345 5.668029869522919 5.414225198683503 6.54188364124564 6.838913539874423 0.023735958417669564 0.07763532579121196 0.15516665103435928 0.832852638987278 6.0209817295172945 3.873944581674903 5.0316331824907055 10.448285060629049 4.025687881335468 1.0149424319018712 6.787552435877084 10.596810843333865 5.567431006051226 9.736227974879808 9.37634274501446 8.258802689107778 10.010767754989615 2.591726157942117 7.824817068746371 5.942233814529598 8.412604332948789 1.9578861510498253 8.904949427521052 10.528278815515437 2.4049585070426995 8.974001458079803 5.789699677368126 1.9904513226625662 6.693345272755196 0.01298381842244499 2.450599580896484 0.7494030325558272 2.1783348127755935 2.161770558818215 4.92471845240217 0.0283618161284614 4.336086183746727 9.837639342633258 8.196369860097724 6.0092383342983275 5.411841852790355 4.51363461939583 10.355681239289826 1.4408950932643272 7.052125496797361 1.4828744811550023 2.9918140996687055 8.264186884148208 10.15971603992094 0.9027030904202347 7.510572912734805 8.340887288345881 7.5305171845042835 8.42427189443479 6.126748120220949 1.3804989416538715 7.504506214097701 4.511023772303791 2.9346571317948467 9.052922707314274 7.490444473328127 1.3750605796613249 10.463213472632495 8.725830150260554 6.638560817384062 6.243824570526634 6.1739167021244326 0.6841773554946201 0.018056011818680905 5.239200943003051 10.116609979426233 1.2601833076115903 9.853781094364123 6.719627077922365 7.069643089111998 3.7595548121942217 2.8954294250717147 3.5033126285095397 3.1980168529877027 8.720705956590287 3.058060282107797 0.14295633668814506 0.5591416132448634 9.143641518719825 3.022873430012593 8.744474415179226 1.052989299068852 5.471577167584983 4.247111548199342 1.9958463510934195 4.317019416601543 4.920265928938153 5.194480707335256 2.811578983194598 5.143379604708077 3.4485390065288293 7.331951971433783 9.300075676433723 6.030276778500571 6.300429035488898 3.7150729111157412 5.164006380074231 7.920454239404146 7.608636762847421 2.9041719711433984 6.832153504250222 7.919024231868258 9.029966753007088 0.19190376129915127 4.487569482037131 1.2915893064490271 8.023057280104169 4.127900919980248 6.904336384641336 1.6777130079198528 2.1493554933929984 4.5575748509531415 9.593747224031253 7.662901215478233 0.07858974748751352 9.426360508599297 3.2683688903972627 4.299675158533679 0.8813851447450681 1.9293943342362834 9.384283620194811 0.859581863178933 0.6577861330841751 5.485758075649214 7.10829662614269 4.114521682807349 0.12678425146409342 0.6384669479421258 7.577122430105751 4.611308467453206 3.4293422386985637 0.5126490349037996 5.739519412926937 10.782321820944167 7.835303790676221 5.021677296691601 7.896880781842827
0.7746548050888712 3.0702171606337103 5.853640677791556 3.4128941855377346 9.015455022638587 5.055620791535686 7.109798136081274 3.347781759531789 9.247405177033084 6.259740303637988 1.3783881378856417 0.25924516205541487 3.749017722214577 2.292150208781925 10.299657077655871 2.9428520125754978 10.648519295580924 2.671082647068399 3.1339755601464363 0.9840566270970795 6.108587618146894 7.300271750935467 2.7479588552474374 1.9462343525061188 5.923443451570014 10.263910778234873 7.934681907962622 10.11737261503267 1.634905748973115 3.788728611207722 1.9007498945458847 5.193211547670693 4.3843702816810115 9.635111706995621 7.386474493599802 0.01082246295500589 8.332159093100232 7.241431175646115 8.713507114650609 9.179053919655356 3.636828503092371 5.2300519004982124 4.6234588637477625 7.480238120202275 8.560285476677874 4.263666943969441 5.7007765028130315 5.453325453124157 6.452142052218525 6.7746711629034415 10.769168472232765 0.05420980468254127 0.07915855523600895 0.809534527554209 6.074780284664187 3.944896610829702 5.111991622501406 10.417392389294305 3.9901752567629667 1.125770123098641 6.8853113757174045 10.578207407841013 5.54622250277097 9.779624246563966 9.336944240976711 8.163989002642353 10.104038162127443 2.596448706762133 7.811368007172122 5.950534813646352 8.490222729812718 2.0501369294898204 8.88779740485784 10.438991819914143 2.3835524131802233 8.909277681146277 5.835431729510739 2.107894283584597 6.713902453887745 0.03122818381842306 2.41161867433168 0.7961643283495611 2.1026731574267425 2.19313295938576 4.91731510941226 10.656632622328296 4.3074290802303 9.888747949705522 8.244688981638243 5.927830497408046 5.337702422815146 4.553916063056001 10.334395981365914 1.3698848515082223 6.992734421583477 1.4224860727168185 2.988412296019353 8.218312545550324 10.216465689912457 0.8182923709123536 7.356870058352048 8.196095678849577 7.521281371264748 8.285808058184337 6.175704003362805 1.3223422732782946 7.573969250168911 4.515353388529107 3.009784250188331 9.063300902802997 7.6150016690194375 1.4343473447974227 10.31244991996381 8.604307586025431 6.547324698585893 6.3446540130807785 6.22192505173535 0.70339076591893 0.03505628752005361 5.364967100282617 10.058662026286667 1.366375214837797 9.816215458516732 6.736162649436276 7.164186672260921 3.7446523408004366 2.8902074625191188 3.504783839473592 3.250486831834999 8.829444279106047 3.098695045839105 0.09518047992497825 0.5993192064288744 9.146026505432742 2.9754461383202813 8.63267714911137 1.0158545852638494 5.522499958609762 4.332289006645812 2.129710358443352 4.211845642020939 4.912700587123368 5.092569466482663 2.848828412886327 5.209037409323443 3.4651812725999043 7.271620550338939 9.283888066866393 6.019384352773584 6.158079994527059 3.6278052705415553 5.169261527058624 7.947463918058615 7.591712413336061 2.8595739671365177 6.8402818706588935 7.819795468065922 9.094486840994831 0.20835651355544269 4.485467315770763 1.3160487581378097 8.096894281850334 4.233011784162949 6.920971017442837 1.538455733808094 2.1332524917496145 4.58358549157543 9.568027818415548 7.740113716992933 0.08158822037544226 9.43113032384507 3.3071176358874173 4.3049051748469385 0.9388483905414623 1.8296472553339356 9.517376395357187 0.8770852844691447 0.7587975300214775 5.573183878303959 7.019165018731124 4.082303219361631 0.150670652059508 0.6723673109062818 7.5494884511714995 4.7620895122295614 3.4431593857141802 0.4751506441158556 5.646279644513927 10.75927866272629 7.820272085391535 4.927139925647062 7.85347281500528
0.8016280825796092 3.1120733274804233 5.845847044340062 3.4325911512893437 9.0735056027856 5.14681303649652 7.09275764583921 3.2568634833015344 9.304502805984757 6.2855885324665675 1.3532264903520141 0.3982676793766093 3.7543109575450613 2.182529406618858 10.333085748994247 2.950704476830046 10.660100775218293 2.691097925662944 3.130514553668693 1.0859748976764463 6.183593283219761 7.281707120741803 2.7576401070645398 1.8974754793258413 5.840670939749344 10.244355621344992 7.923067628480399 10.18871791133012 1.4896244263869192 3.7047048171055645 1.8977786821052138 5.228677786927124 4.493378560936479 9.495444756294656 7.345628763835964 0.029280725550840193 8.419269805594361 7.259649118542446 8.748580510005086 9.220483150086471 3.7700125300482856 5.08762352249471 4.481553652540948 7.419296210552815 8.631500922484493 4.271412469094349 5.7337269879963495 5.489378033834105 6.355151912991197 6.713082794040558 10.662104079296292 10.822660779644778 0.038681094578460154 0.8071236329557376 6.105659340250309 3.9971005831276756 5.174415318090119 10.439434123859188 3.9677007421992245 1.3198092125968763 6.932265917514876 10.49558078139658 5.5719033331769126 9.830039852003019 9.281860055568039 8.072005165176499 10.1932767816914 2.614582538554129 7.764091914052927 5.971470453036548 8.595614707811606 2.110020627666038 8.95626358520463 10.336388493555269 2.34490532364358 8.885162533441752 5.921712711207364 2.18306001148276 6.680077005771711 0.05953819719808785 2.3727783220044762 0.8751460936409126 2.0562671063515516 2.1943868010264653 4.915469315835222 10.455352269776249 4.250101645172731 9.982247647248066 8.321584367282922 5.833188328301256 5.259041379547152 4.594680775259005 10.319593225312165 1.3462961411092118 6.9879685995539 1.4018472217585498 2.991799282105726 8.145423552467438 10.262287900010742 0.7383832314036912 7.301761818863163 8.103711512962322 7.5213456031530805 8.22170070882103 6.212689921368839 1.2721630615526098 7.635165760795418 4.534202649444862 3.1121382995045748 9.043575156993246 7.700787505188203 1.4377659224435118 10.170439115202226 8.493922661344172 6.421499178320338 6.38946797041376 6.267786197849119 0.7240514857429896 0.06248034702507131 5.486205233321384 9.98428343733814 1.4499156909597997 9.764418107610233 6.775066105080871 7.2254630051681845 3.7653128869680104 2.850301042174946 3.499577308189305 3.2337226140329896 8.853965133178448 3.0970756185721715 0.00626871746352862 0.6245511622235924 9.16946928245703 2.92104474780499 8.565067027789816 1.0185241908038025 5.580750357132178 4.444920259590321 2.25683574490653 4.146016462482392 4.911852539824134 4.980213937901965 2.908505147143795 5.25344295679945 3.4653370514615847 7.23142960271941 9.273067174966233 5.966110261044068 6.018120366377161 3.5660436888960576 5.195964372766958 7.941779571435966 7.584693326700571 2.770764455943097 6.8475099120095395 7.71783183285722 9.151103856963603 0.24855480985897016 4.4653539611858974 1.3446176971519708 8.164427869531684 4.295018971202644 6.950956203129058 1.3683541433085689 2.1167452321656945 4.5880103141128075 9.546610225313783 7.824277665758388 0.07754411082454388 9.443943598484081 3.3581115542706015 4.308175806093277 0.9831566694570573 1.7531617850151728 9.633369534897115 0.8884437012505395 0.8632800362967518 5.573051172270253 6.88081890305776 4.052944037885694 0.18748760435918901 0.6927284728996612 7.483109566940057 4.883210705844116 3.479067805898887 0.4290828275644887 5.558681526262129 10.682786840317778 7.837802675452546 4.9262113571615656 7.787676758819839
0.8327250453676543 3.154196105855129 5.83744253716703 3.3906017164872866 9.086187899739759 5.273664454328604 7.048476085749428 3.1610686765986817 9.36880749001754 6.281464721930795 1.3093924823105967 0.5010461229269617 3.7640799388786483 2.1021841036270916 10.359713138831248 2.9508762413064993 10.662885503663368 2.7470368753473333 3.104323970443648 1.1942146904162863 6.232685704070651 7.273506780080052 2.777395239025546 1.8685708130765661 5.769528550685466 10.220724865620692 7.901692214878922 10.218311348650909 1.3092626069579627 3.673286244441383 1.890411518211195 5.279963408931357 4.635294627294013 9.34932618712243 7.286505138289512 0.07923587034743815 8.493599134508676 7.272781642694512 8.771012887735042 9.273197584586761 3.8896369360376313 4.926680803874592 4.363270701201963 7.32622535030343 8.708477905441738 4.25601530581833 5.7663249586538265 5.51776517960433 6.254028553686848 6.665484493777622 10.532512295510871 10.689899577011253 0.06604919287665935 0.7992799774751719 6.122551405036963 4.035811645427272 5.205728821954935 10.477953824458512 3.958005486253414 1.5663508674970954 6.895872546404401 10.344268794813846 5.635843521040803 9.885310944497165 9.217232130547531 7.984812440564724 10.271181440119026 2.6455609331559167 7.681986410006294 5.990002784727846 8.711107881332577 2.142261472860754 9.070321460826298 10.229080179973483 2.2951572317492075 8.906310536341579 6.050189187727683 2.21376867743186 6.635256005452042 0.09399512187969442 2.353135753754265 0.995101704998395 2.0366186964389943 2.162597788494038 4.950025898510566 10.300738905789329 4.159193230429635 10.099724328749955 8.402047833847712 5.722048286351663 5.18096592138604 4.61640858643181 10.29788164803138 1.353560925152232 7.023669893396321 1.3969609388241155 2.976981187185946 8.06619017193602 10.333900412495229 0.6542460065995003 7.343964158884034 8.069588576996612 7.560931758405292 8.233199052477374 6.235326502907543 1.2350171970354886 7.690330901413033 4.569599344753281 3.2638650182085445 9.000664980030228 7.732691912263844 1.3664077621169515 10.04438660558179 8.39071620933039 6.262784317043596 6.3714899871983075 6.3202108687999585 0.7454239156216408 0.10065772746982199 5.612433488728512 9.907725265772594 1.4805898429744009 9.707414180226653 6.839917915311224 7.2606924119534915 3.8175561153257247 2.764267005463453 3.4987987081775165 3.163168328132932 8.835171311936268 3.100373595134362 10.753105581959833 0.6299106123996923 9.205229483374932 2.867236514210161 8.57298544380625 1.0783680404559102 5.626005463078772 4.592879501712938 2.3404837298184966 4.125187533931615 4.913639153880922 4.8760727081315185 2.9766348529122557 5.2610340762849415 3.44787674699891 7.232476991593741 9.275492049149962 5.913971588706654 5.8880506329101046 3.5387353791124916 5.23479925505286 7.897438797080156 7.6045590539442856 2.661524778583854 6.8586957267129 7.6136286827365645 9.192047135082577 0.3114042975999097 4.437018255606007 1.377977491447436 8.218133511571823 4.335444906900115 6.980053420803381 1.1914440162267594 2.109413831590388 4.557445176335944 9.541574177859005 7.900988723385487 0.0673825798303691 9.45059649333884 3.411803867804798 4.305357116873223 0.9986245739385939 1.7504708257479893 9.70149402873575 0.8659276792685532 0.973367064735084 5.484376391031323 6.6832774170884885 4.027932540700806 0.2205705582622495 0.7074461979222294 7.376822623100451 4.968403260908286 3.530445002436017 0.3584408211455471 5.489950208248535 10.587752612164563 7.877113304392926 4.988230898077087 7.711976793518711
0.8728946769122874 3.180347810202072 5.81466530732736 3.300537856535233 9.065074407923225 5.411147748730201 6.966015219362182 3.0841135771171744 9.404771084363272 6.240981445756276 1.2600433310619312 0.526043702294485 3.76748694772881 2.084123306802193 10.372823875435762 2.9385401024798714 10.659060694139392 2.8205131092616784 3.0568374773374356 1.3114915494014296 6.248876589625907 7.285746915551081 2.817452389103999 1.8690833813777137 5.710416962451509 10.199822887300673 7.880272879465433 10.222383531289783 1.1137776794278391 3.6828142335434126 1.9109600896834815 5.3276538984924615 4.728672045161277 9.209112114848901 7.216594107465575 0.16384586582598945 8.543443333983273 7.279582214173424 8.764236980693566 9.33175722646755 3.9571758906458716 4.743975645949671 4.295001526141473 7.193168242230478 8.784688647895582 4.191748185698506 5.792612980820268 5.523377759600282 6.174759574641551 6.646413306360181 10.383347128840077 10.539184290507901 0.15051821405811813 0.7596318081798092 6.128437792184524 4.0529666978422005 5.222107721747629 10.496777634188964 3.9681966462666303 1.8050461939091051 6.81109735526822 10.202018386212364 5.72059412735743 9.923633450316066 9.156874382122439 7.9073218586681 10.320899785410969 2.676237466493356 7.587600977744775 5.991548975803815 8.788473990846775 2.1632586050132736 9.171767002818989 10.126581908827879 2.2585194641964357 8.948301985511712 6.187867676518253 2.2273390535441813 6.622522384705366 0.132372361476657 2.380331800365822 1.123987290130485 2.0243257034389206 2.1215116798944034 5.015125169176404 10.18101514046603 4.051517452255173 10.20531704221269 8.472300517031996 5.607747646349584 5.1150798536190445 4.5994620673387026 10.258863422073706 1.3745012866404287 7.078677840855256 1.3873173763466102 2.924534333560458 7.999457106100134 10.43221049870719 0.5787129641173826 7.406239789320338 8.057437744846833 7.6339443907329505 8.242411231973268 6.249882409324366 1.2298362943114123 7.7395662743368066 4.607076014303387 3.436691234856853 8.976378414943987 7.723959846112318 1.258658977068352 9.927581022250882 8.283098261065803 6.129962744630576 6.341552600336683 6.3883178086822765 0.7666444263785336 0.14543612076450235 5.7424842248809 9.848078005010256 1.4518845118283858 9.641192789829203 6.920958822977412 7.2890239410202575 3.8800522318317108 2.65972255596058 3.500198474312294 3.0788357275166542 8.82130913713198 3.146723149529904 10.739234257845656 0.6192658839167905 9.23856208300918 2.8259964489081204 8.627986264981772 1.1345538045971004 5.63544554148674 4.737118767575224 2.393591315960572 4.130036280328488 4.914413416143524 4.7856684947406665 3.0422260535458316 5.238103499532813 3.4140873298054437 7.278046446461798 9.292173354463648 5.9114619342221495 5.789671228583913 3.5350236294632684 5.262481108138495 7.824422848036976 7.632700635191844 2.590093876189781 6.903827442306872 7.518664474970765 9.212172835006578 0.3820319520061887 4.409351329064221 1.4067848543813164 8.24548276739652 4.365819885125504 7.003717235156063 1.0518938113351806 2.127395184367115 4.4904117445476235 9.553989303499296 7.952518853505342 0.0474898311391082 9.446842467449388 3.4557261022685655 4.2970131655383925 0.9809262016862167 1.807576966053617 9.73713501074358 0.8067960998251149 1.0520138607830614 5.388046341462349 6.537319722506803 4.00305424721433 0.224763930702815 0.7346863981314484 7.279355093596353 5.025053582974103 3.556394594239146 0.2558329441196485 5.447270735750156 10.516483048066318 7.92322029906311 5.073311297969025 7.633847053342778
0.9313383012236061 3.169830514306518 5.76227117785921 3.188017127549868 9.030923188369197 5.514833821919677 6.8500856730275625 3.024099874853267 9.409557021663165 6.175992315491358 1.2230308299954717 0.47416596225366053 3.759625731669593 2.1321453707934843 10.37417153014855 2.9095663550872133 10.650925749860637 2.8977337101071368 2.985543822534625 1.4499366558325888 6.235847128774139 7.311710112209189 2.86531550468227 1.8864477918784193 5.657182161940266 10.187993776393538 7.871421234937989 10.227792526586802 0.9142841639564311 3.7155045540863494 2.0034342891882884 5.368206278783005 4.664482681488473 9.069727780262761 7.1505808251791265 0.25187973068958697 8.571006108006612 7.2795296402907725 8.733378092911295 9.399139971653307 3.9695119996586548 4.525927271502592 4.2654037666398885 7.046442743285981 8.86095453732662 4.076265150122741 5.81475625244207 5.494939849857284 6.138235912239864 6.6533828085779465 10.212599194311014 10.429412152192523 0.2722059454909784 0.6727166644124942 6.12704082529981 4.04518689718877 5.258114053160157 10.490293541980423 4.000449773702453 2.027521015818964 6.703620220918015 10.126172258648317 5.8071055559618 9.901795052834341 9.118441536947861 7.831006538841655 10.330396146756504 2.6919753602755074 7.502210293354181 5.967932273074564 8.795588629121614 2.1882504783154535 9.226837209820141 10.019494750663556 2.253346234808586 8.993372100418727 6.31081963185338 2.267372511689078 6.660482395565992 0.19180447360991895 2.455960018714003 1.2238737033365183 1.9887812603362487 2.0808165455374454 5.080040850761364 10.064696535094297 3.960056689743069 10.261691163392737 8.545763132049116 5.506264609619038 5.072908845567894 4.540429015395983 10.192726834385569 1.3931831842021223 7.14014216303232 1.3687938876541477 2.826662197747354 7.9497328131759915 10.527044980863746 0.5311139431166765 7.429474646449256 8.04951604947373 7.740927152034425 8.189562696909155 6.266168956914863 1.286440839806511 7.780272047351739 4.624748767706062 3.6160671119798087 8.983398099216341 7.71407407187416 1.174587225022246 9.81334738236683 8.165821764469678 6.051992679741243 6.32778515935906 6.481695992647852 0.7878790973637908 0.19465187265306974 5.878058201568359 9.80632343785811 1.398370097070101 9.563478661020431 7.0145324230794355 7.329291585617942 3.9414486398291957 2.5643232733808574 3.5181749376651856 3.008063669236433 8.830557066706572 3.2346777312247266 10.788292492314271 0.6086658547408902 9.261081640817274 2.797593873549723 8.706622267367305 1.1459619496320887 5.602481843320041 4.8524650486788 2.426264942544825 4.141901210039622 4.904809644371485 4.70283341850609 3.0997531602464314 5.201684763583939 3.3747243786601504 7.355020834656811 9.323357013438445 5.968580637183062 5.725908757440984 3.530515467863585 5.249631289407318 7.733665474019255 7.652479481566914 2.5848223852778482 6.99907974516025 7.443781881110096 9.216484996221133 0.4447140226251691 4.380542426240541 1.4197445005135632 8.242696135600513 4.408346440426601 7.016790891390702 0.9820014726615877 2.1699666104558286 4.3985885605937165 9.582918778206876 7.965250327506028 0.0075858600694188125 9.435005312921685 3.483649548887703 4.284076652964612 0.9460259094947655 1.8785485558232267 9.774975033212263 0.7260510959774851 1.046220857001401 5.332286907172252 6.564524507508387 3.9720406196817946 0.19688224518630054 0.7796805332118419 7.225780255696343 5.066230695250372 3.532309275230428 0.12562270723505353 5.420788607982138 10.479087648971893 7.970167088662133 5.167278241559681 7.550383746615534
1.0094216344630873 3.1232135756149226 5.678935217861052 3.074839443948784 8.997739625327592 5.557595061662125 6.729769038551426 2.9742264318692464 9.398129754621365 6.108753573649335 1.2017317480345564 0.38170655203990567 3.7412279227747267 2.2153970493483377 10.371355534127213 2.865927103845435 10.637720926836495 2.9705344093229797 2.895851918167804 1.6099053517606643 6.199801872348779 7.337527767527159 2.900170073192677 1.9026870578346067 5.620650920412832 10.199298647161154 7.894191927171081 10.252260818541219 0.7222481322276983 3.7601630325587947 2.1061369318314918 5.401806823752274 4.490179525676239 8.928228124814702 7.107672375553175 0.2849172662348928 8.577658709120398 7.271773061885907 8.69759546493624 9.47701165153823 3.958679414439762 4.290907466665918 4.239175969467941 6.932204146117466 8.92634972737888 3.9718066057153756 5.8460694080987565 5.44363895055573 6.161640177316466 6.669401231303705 10.041049060887124 10.375835619965518 0.39884746841113855 0.5761930157439109 6.129696625519968 4.026398880617331 5.327987963602073 10.467952662033618 4.043304457539708 2.2305105919353925 6.608709562429116 10.112698048137327 5.873522078669386 9.7854574649649 9.113271863018065 7.750937134220925 10.295086121000395 2.685061180628635 7.434902163338041 5.924433126412637 8.727034486818312 2.21259024858217 9.229441028574707 9.914300415519543 2.26235698524383 9.034897349316623 6.398296663454623 2.3749744682925145 6.744429174860869 0.2811054148866863 2.5493955451346917 1.263502955665363 1.9092830396351 2.0369600883330286 5.113267704990269 9.950464963852854 3.922331344517895 10.252778997144205 8.628245895236782 5.424228843718926 5.067344126300746 4.459121195659841 10.097487347062213 1.3845408410125493 7.191207084509341 1.358383616949382 2.713625776118169 7.907135596858137 10.57467586347335 0.520528758857031 7.385157017451506 8.046525641061034 7.872320471970101 8.087925952362003 6.278824109303954 1.4033248153707463 7.803024879208453 4.6082702702189495 3.779486776295101 8.995127141537544 7.734528145126408 1.1610007507624431 9.71407836240375 8.049235283339142 6.011530313264323 6.325017572682531 6.587496625869428 0.806708005897943 0.2436713289760634 6.008108175407112 9.773096746206202 1.3684449181573357 9.468548067689479 7.116438230253667 7.383138279977378 3.993818400954665 2.4917373801650764 3.5728954445176204 2.9629020703165168 8.862279102197329 3.3444758390894083 0.06950286420284121 0.619124113001197 9.266901023415478 2.779801501874345 8.779651205796387 1.12477143010376 5.5577246063128705 4.926140456987404 2.4273320979690975 4.151042425410286 4.8757799740098235 4.6308758117741595 3.1428072040402832 5.166078740944465 3.3509530716267175 7.4430202947848025 9.371000945677602 6.050631207014546 5.680889183009807 3.5055214307420415 5.182239436125052 7.6378230633443795 7.6728972775339095 2.6273274479460844 7.120723999115854 7.401965435885824 9.209782627823975 0.4888162283543646 4.339670232284295 1.4021049365762197 8.215030845519136 4.476782449711571 7.018372929638804 0.9868139338303653 2.2169947667075403 4.3015409234146675 9.621993706498337 7.926524112919817 10.735721455125985 9.416773388941253 3.493700481361452 4.270946795063444 0.9198479857046369 1.9239647667196675 9.834576478372828 0.6461892291583439 0.9767893369401229 5.321003347849341 6.709711208460892 3.938869878263158 0.1631053515994979 0.8275463425092231 7.220192700113801 5.0957252002017235 3.46514668125948 10.782087644705557 5.3969596947368546 10.471601503029635 8.012800850316777 5.257720785959829 7.461923018406183
1.0898159284503992 3.0744265038184277 5.57435649997884 2.9920551906685424 8.989115951255924 5.572491041518973 6.637074757275205 2.919604234646278 9.386825225101614 6.05421064403998 1.1849327439099013 0.28430449568135535 3.714289538549962 2.2937698788528254 10.365770379653974 2.814168091174675 10.617564139748616 3.0382926812807574 2.8063612014351125 1.779248399829403 6.1535328282818424 7.354251879620914 2.9118189109004717 1.9119223934144516 5.632498419144199 10.253454684174303 7.962488384509719 10.30814604433875 0.536360282600129 3.8099670698471124 2.135637229639176 5.426219688870956 4.27654734475162 8.777046751659277 7.084083892846418 0.26239991582369376 8.566670482572452 7.256795153838919 8.671524344212651 9.539749686823262 3.948765805658779 4.109842213020081 4.181904981154743 6.856745969670737 8.967593089487739 3.941476499769353 5.902181171059191 5.3968575883725745 6.250493536207457 6.6798616888865086 9.891792968891261 10.371485367999233 0.503281283077953 0.5207993398057057 6.14788253791785 4.012223742284918 5.422132933054251 10.466623749452491 4.089656442864749 2.3652934971435946 6.555382772928624 10.12225796116152 5.903162423775076 9.611855586945435 9.134621711125613 7.672727692408172 10.224879742448003 2.659000766102434 7.371332146675425 5.87542855580525 8.601618175453558 2.2260957904474474 9.188989581383725 9.821638791203979 2.2567949825586826 9.076760149879078 6.459866986584642 2.537745966211027 6.85276704382281 0.39455416895923023 2.639041438881536 1.2456302333353109 1.7918213741889746 1.9957925431303578 5.106396001473968 9.849868677030187 3.9490677295713588 10.210581488587977 8.71197136550146 5.345379561277726 5.089800969278959 4.389574718025228 9.985292334819087 1.3221355961836465 7.217458781228526 1.3847093270658017 2.6343939672271834 7.859133359435539 10.553329827347271 0.5238358317265078 7.299334076522031 8.053011643299257 8.003895092520656 7.975492678744403 6.278949864968099 1.5200898528671907 7.797249740353567 4.553551751546672 3.88731350645192 8.97580973310866 7.778444193798598 1.2078466122753295 9.619360552772418 7.937191473834285 5.9802069364673045 6.325057959617779 6.692272918292912 0.8231049704749415 0.2935358193084815 6.121183837648297 9.730285241654846 1.381420513018058 9.339983886664239 7.225934216774516 7.443060641906874 4.033218237206089 2.4268428433223543 3.650076792142374 2.9294059788082425 8.911144100832201 3.465267008652927 0.1620457987806205 0.6594632881563994 9.254733513347968 2.769138296212779 8.830778425101595 1.0981835340276096 5.534319232571388 4.963995744705099 2.3875603856963523 4.157007041363791 4.828723048872489 4.573942398642683 3.1727350863537738 5.137742173397873 3.357437039874441 7.528149270269978 9.44111761438158 6.124278557752239 5.63405117069461 3.4526401193089664 5.076731977063006 7.5481625124752645 7.70896934491462 2.6930103382551684 7.237838645327661 7.391690444780804 9.19563190746048 0.5208554113894706 4.269915801671743 1.3505380099598996 8.170158121380203 4.562566336936553 7.013164122380808 1.0341745862610128 2.244933685993049 4.210566186856065 9.657435314748101 7.839130900227131 10.634267001912402 9.390221869118136 3.5002039185371565 4.267791551286807 0.9172696473101296 1.9215084776388591 9.916604644707192 0.5728003422491305 0.8876681642810597 5.326293656803934 6.876101449066475 3.919791893048 0.15413647057071858 0.8685434410185074 7.240577526534634 5.111970810859816 3.376706255295157 10.631161498811583 5.3656300294143255 10.487240839482936 8.04969048026088 5.332774237927521 7.368496218496551