-6817.36508230231
-6817.2890286613165
-6817.280164961193
-6818.056029135489
-6816.819728209764
-6817.797444116607
-6819.048789672244
-6818.335904477164
-6818.771907990964
-6818.650065482227
-6817.85304731417
-6818.389321376091
-6818.103233131252
-6817.77401552327
-6817.626273219368
-6817.099532665785
-6816.153670404894
-6814.821527719828
-6814.874007594752
-6816.095921861827
-6815.862805881901
-6814.343163428423
-6813.558715423087
-6813.604310545778
-6813.174337346757
-6812.102963802299
-6814.004132715135
-6815.119412099573
-6814.517175602308
-6816.20953006975
-6817.524866732027
-6817.211298799077
-6816.524706331544
-6816.117263478079
-6817.170819280495
-6817.587729246521
-6817.050113391262
-6816.378541063395
-6815.4125600658435
-6816.059418062485
-6815.860664209934
-6814.8957795590395
-6814.739106478953
-6814.750138790314
-6813.665860791285
-6814.38895705816
-6814.83825591806
-6814.502358595622
-6813.907651080102
-6814.8001372591425
-6815.687981720322
-6815.843661312783
-6815.919371954283
-6814.343307920872
-6813.185645853664
-6813.387443571614
-6814.937244946058
-6814.899745754294
-6813.65750104599
-6814.0838315931105
-6814.106374728017
-6814.289669929451
-6815.162882829526
-6815.588873778575
-6815.5545951901495
-6814.840659227482
-6813.835361453782
-6814.200132095354
-6814.639995135784
-6815.483207485147
-6816.1610694522815
-6816.231264618385
-6816.169370829157
-6814.5611966825
-6814.724828529782
-6814.91315212284
-6815.337153919729
-6816.136636622822
-6815.717293550908
-6815.092726167531
-6815.416536465368
-6815.363238752302
-6815.947418047349
-6816.691621912573
-6816.260396989895
-6817.1845040214985
-6817.369270950629
-6816.87667211221
-6816.316553122779
-6816.584208104073
-6818.005026158426
-6817.6727838690695
-6816.919810319052
-6817.023197659082
-6816.486193923902
-6815.981940313717
-6815.803171998103
-6814.681866108479
-6813.962106909665
-6813.733189510213
-6814.96796360519
