An instance of this daemon is already running

     Program PWSCF v.7.1 starts on 11May2023 at 12:12: 6 

     This program is part of the open-source Quantum ESPRESSO suite
     for quantum simulation of materials; please cite
         "P. Giannozzi et al., J. Phys.:Condens. Matter 21 395502 (2009);
         "P. Giannozzi et al., J. Phys.:Condens. Matter 29 465901 (2017);
         "P. Giannozzi et al., J. Chem. Phys. 152 154105 (2020);
          URL http://www.quantum-espresso.org", 
     in publications or presentations arising from this work. More details at
     http://www.quantum-espresso.org/quote

     Parallel version (MPI & OpenMP), running on       4 processor cores
     Number of MPI processes:                 4
     Threads/MPI process:                     1

     MPI processes distributed on     1 nodes
     636526 MiB available memory on the printing compute node when the environment starts
 
     Reading input from pw-si-60.in
Warning: card &CELL ignored
Warning: card / ignored

     Current dimensions of program PWSCF are:
     Max number of different atomic species (ntypx) = 10
     Max number of k-points (npk) =  40000
     Max angular momentum in pseudopotentials (lmaxx) =  4

     IMPORTANT: XC functional enforced from input :
     Exchange-correlation= PBE
                           (   1   4   3   4   0   0   0)
     Any further DFT definition will be discarded
     Please, verify this is what you really want


     gamma-point specific algorithms are used
 
     K-points division:     npool     =       2
     R & G space division:  proc/nbgrp/npool/nimage =       2
     Subspace diagonalization in iterative solution of the eigenvalue problem:
     a serial algorithm will be used

     Message from routine divide_et_impera:
     suboptimal parallelization: some nodes have no k-points
 
     Parallelization info
     --------------------
     sticks:   dense  smooth     PW     G-vecs:    dense   smooth      PW
     Min        1954    1954    520                92150    92150   12584
     Max        1955    1955    521                92157    92157   12589
     Sum        3909    3909   1041               184307   184307   25173
 
     Using Slab Decomposition
 


     bravais-lattice index     =            0
     lattice parameter (alat)  =      20.2467  a.u.
     unit-cell volume          =    8299.7339 (a.u.)^3
     number of atoms/cell      =           64
     number of atomic types    =            1
     number of electrons       =       256.00
     number of Kohn-Sham states=          154
     kinetic-energy cutoff     =      30.0000  Ry
     charge density cutoff     =     120.0000  Ry
     scf convergence threshold =      1.0E-06
     mixing beta               =       0.5000
     number of iterations used =            8  plain     mixing
     Exchange-correlation= PBE
                           (   1   4   3   4   0   0   0)

     GPU acceleration is ACTIVE.
     GPU-aware MPI enabled

     Message from routine print_cuda_info:
     High GPU oversubscription detected. Are you sure this is what you want?

     celldm(1)=  20.246722  celldm(2)=   0.000000  celldm(3)=   0.000000
     celldm(4)=   0.000000  celldm(5)=   0.000000  celldm(6)=   0.000000

     crystal axes: (cart. coord. in units of alat)
               a(1) = (   1.000000   0.000000   0.000000 )  
               a(2) = (   0.000000   1.000000   0.000000 )  
               a(3) = (   0.000000   0.000000   1.000000 )  

     reciprocal axes: (cart. coord. in units 2 pi/alat)
               b(1) = (  1.000000  0.000000  0.000000 )  
               b(2) = (  0.000000  1.000000  0.000000 )  
               b(3) = (  0.000000  0.000000  1.000000 )  


     PseudoPot. # 1 for Si read from file:
     /home/ppiaggi/pseudos/Si_ONCV_PBE_sr.upf
     MD5 check sum: 8553c464762ac42b85b1eed164b4d029
     Pseudo is Norm-conserving, Zval =  4.0
     Generated using ONCVPSP code by D. R. Hamann
     Using radial grid of 1510 points,  4 beta functions with: 
                l(1) =   0
                l(2) =   0
                l(3) =   1
                l(4) =   1

     atomic species   valence    mass     pseudopotential
        Si             4.00    28.08500     Si( 1.00)

     No symmetry found



   Cartesian axes

     site n.     atom                  positions (alat units)
         1           Si  tau(   1) = (   0.9994730   0.2766340   0.3344690  )
         2           Si  tau(   2) = (   0.3170860   0.2596680   0.6463850  )
         3           Si  tau(   3) = (   0.7849870   0.1431470   0.0476378  )
         4           Si  tau(   4) = (   0.4481640   0.8069580   0.1381000  )
         5           Si  tau(   5) = (   0.2589280   0.1144880   0.8647270  )
         6           Si  tau(   6) = (   0.2586460   0.0579132   0.0669389  )
         7           Si  tau(   7) = (   0.1551160   0.4867960   0.2759670  )
         8           Si  tau(   8) = (   0.5785020   0.0050055   0.2064360  )
         9           Si  tau(   9) = (   0.6963170   0.8627370   0.9034780  )
        10           Si  tau(  10) = (   0.1174200   0.0651745   0.5144480  )
        11           Si  tau(  11) = (   0.3264400   0.6283720   0.2142530  )
        12           Si  tau(  12) = (   0.0192613   0.5113140   0.0711923  )
        13           Si  tau(  13) = (   0.6992800   0.5890250   0.5879020  )
        14           Si  tau(  14) = (   0.7072280   0.2275430   0.4821680  )
        15           Si  tau(  15) = (   0.1473650   0.7030650   0.5412810  )
        16           Si  tau(  16) = (   0.4574800   0.5781890   0.4279060  )
        17           Si  tau(  17) = (   0.4625570   0.6640850   0.9545770  )
        18           Si  tau(  18) = (   0.9180520   0.1722730   0.8429160  )
        19           Si  tau(  19) = (   0.5933500   0.3126630   0.9415960  )
        20           Si  tau(  20) = (   0.2290680   0.5630110   0.9021160  )
        21           Si  tau(  21) = (   0.4615060   0.9958590   0.7768450  )
        22           Si  tau(  22) = (   0.9416280   0.7766450   0.6182740  )
        23           Si  tau(  23) = (   0.1540950   0.4816940   0.5193930  )
        24           Si  tau(  24) = (   0.7244530   0.7536850   0.1942380  )
        25           Si  tau(  25) = (   0.7857310   0.9466180   0.2696150  )
        26           Si  tau(  26) = (   0.8632350   0.5962300   0.4323730  )
        27           Si  tau(  27) = (   0.6232240   0.9835260   0.4432870  )
        28           Si  tau(  28) = (   0.9742900   0.9801430   0.3879930  )
        29           Si  tau(  29) = (   0.5586200   0.7353630   0.3398110  )
        30           Si  tau(  30) = (   0.8073280   0.8452730   0.4762130  )
        31           Si  tau(  31) = (   0.6869470   0.5491000   0.0279538  )
        32           Si  tau(  32) = (   0.9110090   0.6638460   0.2341860  )
        33           Si  tau(  33) = (   0.1775430   0.7644220   0.9454700  )
        34           Si  tau(  34) = (   0.0761592   0.5796240   0.7545710  )
        35           Si  tau(  35) = (   0.4650330   0.7483220   0.6156620  )
        36           Si  tau(  36) = (   0.3900740   0.9888180   0.3464480  )
        37           Si  tau(  37) = (   0.0810686   0.9879390   0.9159220  )
        38           Si  tau(  38) = (   0.2837970   0.8579490   0.4924780  )
        39           Si  tau(  39) = (   0.3566140   0.7872660   0.8026830  )
        40           Si  tau(  40) = (   0.2567310   0.2132920   0.3302720  )
        41           Si  tau(  41) = (   0.8907650   0.9187250   0.0156109  )
        42           Si  tau(  42) = (   0.6082280   0.9103620   0.6565660  )
        43           Si  tau(  43) = (   0.3799660   0.2828460   0.0250075  )
        44           Si  tau(  44) = (   0.9825500   0.3149220   0.1324850  )
        45           Si  tau(  45) = (   0.0056477   0.8824420   0.2033420  )
        46           Si  tau(  46) = (   0.9340000   0.2248610   0.5367610  )
        47           Si  tau(  47) = (   0.5103760   0.1564030   0.5771460  )
        48           Si  tau(  48) = (   0.4753260   0.2060400   0.2950210  )
        49           Si  tau(  49) = (   0.5236880   0.4623210   0.7762200  )
        50           Si  tau(  50) = (   0.0939774   0.6793670   0.3330170  )
        51           Si  tau(  51) = (   0.3789070   0.4594720   0.6063000  )
        52           Si  tau(  52) = (   0.7120910   0.1031640   0.7746820  )
        53           Si  tau(  53) = (   0.8575560   0.6794530   0.9243070  )
        54           Si  tau(  54) = (   0.5219520   0.9721800   0.9817640  )
        55           Si  tau(  55) = (   0.2345220   0.8256880   0.1673940  )
        56           Si  tau(  56) = (   0.1173870   0.3526720   0.8829310  )
        57           Si  tau(  57) = (   0.6457800   0.7045260   0.7706900  )
        58           Si  tau(  58) = (   0.5140280   0.4098050   0.1269010  )
        59           Si  tau(  59) = (   0.9978170   0.0109594   0.7134150  )
        60           Si  tau(  60) = (   0.0444644   0.2828400   0.6945750  )
        61           Si  tau(  61) = (   0.0664031   0.0951222   0.2009970  )
        62           Si  tau(  62) = (   0.5575740   0.4023430   0.3733190  )
        63           Si  tau(  63) = (   0.7465400   0.4350960   0.8058010  )
        64           Si  tau(  64) = (   0.8788770   0.4236320   0.5554600  )

     number of k points=     1  Fermi-Dirac smearing, width (Ry)=  0.0100
                       cart. coord. in units 2pi/alat
        k(    1) = (   0.0000000   0.0000000   0.0000000), wk =   2.0000000

     Dense  grid:    92154 G-vectors     FFT dimensions: (  72,  72,  72)

     Estimated max dynamical RAM per process >     147.62 MB

     Estimated total dynamical RAM >     567.96 MB

     Initial potential from superposition of free atoms

     starting charge     255.9608, renormalised to     256.0000
     Starting wfcs are  256 randomized atomic wfcs

     total cpu time spent up to now is        4.5 secs

     Self-consistent Calculation

     iteration #  1     ecut=    30.00 Ry     beta= 0.50
     Davidson diagonalization with overlap
     ethr =  1.00E-02,  avg # of iterations =  3.0

     Threshold (ethr) on eigenvalues was too large:
     Diagonalizing with lowered threshold

     Davidson diagonalization with overlap
     ethr =  6.66E-04,  avg # of iterations =  4.0

     total cpu time spent up to now is        4.7 secs

     total energy              =    -500.07513931 Ry
     estimated scf accuracy    <       2.15828414 Ry

     iteration #  2     ecut=    30.00 Ry     beta= 0.50
     Davidson diagonalization with overlap
     ethr =  8.43E-04,  avg # of iterations =  5.0

     total cpu time spent up to now is        4.8 secs

     total energy              =    -498.66780061 Ry
     estimated scf accuracy    <      22.83782188 Ry

     iteration #  3     ecut=    30.00 Ry     beta= 0.50
     Davidson diagonalization with overlap
     ethr =  8.43E-04,  avg # of iterations =  4.0

     total cpu time spent up to now is        4.9 secs

     total energy              =    -500.54513841 Ry
     estimated scf accuracy    <       2.29632344 Ry

     iteration #  4     ecut=    30.00 Ry     beta= 0.50
     Davidson diagonalization with overlap
     ethr =  8.43E-04,  avg # of iterations =  2.0

     total cpu time spent up to now is        5.0 secs

     total energy              =    -500.70738084 Ry
     estimated scf accuracy    <       0.80588504 Ry

     iteration #  5     ecut=    30.00 Ry     beta= 0.50
     Davidson diagonalization with overlap
     ethr =  3.15E-04,  avg # of iterations =  2.0

     total cpu time spent up to now is        5.1 secs

     total energy              =    -500.75456126 Ry
     estimated scf accuracy    <       0.66185331 Ry

     iteration #  6     ecut=    30.00 Ry     beta= 0.50
     Davidson diagonalization with overlap
     ethr =  2.59E-04,  avg # of iterations =  2.0

     total cpu time spent up to now is        5.2 secs

     total energy              =    -500.80858164 Ry
     estimated scf accuracy    <       0.10404973 Ry

     iteration #  7     ecut=    30.00 Ry     beta= 0.50
     Davidson diagonalization with overlap
     ethr =  4.06E-05,  avg # of iterations =  2.0

     total cpu time spent up to now is        5.3 secs

     total energy              =    -500.81906680 Ry
     estimated scf accuracy    <       0.05587876 Ry

     iteration #  8     ecut=    30.00 Ry     beta= 0.50
     Davidson diagonalization with overlap
     ethr =  2.18E-05,  avg # of iterations =  2.0

     total cpu time spent up to now is        5.3 secs

     total energy              =    -500.82483107 Ry
     estimated scf accuracy    <       0.02454609 Ry

     iteration #  9     ecut=    30.00 Ry     beta= 0.50
     Davidson diagonalization with overlap
     ethr =  9.59E-06,  avg # of iterations = 10.0

     total cpu time spent up to now is        5.5 secs

     total energy              =    -500.82644953 Ry
     estimated scf accuracy    <       0.00640007 Ry

     iteration # 10     ecut=    30.00 Ry     beta= 0.50
     Davidson diagonalization with overlap
     ethr =  2.50E-06,  avg # of iterations = 10.0

     total cpu time spent up to now is        5.6 secs

     total energy              =    -500.82709937 Ry
     estimated scf accuracy    <       0.00511288 Ry

     iteration # 11     ecut=    30.00 Ry     beta= 0.50
     Davidson diagonalization with overlap
     ethr =  2.00E-06,  avg # of iterations =  2.0

     total cpu time spent up to now is        5.7 secs

     total energy              =    -500.82743152 Ry
     estimated scf accuracy    <       0.00080388 Ry

     iteration # 12     ecut=    30.00 Ry     beta= 0.50
     Davidson diagonalization with overlap
     ethr =  3.14E-07,  avg # of iterations =  4.0

     total cpu time spent up to now is        5.8 secs

     total energy              =    -500.82748676 Ry
     estimated scf accuracy    <       0.00125695 Ry

     iteration # 13     ecut=    30.00 Ry     beta= 0.50
     Davidson diagonalization with overlap
     ethr =  3.14E-07,  avg # of iterations =  2.0

     total cpu time spent up to now is        5.9 secs

     total energy              =    -500.82759447 Ry
     estimated scf accuracy    <       0.00026145 Ry

     iteration # 14     ecut=    30.00 Ry     beta= 0.50
     Davidson diagonalization with overlap
     ethr =  1.02E-07,  avg # of iterations =  2.0

     total cpu time spent up to now is        6.0 secs

     total energy              =    -500.82761525 Ry
     estimated scf accuracy    <       0.00004140 Ry

     iteration # 15     ecut=    30.00 Ry     beta= 0.50
     Davidson diagonalization with overlap
     ethr =  1.62E-08,  avg # of iterations =  5.0

     total cpu time spent up to now is        6.1 secs

     total energy              =    -500.82761984 Ry
     estimated scf accuracy    <       0.00004874 Ry

     iteration # 16     ecut=    30.00 Ry     beta= 0.50
     Davidson diagonalization with overlap
     ethr =  1.62E-08,  avg # of iterations =  2.0

     total cpu time spent up to now is        6.1 secs

     total energy              =    -500.82762343 Ry
     estimated scf accuracy    <       0.00001304 Ry

     iteration # 17     ecut=    30.00 Ry     beta= 0.50
     Davidson diagonalization with overlap
     ethr =  5.09E-09,  avg # of iterations =  2.0

     total cpu time spent up to now is        6.2 secs

     total energy              =    -500.82762459 Ry
     estimated scf accuracy    <       0.00000761 Ry

     iteration # 18     ecut=    30.00 Ry     beta= 0.50
     Davidson diagonalization with overlap
     ethr =  2.97E-09,  avg # of iterations =  2.0

     total cpu time spent up to now is        6.3 secs

     total energy              =    -500.82762523 Ry
     estimated scf accuracy    <       0.00000247 Ry

     iteration # 19     ecut=    30.00 Ry     beta= 0.50
     Davidson diagonalization with overlap
     ethr =  9.66E-10,  avg # of iterations =  2.0

     total cpu time spent up to now is        6.4 secs

     total energy              =    -500.82762533 Ry
     estimated scf accuracy    <       0.00000127 Ry

     iteration # 20     ecut=    30.00 Ry     beta= 0.50
     Davidson diagonalization with overlap
     ethr =  4.96E-10,  avg # of iterations =  2.0

     total cpu time spent up to now is        6.5 secs

     End of self-consistent calculation

          k = 0.0000 0.0000 0.0000 ( 11492 PWs)   bands (ev):

    -6.0490  -5.2988  -5.1394  -4.8611  -4.7587  -4.6043  -4.3164  -4.1622
    -4.0018  -3.9371  -3.8299  -3.6394  -3.5388  -3.3762  -3.3268  -3.2105
    -3.0183  -2.9445  -2.8106  -2.6947  -2.6284  -2.4570  -2.1151  -1.9614
    -1.7993  -1.5821  -1.5054  -1.4546  -1.3151  -1.0720  -0.9852  -0.8577
    -0.7612  -0.7211  -0.5230  -0.4738  -0.3815  -0.2790  -0.0667  -0.0222
     0.0230   0.1051   0.2067   0.3452   0.4150   0.4660   0.5489   0.6928
     0.7988   0.9170   0.9819   1.0942   1.1542   1.2943   1.3300   1.4603
     1.4959   1.5302   1.5776   1.8092   1.8218   1.9303   2.1229   2.2118
     2.2605   2.3180   2.4293   2.4664   2.5814   2.7105   2.7528   2.8751
     2.9524   3.0783   3.1307   3.2297   3.3028   3.4074   3.5380   3.5997
     3.6917   3.7656   3.9161   3.9875   4.0427   4.1837   4.2388   4.3899
     4.4356   4.5009   4.5945   4.6163   4.7579   4.8181   4.8865   4.9275
     5.0016   5.1089   5.1349   5.1901   5.2600   5.3171   5.3648   5.3950
     5.4916   5.5564   5.6122   5.6374   5.7453   5.7658   5.8150   5.9393
     5.9456   6.0522   6.1382   6.1580   6.1719   6.2342   6.2932   6.3286
     6.4024   6.5046   6.5138   6.5834   6.6074   6.6879   6.7176   6.7354
     6.8154   6.8929   6.9766   7.0215   7.1253   7.1756   7.2760   7.3022
     7.3923   7.4487   7.4793   7.5029   7.6702   7.6778   7.7404   7.7755
     7.8165   7.8962   7.9421   8.0366   8.0704   8.1014   8.2041   8.3337
     8.4070   8.4326

     the Fermi energy is     6.8207 ev

!    total energy              =    -500.82762482 Ry
     estimated scf accuracy    <       0.00000085 Ry
     smearing contrib. (-TS)   =      -0.15057364 Ry
     internal energy E=F+TS    =    -500.67705118 Ry

     The total energy is F=E-TS. E is the sum of the following terms:
     one-electron contribution =     149.06729507 Ry
     hartree contribution      =      40.98239346 Ry
     xc contribution           =    -151.46585046 Ry
     ewald contribution        =    -539.26088925 Ry

     convergence has been achieved in  20 iterations

     Forces acting on atoms (cartesian axes, Ry/au):

     atom    1 type  1   force =     0.03286888   -0.00878585    0.04635886
     atom    2 type  1   force =    -0.02945814   -0.04282416    0.02429975
     atom    3 type  1   force =     0.02287234   -0.00264185   -0.01347725
     atom    4 type  1   force =     0.05571230    0.01104449   -0.00116150
     atom    5 type  1   force =     0.03406112    0.05292277   -0.07794413
     atom    6 type  1   force =     0.00098522   -0.01804177    0.07453826
     atom    7 type  1   force =     0.01946319   -0.05238699   -0.02077712
     atom    8 type  1   force =    -0.01288928    0.03732234   -0.02441110
     atom    9 type  1   force =     0.01622136    0.03825836    0.02761164
     atom   10 type  1   force =     0.05727741    0.00813851    0.05313681
     atom   11 type  1   force =     0.00850300   -0.06648860    0.04179487
     atom   12 type  1   force =     0.00393746    0.05122295    0.00268996
     atom   13 type  1   force =     0.00563082   -0.01218178    0.00883459
     atom   14 type  1   force =    -0.01962044   -0.00304346   -0.01202117
     atom   15 type  1   force =    -0.03998434    0.01816950    0.02642175
     atom   16 type  1   force =    -0.06495597   -0.00961973    0.03044412
     atom   17 type  1   force =     0.01847490   -0.03622880   -0.00246372
     atom   18 type  1   force =    -0.02645705    0.00072906    0.02582926
     atom   19 type  1   force =     0.02205706   -0.02878752   -0.01558932
     atom   20 type  1   force =     0.04584221   -0.05356792    0.02635615
     atom   21 type  1   force =    -0.08657441    0.03408240    0.02006996
     atom   22 type  1   force =     0.04882183   -0.02409363    0.04402272
     atom   23 type  1   force =     0.00910169   -0.02183674    0.01172701
     atom   24 type  1   force =    -0.04530881   -0.02554302   -0.03999200
     atom   25 type  1   force =    -0.00644651    0.05370436   -0.01311572
     atom   26 type  1   force =     0.00142794    0.03790681    0.00286514
     atom   27 type  1   force =    -0.01487607    0.01463623    0.01332257
     atom   28 type  1   force =    -0.03698545   -0.00043637   -0.00997888
     atom   29 type  1   force =     0.03170707    0.07312491   -0.02569461
     atom   30 type  1   force =    -0.05390337   -0.01034976   -0.03052986
     atom   31 type  1   force =    -0.02162768    0.02315236    0.00043743
     atom   32 type  1   force =     0.00379381   -0.03997970   -0.05765990
     atom   33 type  1   force =     0.00724017    0.07070469    0.01055802
     atom   34 type  1   force =    -0.03673355   -0.00427806   -0.05350508
     atom   35 type  1   force =    -0.03938229   -0.01446266   -0.03771832
     atom   36 type  1   force =    -0.00628202    0.00360937   -0.00758409
     atom   37 type  1   force =    -0.01094005   -0.03740745   -0.00104813
     atom   38 type  1   force =     0.02725323    0.03441928    0.01342081
     atom   39 type  1   force =    -0.00603951    0.01617723    0.01194674
     atom   40 type  1   force =    -0.03672457   -0.01697188    0.00069838
     atom   41 type  1   force =    -0.00129324    0.00930810    0.01743886
     atom   42 type  1   force =     0.07145096    0.00737147   -0.03768919
     atom   43 type  1   force =    -0.02195481   -0.04143264   -0.02110054
     atom   44 type  1   force =    -0.03835412   -0.06519498   -0.06163650
     atom   45 type  1   force =     0.04244891   -0.05988342   -0.02752909
     atom   46 type  1   force =    -0.05179576   -0.09508856   -0.08418633
     atom   47 type  1   force =     0.01589288   -0.01679163   -0.00596896
     atom   48 type  1   force =     0.01506954    0.01288795   -0.00842017
     atom   49 type  1   force =    -0.00322464    0.03862139    0.02109628
     atom   50 type  1   force =     0.03895053    0.04967985    0.00848132
     atom   51 type  1   force =    -0.01359233    0.03301311   -0.00221849
     atom   52 type  1   force =    -0.00792051   -0.01086039   -0.00581933
     atom   53 type  1   force =     0.00164124   -0.00531823    0.00685905
     atom   54 type  1   force =    -0.00382132   -0.01215893    0.05210072
     atom   55 type  1   force =    -0.07494408    0.03413564   -0.01032784
     atom   56 type  1   force =     0.01863568    0.01210605    0.04709148
     atom   57 type  1   force =    -0.01634840   -0.05672448   -0.02512529
     atom   58 type  1   force =     0.02327052    0.05172068    0.06731012
     atom   59 type  1   force =     0.01059910   -0.02380393   -0.02421267
     atom   60 type  1   force =     0.07424986    0.03622962    0.03925354
     atom   61 type  1   force =     0.02619779    0.06354241   -0.02041588
     atom   62 type  1   force =     0.03298699   -0.07543104   -0.03551883
     atom   63 type  1   force =     0.00884851    0.00806469   -0.00400380
     atom   64 type  1   force =    -0.02505679    0.05663938    0.04182862

     Total force =     0.484881     Total SCF correction =     0.001883


     Computing stress (Cartesian axis) and pressure

          total   stress  (Ry/bohr**3)                   (kbar)     P=        4.59
   0.00000286   0.00003763   0.00006468            0.42        5.54        9.51
   0.00003763   0.00000125   0.00002281            5.54        0.18        3.36
   0.00006468   0.00002281   0.00008957            9.51        3.36       13.18

 
     init_run     :      0.96s CPU      4.43s WALL (       1 calls)
     electrons    :      1.81s CPU      1.99s WALL (       1 calls)
     forces       :      0.03s CPU      0.03s WALL (       1 calls)
     stress       :      0.15s CPU      0.15s WALL (       1 calls)

     Called by init_run:
     wfcinit      :      0.46s CPU      3.76s WALL (       1 calls)
                                        3.76s GPU  (       1 calls)
     potinit      :      0.04s CPU      0.13s WALL (       1 calls)
     hinit0       :      0.45s CPU      0.48s WALL (       1 calls)

     Called by electrons:
     c_bands      :      1.15s CPU      1.23s WALL (      21 calls)
     sum_band     :      0.33s CPU      0.39s WALL (      21 calls)
     v_of_rho     :      0.14s CPU      0.24s WALL (      21 calls)
     mix_rho      :      0.16s CPU      0.17s WALL (      21 calls)

     Called by c_bands:
     init_us_2    :      0.05s CPU      0.06s WALL (      43 calls)
     init_us_2:gp :      0.05s CPU      0.06s WALL (      43 calls)
     regterg      :      1.00s CPU      1.07s WALL (      21 calls)

     Called by *egterg:
     rdiaghg      :      0.40s CPU      1.08s WALL (      91 calls)
                                        1.07s GPU  (      91 calls)
     h_psi        :      0.88s CPU      3.56s WALL (      93 calls)
                                        3.56s GPU  (      93 calls)
     g_psi        :      0.00s CPU      0.00s WALL (      71 calls)
                                        0.00s GPU  (      71 calls)

     Called by h_psi:
     h_psi:calbec :      0.44s CPU      3.04s WALL (      93 calls)
                                        3.04s GPU  (      93 calls)
     vloc_psi     :      0.39s CPU      0.46s WALL (      93 calls)
                                        0.45s GPU  (      93 calls)
     add_vuspsi   :      0.03s CPU      0.05s WALL (      93 calls)
                                        0.05s GPU  (      93 calls)

     General routines
     calbec       :      0.45s CPU      3.05s WALL (      98 calls)
     fft          :      0.55s CPU      0.69s WALL (     175 calls)
                                        0.12s GPU  (     111 calls)
     ffts         :      0.04s CPU      0.04s WALL (      21 calls)
     fftw         :      0.47s CPU      0.62s WALL (    2203 calls)
                                        0.54s GPU  (    2203 calls)
 
     Parallel routines
 
     PWSCF        :      2.98s CPU      6.68s WALL

 
   This run was terminated on:  12:12:13  11May2023            

=------------------------------------------------------------------------------=
   JOB DONE.
=------------------------------------------------------------------------------=
