An instance of this daemon is already running

     Program PWSCF v.7.1 starts on 11May2023 at 12:10:20 

     This program is part of the open-source Quantum ESPRESSO suite
     for quantum simulation of materials; please cite
         "P. Giannozzi et al., J. Phys.:Condens. Matter 21 395502 (2009);
         "P. Giannozzi et al., J. Phys.:Condens. Matter 29 465901 (2017);
         "P. Giannozzi et al., J. Chem. Phys. 152 154105 (2020);
          URL http://www.quantum-espresso.org", 
     in publications or presentations arising from this work. More details at
     http://www.quantum-espresso.org/quote

     Parallel version (MPI & OpenMP), running on       4 processor cores
     Number of MPI processes:                 4
     Threads/MPI process:                     1

     MPI processes distributed on     1 nodes
     636831 MiB available memory on the printing compute node when the environment starts
 
     Reading input from pw-si-48.in
Warning: card &CELL ignored
Warning: card / ignored

     Current dimensions of program PWSCF are:
     Max number of different atomic species (ntypx) = 10
     Max number of k-points (npk) =  40000
     Max angular momentum in pseudopotentials (lmaxx) =  4

     IMPORTANT: XC functional enforced from input :
     Exchange-correlation= PBE
                           (   1   4   3   4   0   0   0)
     Any further DFT definition will be discarded
     Please, verify this is what you really want


     gamma-point specific algorithms are used
 
     K-points division:     npool     =       2
     R & G space division:  proc/nbgrp/npool/nimage =       2
     Subspace diagonalization in iterative solution of the eigenvalue problem:
     a serial algorithm will be used

     Message from routine divide_et_impera:
     suboptimal parallelization: some nodes have no k-points
 
     Parallelization info
     --------------------
     sticks:   dense  smooth     PW     G-vecs:    dense   smooth      PW
     Min        1945    1945    519                91431    91431   12442
     Max        1948    1948    522                91436    91436   12443
     Sum        3893    3893   1041               182867   182867   24885
 
     Using Slab Decomposition
 


     bravais-lattice index     =            0
     lattice parameter (alat)  =      20.2032  a.u.
     unit-cell volume          =    8246.3213 (a.u.)^3
     number of atoms/cell      =           64
     number of atomic types    =            1
     number of electrons       =       256.00
     number of Kohn-Sham states=          154
     kinetic-energy cutoff     =      30.0000  Ry
     charge density cutoff     =     120.0000  Ry
     scf convergence threshold =      1.0E-06
     mixing beta               =       0.5000
     number of iterations used =            8  plain     mixing
     Exchange-correlation= PBE
                           (   1   4   3   4   0   0   0)

     GPU acceleration is ACTIVE.
     GPU-aware MPI enabled

     Message from routine print_cuda_info:
     High GPU oversubscription detected. Are you sure this is what you want?

     celldm(1)=  20.203196  celldm(2)=   0.000000  celldm(3)=   0.000000
     celldm(4)=   0.000000  celldm(5)=   0.000000  celldm(6)=   0.000000

     crystal axes: (cart. coord. in units of alat)
               a(1) = (   1.000000   0.000000   0.000000 )  
               a(2) = (   0.000000   1.000000   0.000000 )  
               a(3) = (   0.000000   0.000000   1.000000 )  

     reciprocal axes: (cart. coord. in units 2 pi/alat)
               b(1) = (  1.000000  0.000000  0.000000 )  
               b(2) = (  0.000000  1.000000  0.000000 )  
               b(3) = (  0.000000  0.000000  1.000000 )  


     PseudoPot. # 1 for Si read from file:
     /home/ppiaggi/pseudos/Si_ONCV_PBE_sr.upf
     MD5 check sum: 8553c464762ac42b85b1eed164b4d029
     Pseudo is Norm-conserving, Zval =  4.0
     Generated using ONCVPSP code by D. R. Hamann
     Using radial grid of 1510 points,  4 beta functions with: 
                l(1) =   0
                l(2) =   0
                l(3) =   1
                l(4) =   1

     atomic species   valence    mass     pseudopotential
        Si             4.00    28.08500     Si( 1.00)

     No symmetry found



   Cartesian axes

     site n.     atom                  positions (alat units)
         1           Si  tau(   1) = (   0.9374850   0.2456160   0.2868060  )
         2           Si  tau(   2) = (   0.2968930   0.2487230   0.6320200  )
         3           Si  tau(   3) = (   0.7631320   0.1761870   0.0089889  )
         4           Si  tau(   4) = (   0.5647100   0.8391110   0.1008610  )
         5           Si  tau(   5) = (   0.2780040   0.1726620   0.8569360  )
         6           Si  tau(   6) = (   0.3503950   0.9843070   0.1405500  )
         7           Si  tau(   7) = (   0.1831840   0.3648600   0.3024860  )
         8           Si  tau(   8) = (   0.6244680   0.0539987   0.1591000  )
         9           Si  tau(   9) = (   0.6046080   0.9249050   0.9017580  )
        10           Si  tau(  10) = (   0.1601530   0.9948060   0.5323660  )
        11           Si  tau(  11) = (   0.3343740   0.5872400   0.3188430  )
        12           Si  tau(  12) = (   0.9132780   0.5246530   0.0378938  )
        13           Si  tau(  13) = (   0.6963780   0.6088010   0.6497740  )
        14           Si  tau(  14) = (   0.7786150   0.2318660   0.4294450  )
        15           Si  tau(  15) = (   0.1132930   0.6434170   0.6367720  )
        16           Si  tau(  16) = (   0.4401740   0.4722450   0.5025640  )
        17           Si  tau(  17) = (   0.3841660   0.6993110   0.9077000  )
        18           Si  tau(  18) = (   0.9303860   0.1905230   0.8644860  )
        19           Si  tau(  19) = (   0.6464910   0.3278780   0.8462490  )
        20           Si  tau(  20) = (   0.2968600   0.5194670   0.0221660  )
        21           Si  tau(  21) = (   0.5345530   0.0477875   0.7259630  )
        22           Si  tau(  22) = (   0.8893390   0.8494120   0.6865560  )
        23           Si  tau(  23) = (   0.0679498   0.4475560   0.5495430  )
        24           Si  tau(  24) = (   0.6620530   0.6665400   0.2404460  )
        25           Si  tau(  25) = (   0.8228770   0.9615790   0.2810300  )
        26           Si  tau(  26) = (   0.7756890   0.5722250   0.3719910  )
        27           Si  tau(  27) = (   0.6127880   0.0935078   0.3680800  )
        28           Si  tau(  28) = (   0.0336156   0.0612142   0.3405650  )
        29           Si  tau(  29) = (   0.5073350   0.7417420   0.3530490  )
        30           Si  tau(  30) = (   0.8594220   0.9297730   0.4922500  )
        31           Si  tau(  31) = (   0.5180120   0.5296610   0.9751970  )
        32           Si  tau(  32) = (   0.0053270   0.6622270   0.2124700  )
        33           Si  tau(  33) = (   0.1346060   0.6965480   0.9414320  )
        34           Si  tau(  34) = (   0.9064430   0.6777360   0.8056030  )
        35           Si  tau(  35) = (   0.5081170   0.7175480   0.5982560  )
        36           Si  tau(  36) = (   0.3283920   0.8938390   0.3795370  )
        37           Si  tau(  37) = (   0.2006320   0.9261870   0.8492270  )
        38           Si  tau(  38) = (   0.2573200   0.8047580   0.5812560  )
        39           Si  tau(  39) = (   0.3792920   0.8649820   0.7767330  )
        40           Si  tau(  40) = (   0.1867360   0.2088630   0.4473880  )
        41           Si  tau(  41) = (   0.8377780   0.9469810   0.9628500  )
        42           Si  tau(  42) = (   0.6403170   0.9123720   0.4882410  )
        43           Si  tau(  43) = (   0.3057150   0.2716620   0.0591208  )
        44           Si  tau(  44) = (   0.9351200   0.2881270   0.0840537  )
        45           Si  tau(  45) = (   0.0593648   0.9292600   0.1483820  )
        46           Si  tau(  46) = (   0.9070600   0.1270240   0.5789220  )
        47           Si  tau(  47) = (   0.4812950   0.1516290   0.5222410  )
        48           Si  tau(  48) = (   0.4217790   0.2367110   0.2786110  )
        49           Si  tau(  49) = (   0.4530960   0.4573090   0.7675180  )
        50           Si  tau(  50) = (   0.1206910   0.6366990   0.4111910  )
        51           Si  tau(  51) = (   0.2703850   0.4683800   0.6328330  )
        52           Si  tau(  52) = (   0.7536760   0.1179040   0.7211380  )
        53           Si  tau(  53) = (   0.8449380   0.7383600   0.0396938  )
        54           Si  tau(  54) = (   0.5357710   0.1692160   0.9181250  )
        55           Si  tau(  55) = (   0.3038050   0.7457270   0.1405640  )
        56           Si  tau(  56) = (   0.1325840   0.3735130   0.9217350  )
        57           Si  tau(  57) = (   0.7138410   0.7144020   0.8527090  )
        58           Si  tau(  58) = (   0.6017170   0.3090940   0.0761638  )
        59           Si  tau(  59) = (   0.0676597   0.0264090   0.7083700  )
        60           Si  tau(  60) = (   0.0990380   0.2892020   0.7175460  )
        61           Si  tau(  61) = (   0.1801080   0.1339050   0.1683970  )
        62           Si  tau(  62) = (   0.6075750   0.3717630   0.3252000  )
        63           Si  tau(  63) = (   0.8413370   0.4673730   0.8284810  )
        64           Si  tau(  64) = (   0.8300330   0.4116350   0.5514730  )

     number of k points=     1  Fermi-Dirac smearing, width (Ry)=  0.0100
                       cart. coord. in units 2pi/alat
        k(    1) = (   0.0000000   0.0000000   0.0000000), wk =   2.0000000

     Dense  grid:    91434 G-vectors     FFT dimensions: (  72,  72,  72)

     Estimated max dynamical RAM per process >     146.74 MB

     Estimated total dynamical RAM >     564.64 MB

     Initial potential from superposition of free atoms

     starting charge     255.9608, renormalised to     256.0000
     Starting wfcs are  256 randomized atomic wfcs

     total cpu time spent up to now is        4.5 secs

     Self-consistent Calculation

     iteration #  1     ecut=    30.00 Ry     beta= 0.50
     Davidson diagonalization with overlap
     ethr =  1.00E-02,  avg # of iterations =  3.0

     Threshold (ethr) on eigenvalues was too large:
     Diagonalizing with lowered threshold

     Davidson diagonalization with overlap
     ethr =  6.94E-04,  avg # of iterations =  4.0

     total cpu time spent up to now is        4.7 secs

     total energy              =    -500.01991459 Ry
     estimated scf accuracy    <       2.25527381 Ry

     iteration #  2     ecut=    30.00 Ry     beta= 0.50
     Davidson diagonalization with overlap
     ethr =  8.81E-04,  avg # of iterations =  5.0

     total cpu time spent up to now is        4.8 secs

     total energy              =    -498.62147821 Ry
     estimated scf accuracy    <      21.61298647 Ry

     iteration #  3     ecut=    30.00 Ry     beta= 0.50
     Davidson diagonalization with overlap
     ethr =  8.81E-04,  avg # of iterations =  4.0

     total cpu time spent up to now is        4.9 secs

     total energy              =    -500.48461577 Ry
     estimated scf accuracy    <       2.86253123 Ry

     iteration #  4     ecut=    30.00 Ry     beta= 0.50
     Davidson diagonalization with overlap
     ethr =  8.81E-04,  avg # of iterations =  2.0

     total cpu time spent up to now is        5.0 secs

     total energy              =    -500.69918622 Ry
     estimated scf accuracy    <       0.75864606 Ry

     iteration #  5     ecut=    30.00 Ry     beta= 0.50
     Davidson diagonalization with overlap
     ethr =  2.96E-04,  avg # of iterations =  2.0

     total cpu time spent up to now is        5.1 secs

     total energy              =    -500.73366288 Ry
     estimated scf accuracy    <       0.71546120 Ry

     iteration #  6     ecut=    30.00 Ry     beta= 0.50
     Davidson diagonalization with overlap
     ethr =  2.79E-04,  avg # of iterations =  2.0

     total cpu time spent up to now is        5.2 secs

     total energy              =    -500.79678352 Ry
     estimated scf accuracy    <       0.08600169 Ry

     iteration #  7     ecut=    30.00 Ry     beta= 0.50
     Davidson diagonalization with overlap
     ethr =  3.36E-05,  avg # of iterations =  2.0

     total cpu time spent up to now is        5.2 secs

     total energy              =    -500.80546460 Ry
     estimated scf accuracy    <       0.04566438 Ry

     iteration #  8     ecut=    30.00 Ry     beta= 0.50
     Davidson diagonalization with overlap
     ethr =  1.78E-05,  avg # of iterations =  3.0

     total cpu time spent up to now is        5.3 secs

     total energy              =    -500.81039767 Ry
     estimated scf accuracy    <       0.02807376 Ry

     iteration #  9     ecut=    30.00 Ry     beta= 0.50
     Davidson diagonalization with overlap
     ethr =  1.10E-05,  avg # of iterations =  3.0

     total cpu time spent up to now is        5.4 secs

     total energy              =    -500.81214891 Ry
     estimated scf accuracy    <       0.00385206 Ry

     iteration # 10     ecut=    30.00 Ry     beta= 0.50
     Davidson diagonalization with overlap
     ethr =  1.50E-06,  avg # of iterations = 15.0

     total cpu time spent up to now is        5.6 secs

     total energy              =    -500.81232739 Ry
     estimated scf accuracy    <       0.00868078 Ry

     iteration # 11     ecut=    30.00 Ry     beta= 0.50
     Davidson diagonalization with overlap
     ethr =  1.50E-06,  avg # of iterations =  2.0

     total cpu time spent up to now is        5.7 secs

     total energy              =    -500.81287383 Ry
     estimated scf accuracy    <       0.00045459 Ry

     iteration # 12     ecut=    30.00 Ry     beta= 0.50
     Davidson diagonalization with overlap
     ethr =  1.78E-07,  avg # of iterations =  5.0

     total cpu time spent up to now is        5.8 secs

     total energy              =    -500.81292013 Ry
     estimated scf accuracy    <       0.00084581 Ry

     iteration # 13     ecut=    30.00 Ry     beta= 0.50
     Davidson diagonalization with overlap
     ethr =  1.78E-07,  avg # of iterations =  3.0

     total cpu time spent up to now is        5.9 secs

     total energy              =    -500.81298094 Ry
     estimated scf accuracy    <       0.00040790 Ry

     iteration # 14     ecut=    30.00 Ry     beta= 0.50
     Davidson diagonalization with overlap
     ethr =  1.59E-07,  avg # of iterations =  2.0

     total cpu time spent up to now is        6.0 secs

     total energy              =    -500.81300609 Ry
     estimated scf accuracy    <       0.00008118 Ry

     iteration # 15     ecut=    30.00 Ry     beta= 0.50
     Davidson diagonalization with overlap
     ethr =  3.17E-08,  avg # of iterations =  2.0

     total cpu time spent up to now is        6.1 secs

     total energy              =    -500.81301398 Ry
     estimated scf accuracy    <       0.00004916 Ry

     iteration # 16     ecut=    30.00 Ry     beta= 0.50
     Davidson diagonalization with overlap
     ethr =  1.92E-08,  avg # of iterations =  2.0

     total cpu time spent up to now is        6.1 secs

     total energy              =    -500.81301766 Ry
     estimated scf accuracy    <       0.00001240 Ry

     iteration # 17     ecut=    30.00 Ry     beta= 0.50
     Davidson diagonalization with overlap
     ethr =  4.84E-09,  avg # of iterations =  2.0

     total cpu time spent up to now is        6.2 secs

     total energy              =    -500.81301888 Ry
     estimated scf accuracy    <       0.00000238 Ry

     iteration # 18     ecut=    30.00 Ry     beta= 0.50
     Davidson diagonalization with overlap
     ethr =  9.30E-10,  avg # of iterations =  4.0

     total cpu time spent up to now is        6.3 secs

     total energy              =    -500.81301880 Ry
     estimated scf accuracy    <       0.00000940 Ry

     iteration # 19     ecut=    30.00 Ry     beta= 0.50
     Davidson diagonalization with overlap
     ethr =  9.30E-10,  avg # of iterations =  3.0

     total cpu time spent up to now is        6.4 secs

     End of self-consistent calculation

          k = 0.0000 0.0000 0.0000 ( 11492 PWs)   bands (ev):

    -5.9087  -5.3046  -5.0647  -4.9914  -4.6332  -4.4498  -4.4112  -4.0525
    -3.9605  -3.7731  -3.6465  -3.5700  -3.4095  -3.3412  -3.1686  -3.0571
    -3.0358  -2.7466  -2.5923  -2.5230  -2.3288  -2.1463  -1.9852  -1.8598
    -1.7988  -1.6870  -1.5740  -1.4326  -1.1553  -1.0023  -0.9318  -0.7432
    -0.5932  -0.5211  -0.4339  -0.2356  -0.1663  -0.0615  -0.0328   0.0388
     0.1486   0.2138   0.2408   0.3751   0.4608   0.5565   0.5940   0.7186
     0.7860   0.9349   0.9847   1.0718   1.2080   1.2673   1.2932   1.4099
     1.5491   1.5641   1.7441   1.9763   2.0014   2.0671   2.1649   2.3248
     2.3414   2.5265   2.5673   2.6552   2.7122   2.7414   2.8670   2.9551
     2.9951   3.1029   3.2275   3.3168   3.3767   3.4555   3.5832   3.6143
     3.8001   3.9069   3.9722   4.0381   4.1446   4.2666   4.3090   4.4422
     4.5037   4.5440   4.6064   4.6791   4.7518   4.8597   4.8921   4.9842
     5.0950   5.1014   5.1903   5.2627   5.3015   5.3411   5.4381   5.4809
     5.5390   5.6271   5.7135   5.7330   5.7425   5.8558   5.9138   5.9544
     6.0843   6.1460   6.1628   6.2263   6.3310   6.3701   6.4432   6.4490
     6.5070   6.5509   6.5767   6.6850   6.7817   6.8205   6.8635   6.9218
     7.0114   7.0234   7.1592   7.1720   7.2370   7.2932   7.3314   7.3821
     7.4045   7.5243   7.5824   7.6456   7.7018   7.7124   7.8102   7.8737
     7.9111   7.9624   8.0191   8.0792   8.1223   8.1924   8.2910   8.3437
     8.4103   8.4772

     the Fermi energy is     6.9622 ev

!    total energy              =    -500.81301890 Ry
     estimated scf accuracy    <       0.00000062 Ry
     smearing contrib. (-TS)   =      -0.15056099 Ry
     internal energy E=F+TS    =    -500.66245791 Ry

     The total energy is F=E-TS. E is the sum of the following terms:
     one-electron contribution =     160.06511646 Ry
     hartree contribution      =      36.24047579 Ry
     xc contribution           =    -151.41869689 Ry
     ewald contribution        =    -545.54935327 Ry

     convergence has been achieved in  19 iterations

     Forces acting on atoms (cartesian axes, Ry/au):

     atom    1 type  1   force =     0.03534662    0.00787731    0.02748162
     atom    2 type  1   force =     0.04311579   -0.02299718    0.01763269
     atom    3 type  1   force =    -0.01147100   -0.06085140    0.02377924
     atom    4 type  1   force =    -0.02178024   -0.00101352    0.02145358
     atom    5 type  1   force =     0.02401509   -0.02727058   -0.01208116
     atom    6 type  1   force =     0.01242128   -0.00594191    0.03033203
     atom    7 type  1   force =    -0.00627466    0.02924070   -0.01276167
     atom    8 type  1   force =     0.01460112    0.00598696   -0.03336114
     atom    9 type  1   force =     0.04947825   -0.01066694   -0.00028445
     atom   10 type  1   force =     0.03680113    0.01394634   -0.11410776
     atom   11 type  1   force =    -0.02233626   -0.00195839    0.00122668
     atom   12 type  1   force =     0.04121514   -0.04610074    0.01431549
     atom   13 type  1   force =     0.00613392   -0.01041637    0.00178088
     atom   14 type  1   force =    -0.03567833    0.01337590    0.00388797
     atom   15 type  1   force =    -0.01867360    0.02818850    0.03355678
     atom   16 type  1   force =     0.05737393    0.02333661   -0.04377203
     atom   17 type  1   force =    -0.00899190   -0.02727037    0.03598479
     atom   18 type  1   force =     0.03006532   -0.01460814   -0.03246203
     atom   19 type  1   force =     0.04172609    0.05368011   -0.05624895
     atom   20 type  1   force =    -0.01712238   -0.03245600    0.01160919
     atom   21 type  1   force =    -0.00944549   -0.01430322   -0.02721458
     atom   22 type  1   force =     0.02922019    0.03497737    0.02087546
     atom   23 type  1   force =    -0.06448980   -0.02956480   -0.03654856
     atom   24 type  1   force =     0.00417040    0.02930276   -0.12708579
     atom   25 type  1   force =     0.00853195    0.00132465   -0.04235026
     atom   26 type  1   force =     0.05526902   -0.07798641    0.07328027
     atom   27 type  1   force =     0.02908025    0.02135690   -0.01502495
     atom   28 type  1   force =     0.00416124   -0.02921059    0.02105155
     atom   29 type  1   force =    -0.07557728    0.04233883    0.08363186
     atom   30 type  1   force =     0.00976891   -0.00601709   -0.00942214
     atom   31 type  1   force =     0.00150527   -0.00247123   -0.00898861
     atom   32 type  1   force =    -0.01497891    0.00931367   -0.02241133
     atom   33 type  1   force =     0.00975712    0.00515290    0.01197339
     atom   34 type  1   force =     0.14210828   -0.03426965   -0.02325688
     atom   35 type  1   force =    -0.00735704    0.00687991   -0.03498219
     atom   36 type  1   force =     0.01936994    0.00028047   -0.01433916
     atom   37 type  1   force =    -0.05847210    0.03869714    0.05923176
     atom   38 type  1   force =     0.02778927   -0.03437907   -0.00306121
     atom   39 type  1   force =     0.09570859    0.01376273   -0.07125649
     atom   40 type  1   force =    -0.00172812   -0.02908867    0.01676260
     atom   41 type  1   force =    -0.02579462    0.04105318   -0.02359948
     atom   42 type  1   force =    -0.04445352   -0.04410444    0.02476255
     atom   43 type  1   force =     0.02943327    0.03305343   -0.00005207
     atom   44 type  1   force =     0.03139323    0.05897991   -0.07050418
     atom   45 type  1   force =    -0.01109751   -0.01131451   -0.00849350
     atom   46 type  1   force =     0.03348052    0.02003851   -0.03562246
     atom   47 type  1   force =    -0.05237003    0.01025959    0.05079230
     atom   48 type  1   force =    -0.00449233    0.00063127    0.00014241
     atom   49 type  1   force =     0.01984447    0.00968469   -0.00317673
     atom   50 type  1   force =     0.03084809   -0.00628632   -0.02076710
     atom   51 type  1   force =     0.00812608    0.00579723    0.04020534
     atom   52 type  1   force =    -0.03094516    0.01464486    0.05138001
     atom   53 type  1   force =    -0.02312883    0.00754606    0.03848765
     atom   54 type  1   force =    -0.09537405   -0.06912327    0.01950279
     atom   55 type  1   force =    -0.00332626   -0.00691575   -0.01331036
     atom   56 type  1   force =    -0.02544414    0.00608269    0.02771243
     atom   57 type  1   force =    -0.12418747    0.03246739    0.00479381
     atom   58 type  1   force =    -0.02256422    0.03244669    0.05201536
     atom   59 type  1   force =    -0.08022867    0.01143269    0.09072514
     atom   60 type  1   force =    -0.04082758   -0.00338973    0.00369304
     atom   61 type  1   force =    -0.01965736   -0.02410527    0.01385585
     atom   62 type  1   force =    -0.00603679    0.01947703    0.01345745
     atom   63 type  1   force =    -0.00490044   -0.03766710   -0.02495084
     atom   64 type  1   force =     0.00734633    0.03913367    0.00012411

     Total force =     0.517004     Total SCF correction =     0.001576


     Computing stress (Cartesian axis) and pressure

          total   stress  (Ry/bohr**3)                   (kbar)     P=        3.53
   0.00005154  -0.00009156  -0.00002745            7.58      -13.47       -4.04
  -0.00009156  -0.00004443  -0.00001633          -13.47       -6.54       -2.40
  -0.00002745  -0.00001633   0.00006494           -4.04       -2.40        9.55

 
     init_run     :      0.96s CPU      4.43s WALL (       1 calls)
     electrons    :      1.78s CPU      1.93s WALL (       1 calls)
     forces       :      0.03s CPU      0.03s WALL (       1 calls)
     stress       :      0.14s CPU      0.15s WALL (       1 calls)

     Called by init_run:
     wfcinit      :      0.45s CPU      3.75s WALL (       1 calls)
                                        3.75s GPU  (       1 calls)
     potinit      :      0.03s CPU      0.13s WALL (       1 calls)
     hinit0       :      0.45s CPU      0.48s WALL (       1 calls)

     Called by electrons:
     c_bands      :      1.14s CPU      1.21s WALL (      20 calls)
     sum_band     :      0.33s CPU      0.37s WALL (      20 calls)
     v_of_rho     :      0.13s CPU      0.24s WALL (      20 calls)
     mix_rho      :      0.15s CPU      0.17s WALL (      20 calls)

     Called by c_bands:
     init_us_2    :      0.05s CPU      0.05s WALL (      41 calls)
     init_us_2:gp :      0.05s CPU      0.05s WALL (      41 calls)
     regterg      :      0.99s CPU      1.06s WALL (      20 calls)

     Called by *egterg:
     rdiaghg      :      0.42s CPU      1.09s WALL (      89 calls)
                                        1.07s GPU  (      89 calls)
     h_psi        :      0.85s CPU      3.53s WALL (      91 calls)
                                        3.53s GPU  (      91 calls)
     g_psi        :      0.00s CPU      0.00s WALL (      70 calls)
                                        0.00s GPU  (      70 calls)

     Called by h_psi:
     h_psi:calbec :      0.44s CPU      3.04s WALL (      91 calls)
                                        3.04s GPU  (      91 calls)
     vloc_psi     :      0.37s CPU      0.43s WALL (      91 calls)
                                        0.43s GPU  (      91 calls)
     add_vuspsi   :      0.03s CPU      0.05s WALL (      91 calls)
                                        0.05s GPU  (      91 calls)

     General routines
     calbec       :      0.44s CPU      3.04s WALL (      96 calls)
     fft          :      0.55s CPU      0.68s WALL (     167 calls)
                                        0.12s GPU  (     106 calls)
     ffts         :      0.03s CPU      0.04s WALL (      20 calls)
     fftw         :      0.45s CPU      0.59s WALL (    2112 calls)
                                        0.51s GPU  (    2112 calls)
 
     Parallel routines
 
     PWSCF        :      2.94s CPU      6.62s WALL

 
   This run was terminated on:  12:10:26  11May2023            

=------------------------------------------------------------------------------=
   JOB DONE.
=------------------------------------------------------------------------------=
