An instance of this daemon is already running
An instance of this daemon is already running

     Program PWSCF v.7.1 starts on 11May2023 at 12: 4:25 

     This program is part of the open-source Quantum ESPRESSO suite
     for quantum simulation of materials; please cite
         "P. Giannozzi et al., J. Phys.:Condens. Matter 21 395502 (2009);
         "P. Giannozzi et al., J. Phys.:Condens. Matter 29 465901 (2017);
         "P. Giannozzi et al., J. Chem. Phys. 152 154105 (2020);
          URL http://www.quantum-espresso.org", 
     in publications or presentations arising from this work. More details at
     http://www.quantum-espresso.org/quote

     Parallel version (MPI & OpenMP), running on       4 processor cores
     Number of MPI processes:                 4
     Threads/MPI process:                     1

     MPI processes distributed on     1 nodes
     636541 MiB available memory on the printing compute node when the environment starts
 
     Reading input from pw-si-8.in
Warning: card &CELL ignored
Warning: card / ignored

     Current dimensions of program PWSCF are:
     Max number of different atomic species (ntypx) = 10
     Max number of k-points (npk) =  40000
     Max angular momentum in pseudopotentials (lmaxx) =  4

     IMPORTANT: XC functional enforced from input :
     Exchange-correlation= PBE
                           (   1   4   3   4   0   0   0)
     Any further DFT definition will be discarded
     Please, verify this is what you really want


     gamma-point specific algorithms are used
 
     K-points division:     npool     =       2
     R & G space division:  proc/nbgrp/npool/nimage =       2
     Subspace diagonalization in iterative solution of the eigenvalue problem:
     a serial algorithm will be used

     Message from routine divide_et_impera:
     suboptimal parallelization: some nodes have no k-points
 
     Parallelization info
     --------------------
     sticks:   dense  smooth     PW     G-vecs:    dense   smooth      PW
     Min        1984    1984    519                93503    93503   12703
     Max        1985    1985    522                93504    93504   12710
     Sum        3969    3969   1041               187007   187007   25413
 
     Using Slab Decomposition
 


     bravais-lattice index     =            0
     lattice parameter (alat)  =      20.3505  a.u.
     unit-cell volume          =    8427.9904 (a.u.)^3
     number of atoms/cell      =           64
     number of atomic types    =            1
     number of electrons       =       256.00
     number of Kohn-Sham states=          154
     kinetic-energy cutoff     =      30.0000  Ry
     charge density cutoff     =     120.0000  Ry
     scf convergence threshold =      1.0E-06
     mixing beta               =       0.5000
     number of iterations used =            8  plain     mixing
     Exchange-correlation= PBE
                           (   1   4   3   4   0   0   0)

     GPU acceleration is ACTIVE.
     GPU-aware MPI enabled

     Message from routine print_cuda_info:
     High GPU oversubscription detected. Are you sure this is what you want?

     celldm(1)=  20.350481  celldm(2)=   0.000000  celldm(3)=   0.000000
     celldm(4)=   0.000000  celldm(5)=   0.000000  celldm(6)=   0.000000

     crystal axes: (cart. coord. in units of alat)
               a(1) = (   1.000000   0.000000   0.000000 )  
               a(2) = (   0.000000   1.000000   0.000000 )  
               a(3) = (   0.000000   0.000000   1.000000 )  

     reciprocal axes: (cart. coord. in units 2 pi/alat)
               b(1) = (  1.000000  0.000000  0.000000 )  
               b(2) = (  0.000000  1.000000  0.000000 )  
               b(3) = (  0.000000  0.000000  1.000000 )  


     PseudoPot. # 1 for Si read from file:
     /home/ppiaggi/pseudos/Si_ONCV_PBE_sr.upf
     MD5 check sum: 8553c464762ac42b85b1eed164b4d029
     Pseudo is Norm-conserving, Zval =  4.0
     Generated using ONCVPSP code by D. R. Hamann
     Using radial grid of 1510 points,  4 beta functions with: 
                l(1) =   0
                l(2) =   0
                l(3) =   1
                l(4) =   1

     atomic species   valence    mass     pseudopotential
        Si             4.00    28.08500     Si( 1.00)

     No symmetry found



   Cartesian axes

     site n.     atom                  positions (alat units)
         1           Si  tau(   1) = (   0.1042110   0.2854260   0.5057590  )
         2           Si  tau(   2) = (   0.2758930   0.8385780   0.5205010  )
         3           Si  tau(   3) = (   0.6134790   0.2638320   0.8714710  )
         4           Si  tau(   4) = (   0.5588310   0.1080190   0.0190015  )
         5           Si  tau(   5) = (   0.3418580   0.2166460   0.9613230  )
         6           Si  tau(   6) = (   0.2568180   0.9834860   0.2877980  )
         7           Si  tau(   7) = (   0.2567670   0.1780470   0.5684030  )
         8           Si  tau(   8) = (   0.6835070   0.2694880   0.1777290  )
         9           Si  tau(   9) = (   0.5299810   0.9607970   0.7492220  )
        10           Si  tau(  10) = (   0.9654690   0.0330239   0.3586980  )
        11           Si  tau(  11) = (   0.1945650   0.5078050   0.3774400  )
        12           Si  tau(  12) = (   0.8003440   0.6559570   0.0212469  )
        13           Si  tau(  13) = (   0.7936790   0.6720910   0.8043790  )
        14           Si  tau(  14) = (   0.8839300   0.3654690   0.3817400  )
        15           Si  tau(  15) = (   0.3805700   0.6316060   0.8343090  )
        16           Si  tau(  16) = (   0.3693510   0.5552560   0.4975560  )
        17           Si  tau(  17) = (   0.5926400   0.6202480   0.9072210  )
        18           Si  tau(  18) = (   0.9665220   0.0540102   0.0475301  )
        19           Si  tau(  19) = (   0.5741140   0.3717670   0.5125000  )
        20           Si  tau(  20) = (   0.9802190   0.3850110   0.2147030  )
        21           Si  tau(  21) = (   0.6083600   0.9410220   0.5472100  )
        22           Si  tau(  22) = (   0.8765350   0.8529860   0.7068850  )
        23           Si  tau(  23) = (   0.9418200   0.2437970   0.6772010  )
        24           Si  tau(  24) = (   0.5417830   0.7845210   0.2078980  )
        25           Si  tau(  25) = (   0.8467650   0.9051570   0.2069060  )
        26           Si  tau(  26) = (   0.8472580   0.6050690   0.2512930  )
        27           Si  tau(  27) = (   0.6468140   0.0489436   0.2528820  )
        28           Si  tau(  28) = (   0.1105360   0.1542100   0.1829890  )
        29           Si  tau(  29) = (   0.4706850   0.9071130   0.3735000  )
        30           Si  tau(  30) = (   0.9444630   0.8160520   0.4884060  )
        31           Si  tau(  31) = (   0.4747600   0.4061030   0.9172170  )
        32           Si  tau(  32) = (   0.1117030   0.6701890   0.1347640  )
        33           Si  tau(  33) = (   0.2417040   0.7249630   0.9731220  )
        34           Si  tau(  34) = (   0.0479339   0.6706710   0.7504090  )
        35           Si  tau(  35) = (   0.7519980   0.7311700   0.5814050  )
        36           Si  tau(  36) = (   0.1467210   0.7191810   0.4135330  )
        37           Si  tau(  37) = (   0.3641310   0.8277100   0.7266910  )
        38           Si  tau(  38) = (   0.1195140   0.8829880   0.7274300  )
        39           Si  tau(  39) = (   0.5520390   0.5876660   0.6306010  )
        40           Si  tau(  40) = (   0.0776300   0.0326961   0.5759950  )
        41           Si  tau(  41) = (   0.8971820   0.1318070   0.8538200  )
        42           Si  tau(  42) = (   0.6811620   0.6965200   0.3762830  )
        43           Si  tau(  43) = (   0.2180890   0.3434490   0.2671900  )
        44           Si  tau(  44) = (   0.8328120   0.3327800   0.0231758  )
        45           Si  tau(  45) = (   0.0668333   0.8567790   0.2562450  )
        46           Si  tau(  46) = (   0.8222950   0.1001570   0.5148270  )
        47           Si  tau(  47) = (   0.4624610   0.2146880   0.3868200  )
        48           Si  tau(  48) = (   0.4434890   0.4210970   0.2966880  )
        49           Si  tau(  49) = (   0.4750150   0.3145890   0.7059420  )
        50           Si  tau(  50) = (   0.8862810   0.5726610   0.5176040  )
        51           Si  tau(  51) = (   0.3126770   0.4609230   0.6939550  )
        52           Si  tau(  52) = (   0.7207580   0.2573800   0.6806880  )
        53           Si  tau(  53) = (   0.6872540   0.8521070   0.0515388  )
        54           Si  tau(  54) = (   0.3864090   0.1191240   0.7531620  )
        55           Si  tau(  55) = (   0.4309100   0.6493240   0.1007210  )
        56           Si  tau(  56) = (   0.2075730   0.3837890   0.8984620  )
        57           Si  tau(  57) = (   0.7170130   0.9775080   0.8684220  )
        58           Si  tau(  58) = (   0.3272620   0.3979870   0.0873148  )
        59           Si  tau(  59) = (   0.1734460   0.9286690   0.0463812  )
        60           Si  tau(  60) = (   0.0740493   0.4929930   0.6524890  )
        61           Si  tau(  61) = (   0.3645970   0.0170558   0.0838778  )
        62           Si  tau(  62) = (   0.6743820   0.4745550   0.3051710  )
        63           Si  tau(  63) = (   0.9740240   0.4947440   0.9771280  )
        64           Si  tau(  64) = (   0.7503540   0.4994610   0.6751230  )

     number of k points=     1  Fermi-Dirac smearing, width (Ry)=  0.0100
                       cart. coord. in units 2pi/alat
        k(    1) = (   0.0000000   0.0000000   0.0000000), wk =   2.0000000

     Dense  grid:    93504 G-vectors     FFT dimensions: (  72,  72,  72)

     Estimated max dynamical RAM per process >     149.64 MB

     Estimated total dynamical RAM >     575.72 MB

     Initial potential from superposition of free atoms

     starting charge     255.9608, renormalised to     256.0000
     Starting wfcs are  256 randomized atomic wfcs

     total cpu time spent up to now is        4.5 secs

     Self-consistent Calculation

     iteration #  1     ecut=    30.00 Ry     beta= 0.50
     Davidson diagonalization with overlap
     ethr =  1.00E-02,  avg # of iterations =  3.0

     Threshold (ethr) on eigenvalues was too large:
     Diagonalizing with lowered threshold

     Davidson diagonalization with overlap
     ethr =  5.51E-04,  avg # of iterations =  4.0

     total cpu time spent up to now is        4.7 secs

     total energy              =    -500.65164732 Ry
     estimated scf accuracy    <       1.80706602 Ry

     iteration #  2     ecut=    30.00 Ry     beta= 0.50
     Davidson diagonalization with overlap
     ethr =  7.06E-04,  avg # of iterations =  4.0

     total cpu time spent up to now is        4.8 secs

     total energy              =    -499.91979126 Ry
     estimated scf accuracy    <       9.87985168 Ry

     iteration #  3     ecut=    30.00 Ry     beta= 0.50
     Davidson diagonalization with overlap
     ethr =  7.06E-04,  avg # of iterations =  4.0

     total cpu time spent up to now is        4.9 secs

     total energy              =    -500.83104591 Ry
     estimated scf accuracy    <       2.98112637 Ry

     iteration #  4     ecut=    30.00 Ry     beta= 0.50
     Davidson diagonalization with overlap
     ethr =  7.06E-04,  avg # of iterations =  2.0

     total cpu time spent up to now is        5.0 secs

     total energy              =    -501.07935259 Ry
     estimated scf accuracy    <       0.73420487 Ry

     iteration #  5     ecut=    30.00 Ry     beta= 0.50
     Davidson diagonalization with overlap
     ethr =  2.87E-04,  avg # of iterations =  2.0

     total cpu time spent up to now is        5.1 secs

     total energy              =    -501.11630530 Ry
     estimated scf accuracy    <       0.34353413 Ry

     iteration #  6     ecut=    30.00 Ry     beta= 0.50
     Davidson diagonalization with overlap
     ethr =  1.34E-04,  avg # of iterations =  2.0

     total cpu time spent up to now is        5.2 secs

     total energy              =    -501.15485294 Ry
     estimated scf accuracy    <       0.13346849 Ry

     iteration #  7     ecut=    30.00 Ry     beta= 0.50
     Davidson diagonalization with overlap
     ethr =  5.21E-05,  avg # of iterations =  2.0

     total cpu time spent up to now is        5.3 secs

     total energy              =    -501.16296142 Ry
     estimated scf accuracy    <       0.04629304 Ry

     iteration #  8     ecut=    30.00 Ry     beta= 0.50
     Davidson diagonalization with overlap
     ethr =  1.81E-05,  avg # of iterations =  3.0

     total cpu time spent up to now is        5.4 secs

     total energy              =    -501.16835820 Ry
     estimated scf accuracy    <       0.01921054 Ry

     iteration #  9     ecut=    30.00 Ry     beta= 0.50
     Davidson diagonalization with overlap
     ethr =  7.50E-06,  avg # of iterations = 12.0

     total cpu time spent up to now is        5.5 secs

     total energy              =    -501.17002688 Ry
     estimated scf accuracy    <       0.00224823 Ry

     iteration # 10     ecut=    30.00 Ry     beta= 0.50
     Davidson diagonalization with overlap
     ethr =  8.78E-07,  avg # of iterations = 10.0

     total cpu time spent up to now is        5.6 secs

     total energy              =    -501.17029264 Ry
     estimated scf accuracy    <       0.00141123 Ry

     iteration # 11     ecut=    30.00 Ry     beta= 0.50
     Davidson diagonalization with overlap
     ethr =  5.51E-07,  avg # of iterations =  2.0

     total cpu time spent up to now is        5.7 secs

     total energy              =    -501.17039147 Ry
     estimated scf accuracy    <       0.00119166 Ry

     iteration # 12     ecut=    30.00 Ry     beta= 0.50
     Davidson diagonalization with overlap
     ethr =  4.65E-07,  avg # of iterations =  2.0

     total cpu time spent up to now is        5.8 secs

     total energy              =    -501.17049914 Ry
     estimated scf accuracy    <       0.00019601 Ry

     iteration # 13     ecut=    30.00 Ry     beta= 0.50
     Davidson diagonalization with overlap
     ethr =  7.66E-08,  avg # of iterations =  2.0

     total cpu time spent up to now is        5.9 secs

     total energy              =    -501.17052150 Ry
     estimated scf accuracy    <       0.00011807 Ry

     iteration # 14     ecut=    30.00 Ry     beta= 0.50
     Davidson diagonalization with overlap
     ethr =  4.61E-08,  avg # of iterations =  1.0

     total cpu time spent up to now is        6.0 secs

     total energy              =    -501.17053217 Ry
     estimated scf accuracy    <       0.00001655 Ry

     iteration # 15     ecut=    30.00 Ry     beta= 0.50
     Davidson diagonalization with overlap
     ethr =  6.46E-09,  avg # of iterations =  3.0

     total cpu time spent up to now is        6.1 secs

     total energy              =    -501.17053381 Ry
     estimated scf accuracy    <       0.00001041 Ry

     iteration # 16     ecut=    30.00 Ry     beta= 0.50
     Davidson diagonalization with overlap
     ethr =  4.07E-09,  avg # of iterations =  3.0

     total cpu time spent up to now is        6.1 secs

     total energy              =    -501.17053474 Ry
     estimated scf accuracy    <       0.00000845 Ry

     iteration # 17     ecut=    30.00 Ry     beta= 0.50
     Davidson diagonalization with overlap
     ethr =  3.30E-09,  avg # of iterations =  2.0

     total cpu time spent up to now is        6.2 secs

     total energy              =    -501.17053533 Ry
     estimated scf accuracy    <       0.00000279 Ry

     iteration # 18     ecut=    30.00 Ry     beta= 0.50
     Davidson diagonalization with overlap
     ethr =  1.09E-09,  avg # of iterations =  2.0

     total cpu time spent up to now is        6.3 secs

     End of self-consistent calculation

          k = 0.0000 0.0000 0.0000 ( 11720 PWs)   bands (ev):

    -6.1139  -5.6662  -5.2423  -4.8484  -4.6343  -4.5748  -4.3693  -4.2351
    -4.1238  -3.9561  -3.8140  -3.7397  -3.5110  -3.4391  -3.3723  -3.2502
    -3.1371  -3.0040  -2.9421  -2.7857  -2.6785  -2.5277  -2.3916  -2.2322
    -2.0237  -1.8589  -1.8151  -1.4625  -1.3364  -1.2588  -1.2416  -1.1865
    -0.9145  -0.6851  -0.6153  -0.5492  -0.5081  -0.4067  -0.2496  -0.1996
    -0.1366  -0.0477   0.0233   0.1709   0.2793   0.3119   0.4089   0.5774
     0.6327   0.6978   0.7009   0.8593   0.9539   1.0948   1.1188   1.2679
     1.3412   1.4129   1.5149   1.5425   1.7620   1.9153   1.9975   2.0227
     2.1855   2.3067   2.3251   2.3966   2.6185   2.6597   2.6997   2.7820
     2.8645   2.9269   3.0288   3.0725   3.1665   3.1991   3.2818   3.3398
     3.4376   3.6213   3.7090   3.8252   3.9796   4.0677   4.1412   4.2635
     4.3026   4.3356   4.3475   4.4736   4.5092   4.5993   4.6511   4.7368
     4.8065   4.8446   4.9592   4.9765   5.0103   5.0503   5.1015   5.1329
     5.1728   5.2562   5.3666   5.4289   5.4514   5.5047   5.6312   5.6506
     5.7352   5.7907   5.8234   5.8906   5.9142   6.0515   6.1120   6.1415
     6.1996   6.2972   6.3551   6.3708   6.5047   6.5121   6.5828   6.6568
     6.6723   6.7820   6.8815   6.9061   6.9690   7.0023   7.1436   7.1688
     7.2062   7.2656   7.3587   7.4836   7.5245   7.5760   7.6048   7.7335
     7.7821   7.8412   7.9381   7.9625   7.9847   8.0350   8.1101   8.2144
     8.3200   8.3242

     the Fermi energy is     6.6842 ev

!    total energy              =    -501.17053522 Ry
     estimated scf accuracy    <       0.00000060 Ry
     smearing contrib. (-TS)   =      -0.14098598 Ry
     internal energy E=F+TS    =    -501.02954924 Ry

     The total energy is F=E-TS. E is the sum of the following terms:
     one-electron contribution =     150.29523508 Ry
     hartree contribution      =      38.75218385 Ry
     xc contribution           =    -151.26096564 Ry
     ewald contribution        =    -538.81600253 Ry

     convergence has been achieved in  18 iterations

     Forces acting on atoms (cartesian axes, Ry/au):

     atom    1 type  1   force =    -0.10007418    0.09009732   -0.04638922
     atom    2 type  1   force =     0.06173185    0.02831949    0.02522353
     atom    3 type  1   force =     0.07352096   -0.04466653    0.01712068
     atom    4 type  1   force =     0.01732803   -0.00446930    0.02166375
     atom    5 type  1   force =     0.01021382   -0.06095252   -0.00890159
     atom    6 type  1   force =     0.02350085    0.02839214   -0.01439825
     atom    7 type  1   force =     0.10901581   -0.09188810    0.02594769
     atom    8 type  1   force =     0.00303375   -0.00696270    0.01026978
     atom    9 type  1   force =     0.01085449    0.01629684   -0.01030397
     atom   10 type  1   force =     0.01049614    0.01395976    0.01314391
     atom   11 type  1   force =    -0.01805741    0.06516279    0.05986383
     atom   12 type  1   force =    -0.00703323   -0.01500659    0.03137761
     atom   13 type  1   force =     0.01990973   -0.00039519    0.01608892
     atom   14 type  1   force =    -0.09395162   -0.00010328    0.13782805
     atom   15 type  1   force =     0.01037453   -0.00712685   -0.04378831
     atom   16 type  1   force =     0.02798912    0.00234183   -0.00428472
     atom   17 type  1   force =    -0.02245959   -0.01653595    0.02570486
     atom   18 type  1   force =     0.01230555   -0.02399005    0.00647106
     atom   19 type  1   force =     0.01026975   -0.00284628    0.00709627
     atom   20 type  1   force =     0.07427193    0.01846280   -0.15510706
     atom   21 type  1   force =     0.04560961   -0.00342050   -0.01963278
     atom   22 type  1   force =     0.02804723    0.02771983    0.04365542
     atom   23 type  1   force =     0.02086576   -0.00166801   -0.02806613
     atom   24 type  1   force =     0.04279050    0.02634487    0.03534290
     atom   25 type  1   force =     0.00602444    0.02732624   -0.02802910
     atom   26 type  1   force =     0.02038216   -0.00986457   -0.01872994
     atom   27 type  1   force =    -0.00263827    0.03335290   -0.01882366
     atom   28 type  1   force =     0.02039596    0.01037895    0.04550466
     atom   29 type  1   force =    -0.03913283    0.01737898    0.01302930
     atom   30 type  1   force =     0.00646252   -0.00200939   -0.01646065
     atom   31 type  1   force =    -0.01938212    0.08228424    0.01024469
     atom   32 type  1   force =    -0.03882331   -0.02211111    0.01935608
     atom   33 type  1   force =     0.00201804    0.01224344    0.00964736
     atom   34 type  1   force =    -0.02874288    0.05388176    0.04080850
     atom   35 type  1   force =    -0.08642939    0.02057803   -0.02974096
     atom   36 type  1   force =    -0.04154772   -0.03078852   -0.02674737
     atom   37 type  1   force =    -0.04040725   -0.02516256   -0.00422100
     atom   38 type  1   force =     0.01319959   -0.01378256    0.00977578
     atom   39 type  1   force =     0.00261052    0.00843954   -0.01068056
     atom   40 type  1   force =     0.00978318    0.01807052   -0.02853300
     atom   41 type  1   force =    -0.03491717   -0.00138551    0.04802231
     atom   42 type  1   force =    -0.00958068    0.00192855   -0.02543419
     atom   43 type  1   force =    -0.02995744   -0.10443784   -0.03745869
     atom   44 type  1   force =     0.00438096   -0.04349817   -0.01232871
     atom   45 type  1   force =     0.00336082   -0.02377038   -0.02904457
     atom   46 type  1   force =    -0.02600385    0.00033598    0.01515634
     atom   47 type  1   force =    -0.01966129   -0.01507391    0.02335823
     atom   48 type  1   force =     0.00612938    0.03449182    0.00016480
     atom   49 type  1   force =    -0.00787771    0.00808236   -0.04045622
     atom   50 type  1   force =     0.04541933   -0.05175846   -0.02257491
     atom   51 type  1   force =    -0.04198139    0.02912832    0.02766855
     atom   52 type  1   force =     0.00837110    0.02399489   -0.02183229
     atom   53 type  1   force =     0.01394588   -0.00766663    0.01091559
     atom   54 type  1   force =    -0.02819028    0.02670183   -0.00199885
     atom   55 type  1   force =    -0.04307954   -0.05043217   -0.04245023
     atom   56 type  1   force =    -0.03338253    0.03021378   -0.01720607
     atom   57 type  1   force =     0.01194945    0.01044402    0.00970345
     atom   58 type  1   force =     0.02962139    0.03731089    0.01568120
     atom   59 type  1   force =    -0.03404799   -0.01320404   -0.00882306
     atom   60 type  1   force =     0.01888790   -0.06886495   -0.04403219
     atom   61 type  1   force =     0.00033800    0.02138888    0.01884561
     atom   62 type  1   force =    -0.00562960   -0.03495097    0.02089597
     atom   63 type  1   force =     0.03413873    0.00777789    0.00591838
     atom   64 type  1   force =    -0.01655948   -0.03403789   -0.00501685

     Total force =     0.498746     Total SCF correction =     0.001493


     Computing stress (Cartesian axis) and pressure

          total   stress  (Ry/bohr**3)                   (kbar)     P=       -7.49
  -0.00007213  -0.00002356   0.00001137          -10.61       -3.47        1.67
  -0.00002356  -0.00007838   0.00008692           -3.47      -11.53       12.79
   0.00001137   0.00008692  -0.00000233            1.67       12.79       -0.34

 
     init_run     :      0.96s CPU      4.45s WALL (       1 calls)
     electrons    :      1.68s CPU      1.79s WALL (       1 calls)
     forces       :      0.03s CPU      0.03s WALL (       1 calls)
     stress       :      0.14s CPU      0.15s WALL (       1 calls)

     Called by init_run:
     wfcinit      :      0.45s CPU      3.78s WALL (       1 calls)
                                        3.78s GPU  (       1 calls)
     potinit      :      0.03s CPU      0.12s WALL (       1 calls)
     hinit0       :      0.45s CPU      0.48s WALL (       1 calls)

     Called by electrons:
     c_bands      :      1.04s CPU      1.10s WALL (      19 calls)
     sum_band     :      0.33s CPU      0.35s WALL (      19 calls)
     v_of_rho     :      0.13s CPU      0.23s WALL (      19 calls)
     mix_rho      :      0.14s CPU      0.16s WALL (      19 calls)

     Called by c_bands:
     init_us_2    :      0.05s CPU      0.05s WALL (      39 calls)
     init_us_2:gp :      0.05s CPU      0.05s WALL (      39 calls)
     regterg      :      0.90s CPU      0.95s WALL (      19 calls)

     Called by *egterg:
     rdiaghg      :      0.37s CPU      1.05s WALL (      83 calls)
                                        1.03s GPU  (      83 calls)
     h_psi        :      0.82s CPU      3.51s WALL (      85 calls)
                                        3.50s GPU  (      85 calls)
     g_psi        :      0.00s CPU      0.00s WALL (      65 calls)
                                        0.00s GPU  (      65 calls)

     Called by h_psi:
     h_psi:calbec :      0.43s CPU      3.04s WALL (      85 calls)
                                        3.04s GPU  (      85 calls)
     vloc_psi     :      0.35s CPU      0.41s WALL (      85 calls)
                                        0.41s GPU  (      85 calls)
     add_vuspsi   :      0.03s CPU      0.05s WALL (      85 calls)
                                        0.05s GPU  (      85 calls)

     General routines
     calbec       :      0.43s CPU      3.05s WALL (      90 calls)
     fft          :      0.56s CPU      0.68s WALL (     159 calls)
                                        0.12s GPU  (     101 calls)
     ffts         :      0.04s CPU      0.04s WALL (      19 calls)
     fftw         :      0.43s CPU      0.56s WALL (    1999 calls)
                                        0.49s GPU  (    1999 calls)
 
     Parallel routines
 
     PWSCF        :      2.84s CPU      6.50s WALL

 
   This run was terminated on:  12: 4:32  11May2023            

=------------------------------------------------------------------------------=
   JOB DONE.
=------------------------------------------------------------------------------=
