An instance of this daemon is already running

     Program PWSCF v.7.1 starts on 11May2023 at 12: 5:36 

     This program is part of the open-source Quantum ESPRESSO suite
     for quantum simulation of materials; please cite
         "P. Giannozzi et al., J. Phys.:Condens. Matter 21 395502 (2009);
         "P. Giannozzi et al., J. Phys.:Condens. Matter 29 465901 (2017);
         "P. Giannozzi et al., J. Chem. Phys. 152 154105 (2020);
          URL http://www.quantum-espresso.org", 
     in publications or presentations arising from this work. More details at
     http://www.quantum-espresso.org/quote

     Parallel version (MPI & OpenMP), running on       4 processor cores
     Number of MPI processes:                 4
     Threads/MPI process:                     1

     MPI processes distributed on     1 nodes
     636786 MiB available memory on the printing compute node when the environment starts
 
     Reading input from pw-si-16.in
Warning: card &CELL ignored
Warning: card / ignored

     Current dimensions of program PWSCF are:
     Max number of different atomic species (ntypx) = 10
     Max number of k-points (npk) =  40000
     Max angular momentum in pseudopotentials (lmaxx) =  4

     IMPORTANT: XC functional enforced from input :
     Exchange-correlation= PBE
                           (   1   4   3   4   0   0   0)
     Any further DFT definition will be discarded
     Please, verify this is what you really want


     gamma-point specific algorithms are used
 
     K-points division:     npool     =       2
     R & G space division:  proc/nbgrp/npool/nimage =       2
     Subspace diagonalization in iterative solution of the eigenvalue problem:
     a serial algorithm will be used

     Message from routine divide_et_impera:
     suboptimal parallelization: some nodes have no k-points
 
     Parallelization info
     --------------------
     sticks:   dense  smooth     PW     G-vecs:    dense   smooth      PW
     Min        1915    1915    502                89270    89270   12102
     Max        1918    1918    503                89271    89271   12105
     Sum        3833    3833   1005               178541   178541   24207
 
     Using Slab Decomposition
 


     bravais-lattice index     =            0
     lattice parameter (alat)  =      20.0379  a.u.
     unit-cell volume          =    8045.5713 (a.u.)^3
     number of atoms/cell      =           64
     number of atomic types    =            1
     number of electrons       =       256.00
     number of Kohn-Sham states=          154
     kinetic-energy cutoff     =      30.0000  Ry
     charge density cutoff     =     120.0000  Ry
     scf convergence threshold =      1.0E-06
     mixing beta               =       0.5000
     number of iterations used =            8  plain     mixing
     Exchange-correlation= PBE
                           (   1   4   3   4   0   0   0)

     GPU acceleration is ACTIVE.
     GPU-aware MPI enabled

     Message from routine print_cuda_info:
     High GPU oversubscription detected. Are you sure this is what you want?

     celldm(1)=  20.037904  celldm(2)=   0.000000  celldm(3)=   0.000000
     celldm(4)=   0.000000  celldm(5)=   0.000000  celldm(6)=   0.000000

     crystal axes: (cart. coord. in units of alat)
               a(1) = (   1.000000   0.000000   0.000000 )  
               a(2) = (   0.000000   1.000000   0.000000 )  
               a(3) = (   0.000000   0.000000   1.000000 )  

     reciprocal axes: (cart. coord. in units 2 pi/alat)
               b(1) = (  1.000000  0.000000  0.000000 )  
               b(2) = (  0.000000  1.000000  0.000000 )  
               b(3) = (  0.000000  0.000000  1.000000 )  


     PseudoPot. # 1 for Si read from file:
     /home/ppiaggi/pseudos/Si_ONCV_PBE_sr.upf
     MD5 check sum: 8553c464762ac42b85b1eed164b4d029
     Pseudo is Norm-conserving, Zval =  4.0
     Generated using ONCVPSP code by D. R. Hamann
     Using radial grid of 1510 points,  4 beta functions with: 
                l(1) =   0
                l(2) =   0
                l(3) =   1
                l(4) =   1

     atomic species   valence    mass     pseudopotential
        Si             4.00    28.08500     Si( 1.00)

     No symmetry found



   Cartesian axes

     site n.     atom                  positions (alat units)
         1           Si  tau(   1) = (   0.0701504   0.3588390   0.3848500  )
         2           Si  tau(   2) = (   0.2807790   0.8936620   0.5284990  )
         3           Si  tau(   3) = (   0.6604130   0.2634800   0.9225830  )
         4           Si  tau(   4) = (   0.5808340   0.0597929   0.0714320  )
         5           Si  tau(   5) = (   0.3037870   0.2161950   0.9425400  )
         6           Si  tau(   6) = (   0.2945310   0.9860950   0.3172980  )
         7           Si  tau(   7) = (   0.2792490   0.2193360   0.5184900  )
         8           Si  tau(   8) = (   0.6490290   0.2462030   0.1530000  )
         9           Si  tau(   9) = (   0.5058920   0.9708160   0.7129140  )
        10           Si  tau(  10) = (   0.0194969   0.0090080   0.4359630  )
        11           Si  tau(  11) = (   0.1916440   0.5151920   0.2832160  )
        12           Si  tau(  12) = (   0.7629140   0.6184690   0.0789113  )
        13           Si  tau(  13) = (   0.8255040   0.6942120   0.7838980  )
        14           Si  tau(  14) = (   0.8150850   0.3621000   0.4498130  )
        15           Si  tau(  15) = (   0.3238930   0.5902690   0.7946520  )
        16           Si  tau(  16) = (   0.3752460   0.5662310   0.4795470  )
        17           Si  tau(  17) = (   0.6535690   0.6084840   0.8599170  )
        18           Si  tau(  18) = (   0.9641070   0.0724500   0.0041756  )
        19           Si  tau(  19) = (   0.5886370   0.3537360   0.5279350  )
        20           Si  tau(  20) = (   0.0535638   0.4069700   0.1006600  )
        21           Si  tau(  21) = (   0.6279410   0.9560330   0.5443640  )
        22           Si  tau(  22) = (   0.8196690   0.9532650   0.6880380  )
        23           Si  tau(  23) = (   0.9769560   0.2497370   0.5795650  )
        24           Si  tau(  24) = (   0.4989130   0.7555740   0.2385180  )
        25           Si  tau(  25) = (   0.8581380   0.9749960   0.2162390  )
        26           Si  tau(  26) = (   0.8934690   0.6245860   0.3061260  )
        27           Si  tau(  27) = (   0.7120050   0.1104990   0.3581520  )
        28           Si  tau(  28) = (   0.0628916   0.1073310   0.2371320  )
        29           Si  tau(  29) = (   0.4810650   0.8840290   0.4119040  )
        30           Si  tau(  30) = (   0.9339060   0.7766470   0.4931290  )
        31           Si  tau(  31) = (   0.5069090   0.4224920   0.9246540  )
        32           Si  tau(  32) = (   0.0443488   0.6316330   0.1384430  )
        33           Si  tau(  33) = (   0.2053150   0.7109660   0.9916570  )
        34           Si  tau(  34) = (   0.0664638   0.7098340   0.8394970  )
        35           Si  tau(  35) = (   0.7288420   0.7263220   0.5832360  )
        36           Si  tau(  36) = (   0.1530970   0.7512870   0.4247410  )
        37           Si  tau(  37) = (   0.3732650   0.8082350   0.7760320  )
        38           Si  tau(  38) = (   0.1411280   0.8032850   0.6842130  )
        39           Si  tau(  39) = (   0.5216030   0.6284990   0.6522430  )
        40           Si  tau(  40) = (   0.1276220   0.0795482   0.6197520  )
        41           Si  tau(  41) = (   0.8224190   0.1247920   0.8315300  )
        42           Si  tau(  42) = (   0.7253700   0.7399200   0.3517730  )
        43           Si  tau(  43) = (   0.2228910   0.2810940   0.2228350  )
        44           Si  tau(  44) = (   0.8556420   0.3423740   0.0426471  )
        45           Si  tau(  45) = (   0.0927676   0.8537500   0.1806870  )
        46           Si  tau(  46) = (   0.8353970   0.0844688   0.5174130  )
        47           Si  tau(  47) = (   0.4796110   0.1731430   0.4253400  )
        48           Si  tau(  48) = (   0.4507170   0.3970060   0.3461390  )
        49           Si  tau(  49) = (   0.4483800   0.3090600   0.7250260  )
        50           Si  tau(  50) = (   0.0428123   0.5517980   0.4762730  )
        51           Si  tau(  51) = (   0.2451770   0.4273420   0.6681260  )
        52           Si  tau(  52) = (   0.7530020   0.3050910   0.7088810  )
        53           Si  tau(  53) = (   0.6395500   0.8393350   0.0985581  )
        54           Si  tau(  54) = (   0.3155090   0.1103290   0.7466970  )
        55           Si  tau(  55) = (   0.3920390   0.6426420   0.0835650  )
        56           Si  tau(  56) = (   0.1442400   0.3656760   0.8899280  )
        57           Si  tau(  57) = (   0.7131050   0.9379660   0.9112390  )
        58           Si  tau(  58) = (   0.3744440   0.3711970   0.0982476  )
        59           Si  tau(  59) = (   0.1738410   0.9398460   0.9929460  )
        60           Si  tau(  60) = (   0.0049573   0.4201370   0.7302140  )
        61           Si  tau(  61) = (   0.3387930   0.0518406   0.1059410  )
        62           Si  tau(  62) = (   0.6922800   0.4460450   0.2839530  )
        63           Si  tau(  63) = (   0.9444390   0.5526520   0.9294690  )
        64           Si  tau(  64) = (   0.7929730   0.5150750   0.5925380  )

     number of k points=     1  Fermi-Dirac smearing, width (Ry)=  0.0100
                       cart. coord. in units 2pi/alat
        k(    1) = (   0.0000000   0.0000000   0.0000000), wk =   2.0000000

     Dense  grid:    89271 G-vectors     FFT dimensions: (  72,  72,  72)

     Estimated max dynamical RAM per process >     143.57 MB

     Estimated total dynamical RAM >     552.50 MB

     Initial potential from superposition of free atoms

     starting charge     255.9608, renormalised to     256.0000
     Starting wfcs are  256 randomized atomic wfcs

     total cpu time spent up to now is        4.5 secs

     Self-consistent Calculation

     iteration #  1     ecut=    30.00 Ry     beta= 0.50
     Davidson diagonalization with overlap
     ethr =  1.00E-02,  avg # of iterations =  3.0

     Threshold (ethr) on eigenvalues was too large:
     Diagonalizing with lowered threshold

     Davidson diagonalization with overlap
     ethr =  5.31E-04,  avg # of iterations =  4.0

     total cpu time spent up to now is        4.7 secs

     total energy              =    -500.49871956 Ry
     estimated scf accuracy    <       1.72851112 Ry

     iteration #  2     ecut=    30.00 Ry     beta= 0.50
     Davidson diagonalization with overlap
     ethr =  6.75E-04,  avg # of iterations =  4.0

     total cpu time spent up to now is        4.8 secs

     total energy              =    -499.70520169 Ry
     estimated scf accuracy    <      10.80800877 Ry

     iteration #  3     ecut=    30.00 Ry     beta= 0.50
     Davidson diagonalization with overlap
     ethr =  6.75E-04,  avg # of iterations =  4.0

     total cpu time spent up to now is        5.0 secs

     total energy              =    -500.70201152 Ry
     estimated scf accuracy    <       2.50090183 Ry

     iteration #  4     ecut=    30.00 Ry     beta= 0.50
     Davidson diagonalization with overlap
     ethr =  6.75E-04,  avg # of iterations =  2.0

     total cpu time spent up to now is        5.0 secs

     total energy              =    -500.88631683 Ry
     estimated scf accuracy    <       0.65135535 Ry

     iteration #  5     ecut=    30.00 Ry     beta= 0.50
     Davidson diagonalization with overlap
     ethr =  2.54E-04,  avg # of iterations =  2.0

     total cpu time spent up to now is        5.1 secs

     total energy              =    -500.92166235 Ry
     estimated scf accuracy    <       0.41332601 Ry

     iteration #  6     ecut=    30.00 Ry     beta= 0.50
     Davidson diagonalization with overlap
     ethr =  1.61E-04,  avg # of iterations =  2.0

     total cpu time spent up to now is        5.2 secs

     total energy              =    -500.96163284 Ry
     estimated scf accuracy    <       0.14105007 Ry

     iteration #  7     ecut=    30.00 Ry     beta= 0.50
     Davidson diagonalization with overlap
     ethr =  5.51E-05,  avg # of iterations =  2.0

     total cpu time spent up to now is        5.3 secs

     total energy              =    -500.97192472 Ry
     estimated scf accuracy    <       0.02800128 Ry

     iteration #  8     ecut=    30.00 Ry     beta= 0.50
     Davidson diagonalization with overlap
     ethr =  1.09E-05,  avg # of iterations =  7.0

     total cpu time spent up to now is        5.4 secs

     total energy              =    -500.97488276 Ry
     estimated scf accuracy    <       0.03296408 Ry

     iteration #  9     ecut=    30.00 Ry     beta= 0.50
     Davidson diagonalization with overlap
     ethr =  1.09E-05,  avg # of iterations =  2.0

     total cpu time spent up to now is        5.5 secs

     total energy              =    -500.97748667 Ry
     estimated scf accuracy    <       0.00227992 Ry

     iteration # 10     ecut=    30.00 Ry     beta= 0.50
     Davidson diagonalization with overlap
     c_bands:  1 eigenvalues not converged
     ethr =  8.91E-07,  avg # of iterations = 20.0

     total cpu time spent up to now is        5.7 secs

     total energy              =    -500.97761039 Ry
     estimated scf accuracy    <       0.00487543 Ry

     iteration # 11     ecut=    30.00 Ry     beta= 0.50
     Davidson diagonalization with overlap
     ethr =  8.91E-07,  avg # of iterations =  2.0

     total cpu time spent up to now is        5.8 secs

     total energy              =    -500.97797418 Ry
     estimated scf accuracy    <       0.00084703 Ry

     iteration # 12     ecut=    30.00 Ry     beta= 0.50
     Davidson diagonalization with overlap
     ethr =  3.31E-07,  avg # of iterations =  2.0

     total cpu time spent up to now is        5.9 secs

     total energy              =    -500.97805222 Ry
     estimated scf accuracy    <       0.00028539 Ry

     iteration # 13     ecut=    30.00 Ry     beta= 0.50
     Davidson diagonalization with overlap
     ethr =  1.11E-07,  avg # of iterations =  2.0

     total cpu time spent up to now is        6.0 secs

     total energy              =    -500.97807293 Ry
     estimated scf accuracy    <       0.00026445 Ry

     iteration # 14     ecut=    30.00 Ry     beta= 0.50
     Davidson diagonalization with overlap
     ethr =  1.03E-07,  avg # of iterations =  1.0

     total cpu time spent up to now is        6.1 secs

     total energy              =    -500.97809167 Ry
     estimated scf accuracy    <       0.00002751 Ry

     iteration # 15     ecut=    30.00 Ry     beta= 0.50
     Davidson diagonalization with overlap
     ethr =  1.07E-08,  avg # of iterations =  4.0

     total cpu time spent up to now is        6.2 secs

     total energy              =    -500.97809286 Ry
     estimated scf accuracy    <       0.00005068 Ry

     iteration # 16     ecut=    30.00 Ry     beta= 0.50
     Davidson diagonalization with overlap
     ethr =  1.07E-08,  avg # of iterations =  3.0

     total cpu time spent up to now is        6.3 secs

     total energy              =    -500.97809653 Ry
     estimated scf accuracy    <       0.00001884 Ry

     iteration # 17     ecut=    30.00 Ry     beta= 0.50
     Davidson diagonalization with overlap
     ethr =  7.36E-09,  avg # of iterations =  2.0

     total cpu time spent up to now is        6.3 secs

     total energy              =    -500.97809763 Ry
     estimated scf accuracy    <       0.00000329 Ry

     iteration # 18     ecut=    30.00 Ry     beta= 0.50
     Davidson diagonalization with overlap
     ethr =  1.29E-09,  avg # of iterations =  4.0

     total cpu time spent up to now is        6.4 secs

     total energy              =    -500.97809803 Ry
     estimated scf accuracy    <       0.00000614 Ry

     iteration # 19     ecut=    30.00 Ry     beta= 0.50
     Davidson diagonalization with overlap
     ethr =  1.29E-09,  avg # of iterations =  2.0

     total cpu time spent up to now is        6.5 secs

     End of self-consistent calculation

          k = 0.0000 0.0000 0.0000 ( 11168 PWs)   bands (ev):

    -5.7244  -4.9381  -4.6425  -4.5890  -4.5581  -4.2596  -4.1959  -3.8187
    -3.7903  -3.5660  -3.5036  -3.3722  -3.3105  -3.1526  -3.1174  -2.8918
    -2.8496  -2.7524  -2.6255  -2.4233  -2.1420  -2.0207  -1.8159  -1.7008
    -1.6401  -1.4996  -1.3908  -1.1172  -1.0704  -0.7035  -0.6365  -0.5561
    -0.5298  -0.2414  -0.1451  -0.1204  -0.0107   0.0983   0.1167   0.3025
     0.3743   0.4120   0.5097   0.5698   0.6374   0.6507   0.7203   0.7865
     0.8570   1.0712   1.1787   1.2403   1.2638   1.3661   1.4772   1.7125
     1.7424   1.9005   2.0737   2.1246   2.2304   2.2528   2.2687   2.4994
     2.5304   2.6409   2.7726   2.8496   2.9616   3.0085   3.0880   3.1658
     3.2077   3.2784   3.3427   3.5090   3.5123   3.5485   3.8233   3.9110
     3.9836   4.0299   4.2249   4.3443   4.4497   4.4983   4.5233   4.6352
     4.7459   4.7779   4.9052   4.9945   5.0601   5.1479   5.1737   5.1806
     5.2887   5.3740   5.4370   5.5219   5.6021   5.6247   5.6445   5.7400
     5.8592   5.9095   5.9203   6.0238   6.0958   6.1686   6.2193   6.2658
     6.3442   6.3572   6.4512   6.4938   6.5477   6.6303   6.6889   6.7494
     6.7779   6.7943   6.8891   6.9141   7.0128   7.0660   7.1066   7.1238
     7.2494   7.2610   7.3636   7.4211   7.4915   7.5300   7.5790   7.6214
     7.7206   7.7799   7.8189   7.9157   7.9245   8.0306   8.1222   8.1734
     8.2165   8.3217   8.3371   8.4180   8.4637   8.5347   8.5951   8.6367
     8.7108   8.7800

     the Fermi energy is     7.2011 ev

!    total energy              =    -500.97809829 Ry
     estimated scf accuracy    <       0.00000022 Ry
     smearing contrib. (-TS)   =      -0.15193299 Ry
     internal energy E=F+TS    =    -500.82616530 Ry

     The total energy is F=E-TS. E is the sum of the following terms:
     one-electron contribution =     169.98941929 Ry
     hartree contribution      =      33.79633487 Ry
     xc contribution           =    -152.20656312 Ry
     ewald contribution        =    -552.40535634 Ry

     convergence has been achieved in  19 iterations

     Forces acting on atoms (cartesian axes, Ry/au):

     atom    1 type  1   force =    -0.00724483   -0.08316406    0.01230430
     atom    2 type  1   force =     0.03484584    0.01961258    0.01109027
     atom    3 type  1   force =     0.01969543   -0.02407525   -0.02258423
     atom    4 type  1   force =    -0.04797157   -0.00956322   -0.02240823
     atom    5 type  1   force =    -0.00485840    0.00308098    0.00508990
     atom    6 type  1   force =    -0.01554988    0.01583918   -0.01759347
     atom    7 type  1   force =    -0.01747218    0.01445829    0.01848688
     atom    8 type  1   force =     0.01891815    0.03399492    0.04513054
     atom    9 type  1   force =    -0.02761024    0.01974364    0.07593826
     atom   10 type  1   force =     0.00601820   -0.03304923   -0.03006433
     atom   11 type  1   force =     0.04831178    0.03367258   -0.00158873
     atom   12 type  1   force =    -0.00016975   -0.01956246    0.01535336
     atom   13 type  1   force =     0.05853787    0.06004898   -0.02829851
     atom   14 type  1   force =     0.01168552   -0.03721814   -0.03082008
     atom   15 type  1   force =    -0.00716197    0.00162573    0.02321927
     atom   16 type  1   force =    -0.03357139   -0.01019270    0.01310456
     atom   17 type  1   force =    -0.08262828   -0.05085228    0.02368373
     atom   18 type  1   force =     0.00742594   -0.00668762    0.04248374
     atom   19 type  1   force =     0.01940655    0.00109974    0.04253633
     atom   20 type  1   force =     0.02679650    0.00094731   -0.02093020
     atom   21 type  1   force =     0.06675512    0.00655731   -0.01019637
     atom   22 type  1   force =    -0.00300916   -0.05202991    0.00134647
     atom   23 type  1   force =    -0.00037612    0.01663477    0.00441913
     atom   24 type  1   force =     0.01000145   -0.02156456    0.01183041
     atom   25 type  1   force =     0.00543185   -0.01303355   -0.00940846
     atom   26 type  1   force =     0.03533548   -0.04125404   -0.02288492
     atom   27 type  1   force =    -0.06914925    0.01192368   -0.08696501
     atom   28 type  1   force =     0.01718168   -0.00359879   -0.00922908
     atom   29 type  1   force =    -0.06466348   -0.00270727   -0.01774076
     atom   30 type  1   force =     0.01446812    0.02099046   -0.00519040
     atom   31 type  1   force =    -0.00207963    0.03187345   -0.03252717
     atom   32 type  1   force =    -0.01336335   -0.00485153    0.00430610
     atom   33 type  1   force =     0.06121558    0.01248886    0.04540246
     atom   34 type  1   force =    -0.08531160   -0.05541710    0.03966325
     atom   35 type  1   force =    -0.03172809    0.02900505   -0.01211044
     atom   36 type  1   force =    -0.00883245   -0.03033020   -0.02165010
     atom   37 type  1   force =    -0.01750464   -0.02464016   -0.01733440
     atom   38 type  1   force =     0.04748201    0.07311165   -0.10853205
     atom   39 type  1   force =     0.01024679    0.00492655    0.01587644
     atom   40 type  1   force =     0.01961170   -0.01365857    0.00784522
     atom   41 type  1   force =     0.00236054    0.02651471    0.01756697
     atom   42 type  1   force =    -0.04569904    0.04700367   -0.00387207
     atom   43 type  1   force =    -0.03345018   -0.02312017    0.01941376
     atom   44 type  1   force =    -0.04180864   -0.01560912   -0.01856472
     atom   45 type  1   force =    -0.01457810    0.01763116    0.03931615
     atom   46 type  1   force =     0.03601318    0.02646378    0.06612471
     atom   47 type  1   force =     0.02056078   -0.00865646   -0.01732914
     atom   48 type  1   force =     0.01197360   -0.00640706   -0.03202576
     atom   49 type  1   force =    -0.01152198    0.00145162    0.00521758
     atom   50 type  1   force =    -0.01558572    0.05020944    0.02246963
     atom   51 type  1   force =    -0.00477667    0.01364433   -0.02809669
     atom   52 type  1   force =     0.00063078    0.01162820   -0.00232910
     atom   53 type  1   force =     0.05738092   -0.01356443    0.01493675
     atom   54 type  1   force =     0.04018845   -0.00869766   -0.01971391
     atom   55 type  1   force =    -0.00664605   -0.05614331   -0.00862442
     atom   56 type  1   force =     0.02083592    0.00418381    0.03679487
     atom   57 type  1   force =    -0.02987626    0.00076998   -0.02733304
     atom   58 type  1   force =     0.04051211    0.05138044    0.01041631
     atom   59 type  1   force =    -0.00641970    0.01117505   -0.00721372
     atom   60 type  1   force =    -0.02422141    0.01751566   -0.02381679
     atom   61 type  1   force =     0.03157932    0.01502044   -0.00245573
     atom   62 type  1   force =    -0.01109862    0.01280839   -0.04299513
     atom   63 type  1   force =    -0.02900543   -0.05785430    0.02154731
     atom   64 type  1   force =     0.01353690    0.00846676    0.04951252

     Total force =     0.434105     Total SCF correction =     0.000856


     Computing stress (Cartesian axis) and pressure

          total   stress  (Ry/bohr**3)                   (kbar)     P=       11.36
   0.00000119   0.00002831  -0.00000386            0.17        4.16       -0.57
   0.00002831   0.00000837   0.00002958            4.16        1.23        4.35
  -0.00000386   0.00002958   0.00022220           -0.57        4.35       32.69

 
     init_run     :      0.94s CPU      4.47s WALL (       1 calls)
     electrons    :      1.80s CPU      1.98s WALL (       1 calls)
     forces       :      0.03s CPU      0.03s WALL (       1 calls)
     stress       :      0.14s CPU      0.14s WALL (       1 calls)

     Called by init_run:
     wfcinit      :      0.43s CPU      3.80s WALL (       1 calls)
                                        3.80s GPU  (       1 calls)
     potinit      :      0.04s CPU      0.13s WALL (       1 calls)
     hinit0       :      0.45s CPU      0.48s WALL (       1 calls)

     Called by electrons:
     c_bands      :      1.16s CPU      1.26s WALL (      20 calls)
     sum_band     :      0.33s CPU      0.38s WALL (      20 calls)
     v_of_rho     :      0.13s CPU      0.23s WALL (      20 calls)
     mix_rho      :      0.14s CPU      0.16s WALL (      20 calls)

     Called by c_bands:
     init_us_2    :      0.05s CPU      0.06s WALL (      41 calls)
     init_us_2:gp :      0.05s CPU      0.05s WALL (      41 calls)
     regterg      :      1.01s CPU      1.09s WALL (      20 calls)

     Called by *egterg:
     rdiaghg      :      0.45s CPU      1.12s WALL (      93 calls)
                                        1.10s GPU  (      93 calls)
     h_psi        :      0.82s CPU      3.57s WALL (      95 calls)
                                        3.56s GPU  (      95 calls)
     g_psi        :      0.00s CPU      0.00s WALL (      74 calls)
                                        0.00s GPU  (      74 calls)

     Called by h_psi:
     h_psi:calbec :      0.40s CPU      3.07s WALL (      95 calls)
                                        3.07s GPU  (      95 calls)
     vloc_psi     :      0.36s CPU      0.43s WALL (      95 calls)
                                        0.43s GPU  (      95 calls)
     add_vuspsi   :      0.04s CPU      0.05s WALL (      95 calls)
                                        0.05s GPU  (      95 calls)

     General routines
     calbec       :      0.40s CPU      3.08s WALL (     100 calls)
     fft          :      0.56s CPU      0.68s WALL (     167 calls)
                                        0.12s GPU  (     106 calls)
     ffts         :      0.03s CPU      0.04s WALL (      20 calls)
     fftw         :      0.45s CPU      0.59s WALL (    2118 calls)
                                        0.52s GPU  (    2118 calls)
 
     Parallel routines
 
     PWSCF        :      2.94s CPU      6.71s WALL

 
   This run was terminated on:  12: 5:43  11May2023            

=------------------------------------------------------------------------------=
   JOB DONE.
=------------------------------------------------------------------------------=
