An instance of this daemon is already running

     Program PWSCF v.7.1 starts on 11May2023 at 12: 7:40 

     This program is part of the open-source Quantum ESPRESSO suite
     for quantum simulation of materials; please cite
         "P. Giannozzi et al., J. Phys.:Condens. Matter 21 395502 (2009);
         "P. Giannozzi et al., J. Phys.:Condens. Matter 29 465901 (2017);
         "P. Giannozzi et al., J. Chem. Phys. 152 154105 (2020);
          URL http://www.quantum-espresso.org", 
     in publications or presentations arising from this work. More details at
     http://www.quantum-espresso.org/quote

     Parallel version (MPI & OpenMP), running on       4 processor cores
     Number of MPI processes:                 4
     Threads/MPI process:                     1

     MPI processes distributed on     1 nodes
     617399 MiB available memory on the printing compute node when the environment starts
 
     Reading input from pw-si-30.in
Warning: card &CELL ignored
Warning: card / ignored

     Current dimensions of program PWSCF are:
     Max number of different atomic species (ntypx) = 10
     Max number of k-points (npk) =  40000
     Max angular momentum in pseudopotentials (lmaxx) =  4

     IMPORTANT: XC functional enforced from input :
     Exchange-correlation= PBE
                           (   1   4   3   4   0   0   0)
     Any further DFT definition will be discarded
     Please, verify this is what you really want


     gamma-point specific algorithms are used
 
     K-points division:     npool     =       2
     R & G space division:  proc/nbgrp/npool/nimage =       2
     Subspace diagonalization in iterative solution of the eigenvalue problem:
     a serial algorithm will be used

     Message from routine divide_et_impera:
     suboptimal parallelization: some nodes have no k-points
 
     Parallelization info
     --------------------
     sticks:   dense  smooth     PW     G-vecs:    dense   smooth      PW
     Min        1855    1855    488                85294    85294   11563
     Max        1858    1858    493                85295    85295   11564
     Sum        3713    3713    981               170589   170589   23127
 
     Using Slab Decomposition
 


     bravais-lattice index     =            0
     lattice parameter (alat)  =      19.7327  a.u.
     unit-cell volume          =    7683.4794 (a.u.)^3
     number of atoms/cell      =           64
     number of atomic types    =            1
     number of electrons       =       256.00
     number of Kohn-Sham states=          154
     kinetic-energy cutoff     =      30.0000  Ry
     charge density cutoff     =     120.0000  Ry
     scf convergence threshold =      1.0E-06
     mixing beta               =       0.5000
     number of iterations used =            8  plain     mixing
     Exchange-correlation= PBE
                           (   1   4   3   4   0   0   0)

     GPU acceleration is ACTIVE.
     GPU-aware MPI enabled

     Message from routine print_cuda_info:
     High GPU oversubscription detected. Are you sure this is what you want?

     celldm(1)=  19.732676  celldm(2)=   0.000000  celldm(3)=   0.000000
     celldm(4)=   0.000000  celldm(5)=   0.000000  celldm(6)=   0.000000

     crystal axes: (cart. coord. in units of alat)
               a(1) = (   1.000000   0.000000   0.000000 )  
               a(2) = (   0.000000   1.000000   0.000000 )  
               a(3) = (   0.000000   0.000000   1.000000 )  

     reciprocal axes: (cart. coord. in units 2 pi/alat)
               b(1) = (  1.000000  0.000000  0.000000 )  
               b(2) = (  0.000000  1.000000  0.000000 )  
               b(3) = (  0.000000  0.000000  1.000000 )  


     PseudoPot. # 1 for Si read from file:
     /home/ppiaggi/pseudos/Si_ONCV_PBE_sr.upf
     MD5 check sum: 8553c464762ac42b85b1eed164b4d029
     Pseudo is Norm-conserving, Zval =  4.0
     Generated using ONCVPSP code by D. R. Hamann
     Using radial grid of 1510 points,  4 beta functions with: 
                l(1) =   0
                l(2) =   0
                l(3) =   1
                l(4) =   1

     atomic species   valence    mass     pseudopotential
        Si             4.00    28.08500     Si( 1.00)

     No symmetry found



   Cartesian axes

     site n.     atom                  positions (alat units)
         1           Si  tau(   1) = (   0.9639250   0.3235780   0.2707010  )
         2           Si  tau(   2) = (   0.3517720   0.0526310   0.6415750  )
         3           Si  tau(   3) = (   0.6897410   0.2747280   0.9772490  )
         4           Si  tau(   4) = (   0.5338190   0.9192350   0.0793968  )
         5           Si  tau(   5) = (   0.1851020   0.1978360   0.9755010  )
         6           Si  tau(   6) = (   0.3767050   0.9918370   0.2940620  )
         7           Si  tau(   7) = (   0.2357180   0.2755060   0.3852180  )
         8           Si  tau(   8) = (   0.6305920   0.1349440   0.1551440  )
         9           Si  tau(   9) = (   0.5168920   0.9459270   0.7756300  )
        10           Si  tau(  10) = (   0.0694509   0.9304050   0.5921640  )
        11           Si  tau(  11) = (   0.2677990   0.5687770   0.3056870  )
        12           Si  tau(  12) = (   0.8085800   0.5649280   0.1114200  )
        13           Si  tau(  13) = (   0.7908870   0.6856890   0.7615810  )
        14           Si  tau(  14) = (   0.7844120   0.3298910   0.4321010  )
        15           Si  tau(  15) = (   0.1478480   0.5867460   0.8067490  )
        16           Si  tau(  16) = (   0.4142210   0.5495270   0.4882390  )
        17           Si  tau(  17) = (   0.5239750   0.7009030   0.9015900  )
        18           Si  tau(  18) = (   0.0078267   0.0642777   0.0068903  )
        19           Si  tau(  19) = (   0.6207960   0.3361570   0.5854050  )
        20           Si  tau(  20) = (   0.1825200   0.4775090   0.1099070  )
        21           Si  tau(  21) = (   0.6325840   0.0923786   0.6068070  )
        22           Si  tau(  22) = (   0.8905590   0.9499380   0.6968950  )
        23           Si  tau(  23) = (   0.0147282   0.3600870   0.5136500  )
        24           Si  tau(  24) = (   0.5563360   0.6748400   0.2527580  )
        25           Si  tau(  25) = (   0.8391570   0.0510702   0.1793230  )
        26           Si  tau(  26) = (   0.8461890   0.5454330   0.3265880  )
        27           Si  tau(  27) = (   0.6778760   0.0730925   0.3727450  )
        28           Si  tau(  28) = (   0.0650429   0.0926216   0.2470800  )
        29           Si  tau(  29) = (   0.5010160   0.8301540   0.4292110  )
        30           Si  tau(  30) = (   0.9106160   0.7533080   0.4547230  )
        31           Si  tau(  31) = (   0.5066860   0.4426000   0.9076980  )
        32           Si  tau(  32) = (   0.0276681   0.6333380   0.1803760  )
        33           Si  tau(  33) = (   0.1780950   0.6902620   0.0002122  )
        34           Si  tau(  34) = (   0.9598600   0.8753040   0.8931220  )
        35           Si  tau(  35) = (   0.6158610   0.7042510   0.5894710  )
        36           Si  tau(  36) = (   0.2317770   0.8009250   0.3447590  )
        37           Si  tau(  37) = (   0.3495120   0.8245200   0.8650690  )
        38           Si  tau(  38) = (   0.1729690   0.7206490   0.5774070  )
        39           Si  tau(  39) = (   0.3974480   0.7201550   0.6582030  )
        40           Si  tau(  40) = (   0.1434810   0.1481690   0.5674790  )
        41           Si  tau(  41) = (   0.7817820   0.0651180   0.9001120  )
        42           Si  tau(  42) = (   0.7398210   0.8673490   0.3623690  )
        43           Si  tau(  43) = (   0.3015800   0.2337870   0.1705460  )
        44           Si  tau(  44) = (   0.8972170   0.3414310   0.0414823  )
        45           Si  tau(  45) = (   0.0729468   0.8518480   0.1263010  )
        46           Si  tau(  46) = (   0.9105530   0.1559000   0.5529520  )
        47           Si  tau(  47) = (   0.4383380   0.1408240   0.4358190  )
        48           Si  tau(  48) = (   0.4730150   0.3584440   0.3498660  )
        49           Si  tau(  49) = (   0.4319740   0.3446200   0.7105540  )
        50           Si  tau(  50) = (   0.0790368   0.5932390   0.4155520  )
        51           Si  tau(  51) = (   0.2256020   0.4180790   0.6087160  )
        52           Si  tau(  52) = (   0.7402600   0.2071260   0.7285240  )
        53           Si  tau(  53) = (   0.7340580   0.7991930   0.1410310  )
        54           Si  tau(  54) = (   0.4065780   0.1648360   0.8349650  )
        55           Si  tau(  55) = (   0.3687960   0.6044430   0.0927367  )
        56           Si  tau(  56) = (   0.1211760   0.3735910   0.8735750  )
        57           Si  tau(  57) = (   0.7096570   0.8532590   0.8910420  )
        58           Si  tau(  58) = (   0.5252250   0.3466190   0.1171710  )
        59           Si  tau(  59) = (   0.1831610   0.0423324   0.8276870  )
        60           Si  tau(  60) = (   0.9213490   0.3282340   0.7485380  )
        61           Si  tau(  61) = (   0.3229620   0.9810100   0.0481905  )
        62           Si  tau(  62) = (   0.6829920   0.4390510   0.2618900  )
        63           Si  tau(  63) = (   0.8817860   0.5162750   0.8968250  )
        64           Si  tau(  64) = (   0.8623220   0.5381830   0.5616650  )

     number of k points=     1  Fermi-Dirac smearing, width (Ry)=  0.0100
                       cart. coord. in units 2pi/alat
        k(    1) = (   0.0000000   0.0000000   0.0000000), wk =   2.0000000

     Dense  grid:    85295 G-vectors     FFT dimensions: (  72,  72,  72)

     Estimated max dynamical RAM per process >     137.84 MB

     Estimated total dynamical RAM >     530.52 MB

     Initial potential from superposition of free atoms

     starting charge     255.9608, renormalised to     256.0000
     Starting wfcs are  256 randomized atomic wfcs

     total cpu time spent up to now is        4.5 secs

     Self-consistent Calculation

     iteration #  1     ecut=    30.00 Ry     beta= 0.50
     Davidson diagonalization with overlap
     ethr =  1.00E-02,  avg # of iterations =  3.0

     Threshold (ethr) on eigenvalues was too large:
     Diagonalizing with lowered threshold

     Davidson diagonalization with overlap
     ethr =  5.11E-04,  avg # of iterations =  5.0

     total cpu time spent up to now is        4.7 secs

     total energy              =    -500.58779427 Ry
     estimated scf accuracy    <       1.71255094 Ry

     iteration #  2     ecut=    30.00 Ry     beta= 0.50
     Davidson diagonalization with overlap
     ethr =  6.69E-04,  avg # of iterations =  3.0

     total cpu time spent up to now is        4.8 secs

     total energy              =    -500.17151387 Ry
     estimated scf accuracy    <       6.10974712 Ry

     iteration #  3     ecut=    30.00 Ry     beta= 0.50
     Davidson diagonalization with overlap
     ethr =  6.69E-04,  avg # of iterations =  4.0

     total cpu time spent up to now is        4.9 secs

     total energy              =    -500.69211525 Ry
     estimated scf accuracy    <       3.48777231 Ry

     iteration #  4     ecut=    30.00 Ry     beta= 0.50
     Davidson diagonalization with overlap
     ethr =  6.69E-04,  avg # of iterations =  2.0

     total cpu time spent up to now is        5.0 secs

     total energy              =    -500.98872469 Ry
     estimated scf accuracy    <       0.83137425 Ry

     iteration #  5     ecut=    30.00 Ry     beta= 0.50
     Davidson diagonalization with overlap
     ethr =  3.25E-04,  avg # of iterations =  2.0

     total cpu time spent up to now is        5.1 secs

     total energy              =    -501.03266634 Ry
     estimated scf accuracy    <       0.25842636 Ry

     iteration #  6     ecut=    30.00 Ry     beta= 0.50
     Davidson diagonalization with overlap
     ethr =  1.01E-04,  avg # of iterations =  2.0

     total cpu time spent up to now is        5.1 secs

     total energy              =    -501.06227064 Ry
     estimated scf accuracy    <       0.16343737 Ry

     iteration #  7     ecut=    30.00 Ry     beta= 0.50
     Davidson diagonalization with overlap
     ethr =  6.38E-05,  avg # of iterations =  1.0

     total cpu time spent up to now is        5.2 secs

     total energy              =    -501.07452905 Ry
     estimated scf accuracy    <       0.01776232 Ry

     iteration #  8     ecut=    30.00 Ry     beta= 0.50
     Davidson diagonalization with overlap
     ethr =  6.94E-06,  avg # of iterations = 15.0

     total cpu time spent up to now is        5.4 secs

     total energy              =    -501.07621028 Ry
     estimated scf accuracy    <       0.02389099 Ry

     iteration #  9     ecut=    30.00 Ry     beta= 0.50
     Davidson diagonalization with overlap
     ethr =  6.94E-06,  avg # of iterations =  2.0

     total cpu time spent up to now is        5.5 secs

     total energy              =    -501.07827788 Ry
     estimated scf accuracy    <       0.00496268 Ry

     iteration # 10     ecut=    30.00 Ry     beta= 0.50
     Davidson diagonalization with overlap
     ethr =  1.94E-06,  avg # of iterations =  2.0

     total cpu time spent up to now is        5.6 secs

     total energy              =    -501.07865000 Ry
     estimated scf accuracy    <       0.00121305 Ry

     iteration # 11     ecut=    30.00 Ry     beta= 0.50
     Davidson diagonalization with overlap
     ethr =  4.74E-07,  avg # of iterations =  3.0

     total cpu time spent up to now is        5.7 secs

     total energy              =    -501.07873592 Ry
     estimated scf accuracy    <       0.00132056 Ry

     iteration # 12     ecut=    30.00 Ry     beta= 0.50
     Davidson diagonalization with overlap
     ethr =  4.74E-07,  avg # of iterations =  2.0

     total cpu time spent up to now is        5.7 secs

     total energy              =    -501.07883717 Ry
     estimated scf accuracy    <       0.00020110 Ry

     iteration # 13     ecut=    30.00 Ry     beta= 0.50
     Davidson diagonalization with overlap
     ethr =  7.86E-08,  avg # of iterations =  3.0

     total cpu time spent up to now is        5.8 secs

     total energy              =    -501.07885402 Ry
     estimated scf accuracy    <       0.00029506 Ry

     iteration # 14     ecut=    30.00 Ry     beta= 0.50
     Davidson diagonalization with overlap
     ethr =  7.86E-08,  avg # of iterations =  2.0

     total cpu time spent up to now is        5.9 secs

     total energy              =    -501.07887503 Ry
     estimated scf accuracy    <       0.00001258 Ry

     iteration # 15     ecut=    30.00 Ry     beta= 0.50
     Davidson diagonalization with overlap
     ethr =  4.91E-09,  avg # of iterations =  4.0

     total cpu time spent up to now is        6.0 secs

     total energy              =    -501.07887318 Ry
     estimated scf accuracy    <       0.00006012 Ry

     iteration # 16     ecut=    30.00 Ry     beta= 0.50
     Davidson diagonalization with overlap
     ethr =  4.91E-09,  avg # of iterations =  4.0

     total cpu time spent up to now is        6.1 secs

     total energy              =    -501.07887739 Ry
     estimated scf accuracy    <       0.00002634 Ry

     iteration # 17     ecut=    30.00 Ry     beta= 0.50
     Davidson diagonalization with overlap
     ethr =  4.91E-09,  avg # of iterations =  2.0

     total cpu time spent up to now is        6.2 secs

     total energy              =    -501.07887911 Ry
     estimated scf accuracy    <       0.00000209 Ry

     iteration # 18     ecut=    30.00 Ry     beta= 0.50
     Davidson diagonalization with overlap
     ethr =  8.17E-10,  avg # of iterations =  4.0

     total cpu time spent up to now is        6.3 secs

     total energy              =    -501.07887923 Ry
     estimated scf accuracy    <       0.00000201 Ry

     iteration # 19     ecut=    30.00 Ry     beta= 0.50
     Davidson diagonalization with overlap
     ethr =  7.86E-10,  avg # of iterations =  2.0

     total cpu time spent up to now is        6.4 secs

     total energy              =    -501.07887937 Ry
     estimated scf accuracy    <       0.00000115 Ry

     iteration # 20     ecut=    30.00 Ry     beta= 0.50
     Davidson diagonalization with overlap
     ethr =  4.47E-10,  avg # of iterations =  2.0

     total cpu time spent up to now is        6.5 secs

     End of self-consistent calculation

          k = 0.0000 0.0000 0.0000 ( 10624 PWs)   bands (ev):

    -5.5601  -4.8044  -4.5851  -4.2750  -4.1080  -4.0085  -3.8349  -3.7443
    -3.3645  -3.2616  -3.1834  -3.0491  -2.9168  -2.7560  -2.6037  -2.5218
    -2.4429  -2.1851  -2.0660  -1.9695  -1.7559  -1.6758  -1.5160  -1.3296
    -1.1903  -1.0448  -0.8426  -0.7910  -0.7019  -0.5364  -0.0910  -0.0333
     0.1533   0.1673   0.2220   0.3543   0.4433   0.5331   0.7353   0.7735
     0.8009   0.8852   0.9459   1.0481   1.1106   1.2074   1.3100   1.3217
     1.4335   1.5792   1.6942   1.7524   1.8173   1.8904   2.0188   2.0805
     2.1268   2.2891   2.3287   2.5153   2.5790   2.6852   2.7788   2.9285
     2.9620   2.9832   3.1344   3.1776   3.2507   3.3900   3.4443   3.5232
     3.5824   3.6904   3.7248   3.7572   3.8455   3.8598   4.0192   4.1254
     4.2629   4.6241   4.7985   4.8526   4.9623   4.9935   5.1099   5.2457
     5.2664   5.3945   5.4770   5.5485   5.6027   5.6352   5.7450   5.7981
     5.8836   5.9152   5.9352   6.0564   6.1086   6.1602   6.2048   6.2626
     6.3131   6.3349   6.4455   6.4794   6.5443   6.6366   6.7072   6.7185
     6.8386   6.8910   7.0256   7.0755   7.1228   7.1824   7.1965   7.2459
     7.3904   7.4254   7.4630   7.4899   7.5758   7.6510   7.7332   7.7868
     7.8015   7.8857   7.9440   7.9852   8.0549   8.0990   8.1841   8.2269
     8.2813   8.3400   8.4850   8.5061   8.5455   8.5905   8.6220   8.7711
     8.7935   8.8653   8.8825   8.9491   9.0287   9.1605   9.2280   9.2678
     9.2896   9.3692

     the Fermi energy is     7.7938 ev

!    total energy              =    -501.07887937 Ry
     estimated scf accuracy    <       0.00000015 Ry
     smearing contrib. (-TS)   =      -0.15176391 Ry
     internal energy E=F+TS    =    -500.92711546 Ry

     The total energy is F=E-TS. E is the sum of the following terms:
     one-electron contribution =     188.16220088 Ry
     hartree contribution      =      29.65219075 Ry
     xc contribution           =    -153.24260209 Ry
     ewald contribution        =    -565.49890500 Ry

     convergence has been achieved in  20 iterations

     Forces acting on atoms (cartesian axes, Ry/au):

     atom    1 type  1   force =     0.02159773   -0.01091618   -0.00378237
     atom    2 type  1   force =    -0.01142205    0.00408788    0.00037476
     atom    3 type  1   force =     0.03263870    0.00193462   -0.05112328
     atom    4 type  1   force =     0.03528403    0.00148100    0.01788297
     atom    5 type  1   force =     0.04597188   -0.00276207    0.04199591
     atom    6 type  1   force =    -0.01517703   -0.05080694   -0.04142990
     atom    7 type  1   force =     0.00220907    0.00232049    0.01006571
     atom    8 type  1   force =    -0.02940035   -0.02315850   -0.00532166
     atom    9 type  1   force =     0.02710983    0.04519961   -0.03574826
     atom   10 type  1   force =     0.06473872   -0.03387756   -0.03214387
     atom   11 type  1   force =     0.03665336    0.00754410    0.00762545
     atom   12 type  1   force =     0.00426110    0.03661615   -0.04307300
     atom   13 type  1   force =    -0.00178208    0.01627923   -0.03254884
     atom   14 type  1   force =     0.02126251   -0.04114090   -0.00475641
     atom   15 type  1   force =    -0.03637468   -0.00582999   -0.03274419
     atom   16 type  1   force =    -0.01193110   -0.01022642    0.00235548
     atom   17 type  1   force =     0.03824295   -0.06520844    0.01977913
     atom   18 type  1   force =    -0.03892782    0.01451942    0.02983085
     atom   19 type  1   force =    -0.01902872    0.00393906   -0.00058680
     atom   20 type  1   force =    -0.00795470   -0.04676924   -0.01360530
     atom   21 type  1   force =    -0.08895807   -0.09836476   -0.10088341
     atom   22 type  1   force =    -0.07683060    0.00574886    0.00383376
     atom   23 type  1   force =     0.01920537    0.02498952   -0.00834759
     atom   24 type  1   force =     0.00997207    0.00731999   -0.00906195
     atom   25 type  1   force =     0.03093202   -0.02318052    0.00898784
     atom   26 type  1   force =     0.10291129    0.05949042    0.07929064
     atom   27 type  1   force =    -0.01585748    0.04830478    0.03983346
     atom   28 type  1   force =    -0.03672393    0.02159252   -0.00956183
     atom   29 type  1   force =     0.01352438   -0.01241855   -0.02412645
     atom   30 type  1   force =     0.02035893   -0.00169080    0.01791047
     atom   31 type  1   force =     0.01241448    0.04636885    0.01087744
     atom   32 type  1   force =    -0.01963759   -0.00131299    0.00752270
     atom   33 type  1   force =     0.01912318    0.03524825   -0.02095594
     atom   34 type  1   force =     0.02891498   -0.03387109    0.03414474
     atom   35 type  1   force =    -0.00213651   -0.01631060    0.00651328
     atom   36 type  1   force =    -0.01183812    0.02132456   -0.00588032
     atom   37 type  1   force =    -0.07894753   -0.00146391    0.00001408
     atom   38 type  1   force =     0.03245245    0.02019111    0.02611327
     atom   39 type  1   force =    -0.02487763    0.00395979   -0.00135917
     atom   40 type  1   force =     0.02275146    0.00322418   -0.00052268
     atom   41 type  1   force =     0.03871278    0.01083680    0.02518588
     atom   42 type  1   force =    -0.02110610   -0.02557615   -0.01908128
     atom   43 type  1   force =     0.01500920   -0.00520408   -0.01746813
     atom   44 type  1   force =     0.01496162   -0.01534230    0.00336628
     atom   45 type  1   force =     0.01482532    0.00461647    0.00842380
     atom   46 type  1   force =    -0.04254564   -0.01175985    0.01371389
     atom   47 type  1   force =     0.01688946    0.03929522    0.03637028
     atom   48 type  1   force =    -0.01477991    0.00258936    0.02948601
     atom   49 type  1   force =    -0.02935791    0.01608977   -0.00217897
     atom   50 type  1   force =    -0.03973994   -0.01377531    0.01138425
     atom   51 type  1   force =     0.03029137    0.00957930    0.00299782
     atom   52 type  1   force =     0.07190039    0.08064228    0.09437751
     atom   53 type  1   force =    -0.01505884   -0.00996112   -0.01398248
     atom   54 type  1   force =    -0.01181780   -0.04007681    0.01246922
     atom   55 type  1   force =     0.05911006   -0.00082594   -0.00631954
     atom   56 type  1   force =    -0.05117088    0.03939774   -0.02198390
     atom   57 type  1   force =    -0.02885433   -0.01102575    0.04113519
     atom   58 type  1   force =    -0.05888335   -0.00517941    0.02535408
     atom   59 type  1   force =     0.02124784   -0.06151976   -0.05366284
     atom   60 type  1   force =     0.03904172    0.03626397    0.00171827
     atom   61 type  1   force =    -0.03780057    0.00629804    0.00937675
     atom   62 type  1   force =    -0.11069104   -0.01200765   -0.04302333
     atom   63 type  1   force =     0.03806247    0.00889528   -0.03503419
     atom   64 type  1   force =    -0.01297041    0.00537497    0.00998674

     Total force =     0.462949     Total SCF correction =     0.000730


     Computing stress (Cartesian axis) and pressure

          total   stress  (Ry/bohr**3)                   (kbar)     P=       23.10
   0.00023414   0.00001561   0.00000419           34.44        2.30        0.62
   0.00001561   0.00008117   0.00000974            2.30       11.94        1.43
   0.00000419   0.00000974   0.00015585            0.62        1.43       22.93

 
     init_run     :      0.94s CPU      4.42s WALL (       1 calls)
     electrons    :      1.80s CPU      1.98s WALL (       1 calls)
     forces       :      0.03s CPU      0.03s WALL (       1 calls)
     stress       :      0.13s CPU      0.14s WALL (       1 calls)

     Called by init_run:
     wfcinit      :      0.44s CPU      3.75s WALL (       1 calls)
                                        3.75s GPU  (       1 calls)
     potinit      :      0.03s CPU      0.12s WALL (       1 calls)
     hinit0       :      0.45s CPU      0.48s WALL (       1 calls)

     Called by electrons:
     c_bands      :      1.16s CPU      1.26s WALL (      21 calls)
     sum_band     :      0.33s CPU      0.38s WALL (      21 calls)
     v_of_rho     :      0.14s CPU      0.24s WALL (      21 calls)
     mix_rho      :      0.14s CPU      0.16s WALL (      21 calls)

     Called by c_bands:
     init_us_2    :      0.05s CPU      0.06s WALL (      43 calls)
     init_us_2:gp :      0.05s CPU      0.06s WALL (      43 calls)
     regterg      :      1.01s CPU      1.09s WALL (      21 calls)

     Called by *egterg:
     rdiaghg      :      0.43s CPU      1.10s WALL (      89 calls)
                                        1.08s GPU  (      89 calls)
     h_psi        :      0.85s CPU      3.54s WALL (      91 calls)
                                        3.54s GPU  (      91 calls)
     g_psi        :      0.00s CPU      0.00s WALL (      69 calls)
                                        0.00s GPU  (      69 calls)

     Called by h_psi:
     h_psi:calbec :      0.42s CPU      3.04s WALL (      91 calls)
                                        3.04s GPU  (      91 calls)
     vloc_psi     :      0.38s CPU      0.45s WALL (      91 calls)
                                        0.45s GPU  (      91 calls)
     add_vuspsi   :      0.03s CPU      0.05s WALL (      91 calls)
                                        0.04s GPU  (      91 calls)

     General routines
     calbec       :      0.42s CPU      3.04s WALL (      96 calls)
     fft          :      0.56s CPU      0.68s WALL (     175 calls)
                                        0.12s GPU  (     111 calls)
     ffts         :      0.03s CPU      0.04s WALL (      21 calls)
     fftw         :      0.47s CPU      0.61s WALL (    2201 calls)
                                        0.53s GPU  (    2201 calls)
 
     Parallel routines
 
     PWSCF        :      2.93s CPU      6.64s WALL

 
   This run was terminated on:  12: 7:46  11May2023            

=------------------------------------------------------------------------------=
   JOB DONE.
=------------------------------------------------------------------------------=
