An instance of this daemon is already running
An instance of this daemon is already running

     Program PWSCF v.7.1 starts on 11May2023 at 12:14:27 

     This program is part of the open-source Quantum ESPRESSO suite
     for quantum simulation of materials; please cite
         "P. Giannozzi et al., J. Phys.:Condens. Matter 21 395502 (2009);
         "P. Giannozzi et al., J. Phys.:Condens. Matter 29 465901 (2017);
         "P. Giannozzi et al., J. Chem. Phys. 152 154105 (2020);
          URL http://www.quantum-espresso.org", 
     in publications or presentations arising from this work. More details at
     http://www.quantum-espresso.org/quote

     Parallel version (MPI & OpenMP), running on       4 processor cores
     Number of MPI processes:                 4
     Threads/MPI process:                     1

     MPI processes distributed on     1 nodes
     636732 MiB available memory on the printing compute node when the environment starts
 
     Reading input from pw-si-76.in
Warning: card &CELL ignored
Warning: card / ignored

     Current dimensions of program PWSCF are:
     Max number of different atomic species (ntypx) = 10
     Max number of k-points (npk) =  40000
     Max angular momentum in pseudopotentials (lmaxx) =  4

     IMPORTANT: XC functional enforced from input :
     Exchange-correlation= PBE
                           (   1   4   3   4   0   0   0)
     Any further DFT definition will be discarded
     Please, verify this is what you really want


     gamma-point specific algorithms are used
 
     K-points division:     npool     =       2
     R & G space division:  proc/nbgrp/npool/nimage =       2
     Subspace diagonalization in iterative solution of the eigenvalue problem:
     a serial algorithm will be used

     Message from routine divide_et_impera:
     suboptimal parallelization: some nodes have no k-points
 
     Parallelization info
     --------------------
     sticks:   dense  smooth     PW     G-vecs:    dense   smooth      PW
     Min        1903    1903    501                88514    88514   11935
     Max        1906    1906    504                88515    88515   11936
     Sum        3809    3809   1005               177029   177029   23871
 
     Using Slab Decomposition
 


     bravais-lattice index     =            0
     lattice parameter (alat)  =      19.9769  a.u.
     unit-cell volume          =    7972.2526 (a.u.)^3
     number of atoms/cell      =           64
     number of atomic types    =            1
     number of electrons       =       256.00
     number of Kohn-Sham states=          154
     kinetic-energy cutoff     =      30.0000  Ry
     charge density cutoff     =     120.0000  Ry
     scf convergence threshold =      1.0E-06
     mixing beta               =       0.5000
     number of iterations used =            8  plain     mixing
     Exchange-correlation= PBE
                           (   1   4   3   4   0   0   0)

     GPU acceleration is ACTIVE.
     GPU-aware MPI enabled

     Message from routine print_cuda_info:
     High GPU oversubscription detected. Are you sure this is what you want?

     celldm(1)=  19.976850  celldm(2)=   0.000000  celldm(3)=   0.000000
     celldm(4)=   0.000000  celldm(5)=   0.000000  celldm(6)=   0.000000

     crystal axes: (cart. coord. in units of alat)
               a(1) = (   1.000000   0.000000   0.000000 )  
               a(2) = (   0.000000   1.000000   0.000000 )  
               a(3) = (   0.000000   0.000000   1.000000 )  

     reciprocal axes: (cart. coord. in units 2 pi/alat)
               b(1) = (  1.000000  0.000000  0.000000 )  
               b(2) = (  0.000000  1.000000  0.000000 )  
               b(3) = (  0.000000  0.000000  1.000000 )  


     PseudoPot. # 1 for Si read from file:
     /home/ppiaggi/pseudos/Si_ONCV_PBE_sr.upf
     MD5 check sum: 8553c464762ac42b85b1eed164b4d029
     Pseudo is Norm-conserving, Zval =  4.0
     Generated using ONCVPSP code by D. R. Hamann
     Using radial grid of 1510 points,  4 beta functions with: 
                l(1) =   0
                l(2) =   0
                l(3) =   1
                l(4) =   1

     atomic species   valence    mass     pseudopotential
        Si             4.00    28.08500     Si( 1.00)

     No symmetry found



   Cartesian axes

     site n.     atom                  positions (alat units)
         1           Si  tau(   1) = (   0.0312100   0.2480410   0.4275080  )
         2           Si  tau(   2) = (   0.4029250   0.2070470   0.5180940  )
         3           Si  tau(   3) = (   0.7514320   0.1499170   0.1183990  )
         4           Si  tau(   4) = (   0.4195130   0.8056720   0.2227700  )
         5           Si  tau(   5) = (   0.1476490   0.1731410   0.8351450  )
         6           Si  tau(   6) = (   0.1407040   0.0097300   0.0960465  )
         7           Si  tau(   7) = (   0.1617280   0.4791970   0.2382300  )
         8           Si  tau(   8) = (   0.5012600   0.0598775   0.1600260  )
         9           Si  tau(   9) = (   0.8249160   0.7368140   0.9118930  )
        10           Si  tau(  10) = (   0.1509240   0.2010030   0.6076220  )
        11           Si  tau(  11) = (   0.4092550   0.5522710   0.1476140  )
        12           Si  tau(  12) = (   0.1723690   0.6360080   0.0824314  )
        13           Si  tau(  13) = (   0.6532110   0.4236290   0.5768290  )
        14           Si  tau(  14) = (   0.6325340   0.2151040   0.5494950  )
        15           Si  tau(  15) = (   0.1990610   0.8227980   0.5558610  )
        16           Si  tau(  16) = (   0.4304020   0.6842410   0.4184250  )
        17           Si  tau(  17) = (   0.4352950   0.4653140   0.9204880  )
        18           Si  tau(  18) = (   0.8474050   0.2470990   0.7851090  )
        19           Si  tau(  19) = (   0.5324620   0.2749050   0.0265254  )
        20           Si  tau(  20) = (   0.2617320   0.5521290   0.8459840  )
        21           Si  tau(  21) = (   0.3206000   0.0089286   0.9149630  )
        22           Si  tau(  22) = (   0.0509595   0.8355040   0.7075580  )
        23           Si  tau(  23) = (   0.2125520   0.4347040   0.4989990  )
        24           Si  tau(  24) = (   0.6614110   0.8019100   0.1225470  )
        25           Si  tau(  25) = (   0.6943010   0.0215104   0.2935740  )
        26           Si  tau(  26) = (   0.9419210   0.6456880   0.3785740  )
        27           Si  tau(  27) = (   0.6852380   0.9814350   0.5182720  )
        28           Si  tau(  28) = (   0.0092820   0.9428210   0.3795490  )
        29           Si  tau(  29) = (   0.6165860   0.8176640   0.3774550  )
        30           Si  tau(  30) = (   0.7502050   0.6584600   0.5483520  )
        31           Si  tau(  31) = (   0.6987500   0.6012780   0.0165490  )
        32           Si  tau(  32) = (   0.9051050   0.5877710   0.1528780  )
        33           Si  tau(  33) = (   0.1670740   0.8207200   0.9375880  )
        34           Si  tau(  34) = (   0.1302280   0.5846500   0.6603670  )
        35           Si  tau(  35) = (   0.4059260   0.7615260   0.6492450  )
        36           Si  tau(  36) = (   0.4357600   0.0757383   0.3488970  )
        37           Si  tau(  37) = (   0.9858150   0.0160624   0.8139690  )
        38           Si  tau(  38) = (   0.3134220   0.0066905   0.5208680  )
        39           Si  tau(  39) = (   0.4124570   0.7389970   0.8681930  )
        40           Si  tau(  40) = (   0.2161710   0.2635480   0.2428870  )
        41           Si  tau(  41) = (   0.9286380   0.9207570   0.0267420  )
        42           Si  tau(  42) = (   0.6874050   0.9028010   0.8371620  )
        43           Si  tau(  43) = (   0.3147420   0.2194230   0.9675550  )
        44           Si  tau(  44) = (   0.9250860   0.2485770   0.0221356  )
        45           Si  tau(  45) = (   0.8982330   0.7970060   0.2193340  )
        46           Si  tau(  46) = (   0.8209260   0.1219730   0.4242880  )
        47           Si  tau(  47) = (   0.5771120   0.0718492   0.7086480  )
        48           Si  tau(  48) = (   0.4396040   0.3242250   0.3082810  )
        49           Si  tau(  49) = (   0.4456310   0.3255150   0.7597220  )
        50           Si  tau(  50) = (   0.1947470   0.6849960   0.3692570  )
        51           Si  tau(  51) = (   0.4702240   0.4682400   0.4939190  )
        52           Si  tau(  52) = (   0.6739510   0.1690090   0.8964630  )
        53           Si  tau(  53) = (   0.9158850   0.6444320   0.7009450  )
        54           Si  tau(  54) = (   0.4758450   0.8959770   0.0313860  )
        55           Si  tau(  55) = (   0.2042670   0.8232380   0.1899210  )
        56           Si  tau(  56) = (   0.1509220   0.3784890   0.0012647  )
        57           Si  tau(  57) = (   0.6154550   0.6688450   0.7275640  )
        58           Si  tau(  58) = (   0.6030510   0.4418120   0.1632570  )
        59           Si  tau(  59) = (   0.9426450   0.0352496   0.5932220  )
        60           Si  tau(  60) = (   0.0473591   0.3702590   0.7006820  )
        61           Si  tau(  61) = (   0.9884370   0.1399660   0.2291480  )
        62           Si  tau(  62) = (   0.7435700   0.4072660   0.3346770  )
        63           Si  tau(  63) = (   0.7240810   0.4006780   0.7746280  )
        64           Si  tau(  64) = (   0.9246620   0.4487860   0.5419150  )

     number of k points=     1  Fermi-Dirac smearing, width (Ry)=  0.0100
                       cart. coord. in units 2pi/alat
        k(    1) = (   0.0000000   0.0000000   0.0000000), wk =   2.0000000

     Dense  grid:    88515 G-vectors     FFT dimensions: (  72,  72,  72)

     Estimated max dynamical RAM per process >     142.42 MB

     Estimated total dynamical RAM >     548.06 MB

     Initial potential from superposition of free atoms

     starting charge     255.9608, renormalised to     256.0000
     Starting wfcs are  256 randomized atomic wfcs

     total cpu time spent up to now is        4.5 secs

     Self-consistent Calculation

     iteration #  1     ecut=    30.00 Ry     beta= 0.50
     Davidson diagonalization with overlap
     ethr =  1.00E-02,  avg # of iterations =  3.0

     Threshold (ethr) on eigenvalues was too large:
     Diagonalizing with lowered threshold

     Davidson diagonalization with overlap
     ethr =  5.54E-04,  avg # of iterations =  4.0

     total cpu time spent up to now is        4.7 secs

     total energy              =    -500.42036774 Ry
     estimated scf accuracy    <       1.80684128 Ry

     iteration #  2     ecut=    30.00 Ry     beta= 0.50
     Davidson diagonalization with overlap
     ethr =  7.06E-04,  avg # of iterations =  5.0

     total cpu time spent up to now is        4.8 secs

     total energy              =    -499.88885048 Ry
     estimated scf accuracy    <       6.84792339 Ry

     iteration #  3     ecut=    30.00 Ry     beta= 0.50
     Davidson diagonalization with overlap
     ethr =  7.06E-04,  avg # of iterations =  4.0

     total cpu time spent up to now is        4.9 secs

     total energy              =    -500.54080254 Ry
     estimated scf accuracy    <       3.56013128 Ry

     iteration #  4     ecut=    30.00 Ry     beta= 0.50
     Davidson diagonalization with overlap
     ethr =  7.06E-04,  avg # of iterations =  3.0

     total cpu time spent up to now is        5.0 secs

     total energy              =    -500.81636127 Ry
     estimated scf accuracy    <       0.81181004 Ry

     iteration #  5     ecut=    30.00 Ry     beta= 0.50
     Davidson diagonalization with overlap
     ethr =  3.17E-04,  avg # of iterations =  2.0

     total cpu time spent up to now is        5.1 secs

     total energy              =    -500.87226258 Ry
     estimated scf accuracy    <       0.24577007 Ry

     iteration #  6     ecut=    30.00 Ry     beta= 0.50
     Davidson diagonalization with overlap
     ethr =  9.60E-05,  avg # of iterations =  2.0

     total cpu time spent up to now is        5.2 secs

     total energy              =    -500.89876524 Ry
     estimated scf accuracy    <       0.18268220 Ry

     iteration #  7     ecut=    30.00 Ry     beta= 0.50
     Davidson diagonalization with overlap
     ethr =  7.14E-05,  avg # of iterations =  1.0

     total cpu time spent up to now is        5.3 secs

     total energy              =    -500.91209702 Ry
     estimated scf accuracy    <       0.02441862 Ry

     iteration #  8     ecut=    30.00 Ry     beta= 0.50
     Davidson diagonalization with overlap
     ethr =  9.54E-06,  avg # of iterations = 20.0

     total cpu time spent up to now is        5.5 secs

     total energy              =    -500.91407550 Ry
     estimated scf accuracy    <       0.04515003 Ry

     iteration #  9     ecut=    30.00 Ry     beta= 0.50
     Davidson diagonalization with overlap
     ethr =  9.54E-06,  avg # of iterations =  2.0

     total cpu time spent up to now is        5.6 secs

     total energy              =    -500.91741133 Ry
     estimated scf accuracy    <       0.00370119 Ry

     iteration # 10     ecut=    30.00 Ry     beta= 0.50
     Davidson diagonalization with overlap
     ethr =  1.45E-06,  avg # of iterations =  4.0

     total cpu time spent up to now is        5.7 secs

     total energy              =    -500.91783074 Ry
     estimated scf accuracy    <       0.00154277 Ry

     iteration # 11     ecut=    30.00 Ry     beta= 0.50
     Davidson diagonalization with overlap
     ethr =  6.03E-07,  avg # of iterations =  4.0

     total cpu time spent up to now is        5.8 secs

     total energy              =    -500.91786858 Ry
     estimated scf accuracy    <       0.00211132 Ry

     iteration # 12     ecut=    30.00 Ry     beta= 0.50
     Davidson diagonalization with overlap
     ethr =  6.03E-07,  avg # of iterations =  2.0

     total cpu time spent up to now is        5.8 secs

     total energy              =    -500.91803048 Ry
     estimated scf accuracy    <       0.00042412 Ry

     iteration # 13     ecut=    30.00 Ry     beta= 0.50
     Davidson diagonalization with overlap
     ethr =  1.66E-07,  avg # of iterations =  2.0

     total cpu time spent up to now is        5.9 secs

     total energy              =    -500.91805769 Ry
     estimated scf accuracy    <       0.00024100 Ry

     iteration # 14     ecut=    30.00 Ry     beta= 0.50
     Davidson diagonalization with overlap
     ethr =  9.41E-08,  avg # of iterations =  2.0

     total cpu time spent up to now is        6.0 secs

     total energy              =    -500.91807989 Ry
     estimated scf accuracy    <       0.00003558 Ry

     iteration # 15     ecut=    30.00 Ry     beta= 0.50
     Davidson diagonalization with overlap
     ethr =  1.39E-08,  avg # of iterations =  3.0

     total cpu time spent up to now is        6.1 secs

     total energy              =    -500.91807910 Ry
     estimated scf accuracy    <       0.00004228 Ry

     iteration # 16     ecut=    30.00 Ry     beta= 0.50
     Davidson diagonalization with overlap
     ethr =  1.39E-08,  avg # of iterations =  2.0

     total cpu time spent up to now is        6.2 secs

     total energy              =    -500.91808338 Ry
     estimated scf accuracy    <       0.00002992 Ry

     iteration # 17     ecut=    30.00 Ry     beta= 0.50
     Davidson diagonalization with overlap
     ethr =  1.17E-08,  avg # of iterations =  1.0

     total cpu time spent up to now is        6.3 secs

     total energy              =    -500.91808502 Ry
     estimated scf accuracy    <       0.00000376 Ry

     iteration # 18     ecut=    30.00 Ry     beta= 0.50
     Davidson diagonalization with overlap
     ethr =  1.47E-09,  avg # of iterations =  3.0

     total cpu time spent up to now is        6.3 secs

     total energy              =    -500.91808547 Ry
     estimated scf accuracy    <       0.00000165 Ry

     iteration # 19     ecut=    30.00 Ry     beta= 0.50
     Davidson diagonalization with overlap
     ethr =  6.45E-10,  avg # of iterations =  3.0

     total cpu time spent up to now is        6.4 secs

     total energy              =    -500.91808560 Ry
     estimated scf accuracy    <       0.00000126 Ry

     iteration # 20     ecut=    30.00 Ry     beta= 0.50
     Davidson diagonalization with overlap
     ethr =  4.92E-10,  avg # of iterations =  2.0

     total cpu time spent up to now is        6.5 secs

     End of self-consistent calculation

          k = 0.0000 0.0000 0.0000 ( 11060 PWs)   bands (ev):

    -5.6908  -4.9452  -4.7919  -4.5448  -4.3870  -4.2455  -4.0540  -3.9002
    -3.7958  -3.6663  -3.4663  -3.2480  -3.2225  -3.1741  -2.9647  -2.9046
    -2.7467  -2.6131  -2.5117  -2.3755  -2.1867  -2.0065  -1.9075  -1.6468
    -1.4586  -1.2814  -1.2357  -1.0644  -0.7929  -0.7520  -0.6870  -0.4282
    -0.3561  -0.2704  -0.1887  -0.0561   0.0311   0.1336   0.2012   0.2790
     0.4412   0.4607   0.6068   0.6519   0.7515   0.8137   0.8811   1.1324
     1.2099   1.3821   1.4423   1.4495   1.5125   1.5766   1.6192   1.7229
     1.8228   1.9518   2.0312   2.1211   2.2106   2.3899   2.4290   2.4961
     2.5817   2.6361   2.7844   2.8383   2.9003   3.0198   3.0828   3.1091
     3.2170   3.3021   3.3414   3.5125   3.6217   3.6439   3.8603   3.9186
     4.0183   4.1444   4.2522   4.4028   4.4752   4.5677   4.6503   4.7790
     4.8608   5.0134   5.0473   5.0847   5.1444   5.1866   5.3058   5.3645
     5.4436   5.4667   5.4839   5.5869   5.6246   5.6644   5.6895   5.7797
     5.9196   5.9944   6.0389   6.0939   6.1782   6.2104   6.2708   6.3564
     6.4460   6.4980   6.5891   6.5975   6.6741   6.7240   6.7846   6.8458
     6.9029   6.9669   7.0680   7.1019   7.1576   7.2540   7.2707   7.3404
     7.3902   7.4542   7.4843   7.5258   7.5825   7.6656   7.7283   7.7467
     7.8224   7.9419   7.9718   8.0793   8.1045   8.1584   8.2690   8.3133
     8.3706   8.3893   8.4437   8.4599   8.5563   8.6503   8.7416   8.7792
     8.8384   8.8945

     the Fermi energy is     7.3571 ev

!    total energy              =    -500.91808543 Ry
     estimated scf accuracy    <       0.00000037 Ry
     smearing contrib. (-TS)   =      -0.15841130 Ry
     internal energy E=F+TS    =    -500.75967413 Ry

     The total energy is F=E-TS. E is the sum of the following terms:
     one-electron contribution =     174.71958745 Ry
     hartree contribution      =      32.36429499 Ry
     xc contribution           =    -152.46347078 Ry
     ewald contribution        =    -555.38008579 Ry

     convergence has been achieved in  20 iterations

     Forces acting on atoms (cartesian axes, Ry/au):

     atom    1 type  1   force =    -0.00933554    0.02587206   -0.00944723
     atom    2 type  1   force =     0.02142807    0.07126999    0.06923379
     atom    3 type  1   force =     0.00220513   -0.00521631   -0.01258126
     atom    4 type  1   force =     0.01040818   -0.02050385    0.01142893
     atom    5 type  1   force =    -0.03469957   -0.01905546   -0.04401358
     atom    6 type  1   force =    -0.00713034    0.02120973   -0.02688723
     atom    7 type  1   force =     0.01633593   -0.00961692    0.02677724
     atom    8 type  1   force =     0.05193084    0.06771110   -0.06545189
     atom    9 type  1   force =     0.04912176    0.02669936   -0.04132166
     atom   10 type  1   force =     0.02917994   -0.03218812   -0.00765304
     atom   11 type  1   force =    -0.04335390    0.01994188    0.00548118
     atom   12 type  1   force =     0.00170854   -0.01749687   -0.05383939
     atom   13 type  1   force =     0.06806104    0.03898438   -0.02167994
     atom   14 type  1   force =    -0.00134047   -0.04358335   -0.01443095
     atom   15 type  1   force =     0.03011178   -0.03590773   -0.01825134
     atom   16 type  1   force =    -0.01055050   -0.03645745    0.02759183
     atom   17 type  1   force =     0.05672966    0.03151968    0.04666630
     atom   18 type  1   force =     0.13814251   -0.09929535    0.02071831
     atom   19 type  1   force =    -0.00822483   -0.00820058    0.03007416
     atom   20 type  1   force =    -0.06378089    0.03921685    0.00179603
     atom   21 type  1   force =    -0.03990709   -0.01024067   -0.00809639
     atom   22 type  1   force =    -0.02422565   -0.02493344    0.03249308
     atom   23 type  1   force =     0.01695157   -0.00823025    0.00539909
     atom   24 type  1   force =     0.04041333   -0.02179321    0.02833908
     atom   25 type  1   force =    -0.04863258   -0.03714444   -0.08229239
     atom   26 type  1   force =     0.01143864   -0.04768656    0.04108925
     atom   27 type  1   force =    -0.01831806   -0.03125001    0.06472623
     atom   28 type  1   force =    -0.00249634   -0.00006668   -0.01770843
     atom   29 type  1   force =    -0.00557400   -0.02569074   -0.01935808
     atom   30 type  1   force =     0.01431509    0.00317502   -0.04376851
     atom   31 type  1   force =    -0.02331534   -0.01846973    0.02377666
     atom   32 type  1   force =     0.00383228   -0.01912975   -0.00667711
     atom   33 type  1   force =    -0.00690417    0.02220179   -0.02938888
     atom   34 type  1   force =     0.01641853   -0.00486419   -0.00341759
     atom   35 type  1   force =    -0.00815639    0.01101549   -0.03062517
     atom   36 type  1   force =     0.00016669   -0.01774751    0.04892158
     atom   37 type  1   force =    -0.01933089    0.03348067    0.03905379
     atom   38 type  1   force =    -0.00358889   -0.00245005    0.01765747
     atom   39 type  1   force =    -0.00125913   -0.02405091   -0.00470959
     atom   40 type  1   force =    -0.00312867   -0.00830481   -0.00540831
     atom   41 type  1   force =     0.00087120    0.00289299   -0.03109402
     atom   42 type  1   force =    -0.03111785   -0.00805022   -0.00683660
     atom   43 type  1   force =     0.04739941    0.03334720    0.03942612
     atom   44 type  1   force =     0.02608426    0.02321567   -0.02859790
     atom   45 type  1   force =    -0.03052913    0.06175152   -0.01168834
     atom   46 type  1   force =     0.05087039    0.08290327    0.02047497
     atom   47 type  1   force =    -0.02753623   -0.02077760    0.03165224
     atom   48 type  1   force =    -0.01647312    0.01160063    0.00480030
     atom   49 type  1   force =     0.01182277   -0.04211254   -0.04815886
     atom   50 type  1   force =    -0.01457835   -0.00618857    0.02499012
     atom   51 type  1   force =    -0.11033636    0.02669639   -0.04133742
     atom   52 type  1   force =    -0.01097408   -0.02589592   -0.00157281
     atom   53 type  1   force =     0.00427199    0.01998554    0.03709357
     atom   54 type  1   force =     0.02456686   -0.03124805   -0.07158982
     atom   55 type  1   force =    -0.00678263    0.01302608    0.03057472
     atom   56 type  1   force =    -0.01273147   -0.01279760    0.00137762
     atom   57 type  1   force =    -0.03454199    0.00872124    0.04678440
     atom   58 type  1   force =     0.00211601   -0.03482304   -0.00210278
     atom   59 type  1   force =    -0.01479773   -0.00027930   -0.01008240
     atom   60 type  1   force =    -0.00305821   -0.01271465    0.05845810
     atom   61 type  1   force =     0.02974889   -0.01294850   -0.01251901
     atom   62 type  1   force =     0.01533171   -0.01157480    0.01665003
     atom   63 type  1   force =    -0.07923555    0.12715446    0.03777745
     atom   64 type  1   force =    -0.01603709    0.02539277   -0.05869567

     Total force =     0.485307     Total SCF correction =     0.001233


     Computing stress (Cartesian axis) and pressure

          total   stress  (Ry/bohr**3)                   (kbar)     P=       20.25
   0.00002514  -0.00005793   0.00001512            3.70       -8.52        2.22
  -0.00005793   0.00018681  -0.00002111           -8.52       27.48       -3.11
   0.00001512  -0.00002111   0.00020100            2.22       -3.11       29.57

 
     init_run     :      0.95s CPU      4.46s WALL (       1 calls)
     electrons    :      1.82s CPU      2.00s WALL (       1 calls)
     forces       :      0.03s CPU      0.03s WALL (       1 calls)
     stress       :      0.14s CPU      0.14s WALL (       1 calls)

     Called by init_run:
     wfcinit      :      0.45s CPU      3.79s WALL (       1 calls)
                                        3.79s GPU  (       1 calls)
     potinit      :      0.04s CPU      0.13s WALL (       1 calls)
     hinit0       :      0.45s CPU      0.48s WALL (       1 calls)

     Called by electrons:
     c_bands      :      1.18s CPU      1.26s WALL (      21 calls)
     sum_band     :      0.34s CPU      0.39s WALL (      21 calls)
     v_of_rho     :      0.14s CPU      0.24s WALL (      21 calls)
     mix_rho      :      0.14s CPU      0.16s WALL (      21 calls)

     Called by c_bands:
     init_us_2    :      0.05s CPU      0.06s WALL (      43 calls)
     init_us_2:gp :      0.05s CPU      0.06s WALL (      43 calls)
     regterg      :      1.02s CPU      1.09s WALL (      21 calls)

     Called by *egterg:
     rdiaghg      :      0.43s CPU      1.11s WALL (      94 calls)
                                        1.09s GPU  (      94 calls)
     h_psi        :      0.87s CPU      3.58s WALL (      96 calls)
                                        3.57s GPU  (      96 calls)
     g_psi        :      0.00s CPU      0.00s WALL (      74 calls)
                                        0.00s GPU  (      74 calls)

     Called by h_psi:
     h_psi:calbec :      0.44s CPU      3.07s WALL (      96 calls)
                                        3.07s GPU  (      96 calls)
     vloc_psi     :      0.39s CPU      0.45s WALL (      96 calls)
                                        0.44s GPU  (      96 calls)
     add_vuspsi   :      0.03s CPU      0.05s WALL (      96 calls)
                                        0.05s GPU  (      96 calls)

     General routines
     calbec       :      0.44s CPU      3.07s WALL (     101 calls)
     fft          :      0.55s CPU      0.68s WALL (     175 calls)
                                        0.12s GPU  (     111 calls)
     ffts         :      0.03s CPU      0.04s WALL (      21 calls)
     fftw         :      0.47s CPU      0.61s WALL (    2205 calls)
                                        0.53s GPU  (    2205 calls)
 
     Parallel routines
 
     PWSCF        :      2.97s CPU      6.70s WALL

 
   This run was terminated on:  12:14:34  11May2023            

=------------------------------------------------------------------------------=
   JOB DONE.
=------------------------------------------------------------------------------=
