ITEM: TIMESTEP
0
ITEM: NUMBER OF ATOMS
64
ITEM: BOX BOUNDS pp pp pp
-1.0620985549349982e-03 1.0862462098555156e+01
-1.0620985549349982e-03 1.0862462098555156e+01
-1.0620985549349982e-03 1.0862462098555156e+01
ITEM: ATOMS id type xs ys zs
5 1 0.375644 0.228578 0.445536
52 1 0.156961 0.104231 0.297459
25 1 0.318701 0.405415 0.241539
53 1 0.395219 0.22285 0.18511
32 1 0.0234679 0.346811 0.43008
26 1 0.0557431 0.255725 0.186685
43 1 0.163276 0.115358 0.0643151
17 1 0.522399 0.056644 0.246843
49 1 0.809122 0.28377 0.134776
55 1 0.569887 0.339936 0.481624
4 1 0.762509 0.481811 0.227057
28 1 0.748068 0.0209672 0.300048
34 1 0.601706 0.227904 0.0241914
2 1 0.592097 0.310797 0.228116
38 1 0.812299 0.0670769 0.0773698
45 1 0.215987 0.661999 0.253496
23 1 0.318443 0.824303 0.369593
64 1 0.410693 0.52572 0.0858598
12 1 0.0380003 0.790293 0.101381
31 1 0.0436047 0.530244 0.218324
39 1 0.387503 0.507152 0.430951
54 1 0.223798 0.894952 0.169936
29 1 0.631085 0.760338 0.155929
44 1 0.920216 0.792959 0.301144
57 1 0.52558 0.646019 0.334035
63 1 0.866364 0.649335 0.146148
50 1 0.524115 0.869252 0.354305
3 1 0.947328 0.967258 0.388769
1 1 0.642721 0.748035 0.492705
60 1 0.795395 0.627405 0.424161
40 1 0.0646331 0.272215 0.653513
24 1 0.362991 0.375568 0.96516
21 1 0.340987 0.0446934 0.596356
56 1 0.171677 0.252767 0.876068
48 1 0.266221 0.354783 0.701332
62 1 0.126906 0.489835 0.612118
36 1 0.476341 0.307696 0.778963
42 1 0.994165 0.397647 0.986541
18 1 0.709236 0.439206 0.753977
20 1 0.539024 0.0891798 0.867153
7 1 0.772292 0.0345123 0.53532
27 1 0.94702 0.0812548 0.917128
14 1 0.787385 0.237785 0.633905
30 1 0.546269 0.164114 0.631378
13 1 0.692034 0.441074 0.958623
22 1 0.797411 0.0436355 0.747044
15 1 0.905717 0.293852 0.821307
58 1 0.909747 0.482218 0.568595
11 1 0.998803 0.0679919 0.602595
8 1 0.342028 0.983055 0.978075
41 1 0.0894137 0.903149 0.672916
46 1 0.384267 0.542664 0.648052
16 1 0.296269 0.836589 0.580214
47 1 0.383055 0.644936 0.904898
37 1 0.48473 0.860063 0.830037
51 1 0.0679855 0.543325 0.832615
33 1 0.485876 0.738137 0.635634
6 1 0.182415 0.655243 0.990241
10 1 0.0687017 0.931812 0.906092
59 1 0.599468 0.617844 0.881045
9 1 0.681417 0.853144 0.699466
61 1 0.784803 0.807 0.96449
19 1 0.819496 0.671312 0.661199
35 1 0.955511 0.73748 0.82836
ITEM: TIMESTEP
10
ITEM: NUMBER OF ATOMS
64
ITEM: BOX BOUNDS pp pp pp
-8.9561151297257169e-04 1.0862295611513193e+01
-8.9561151297257169e-04 1.0862295611513193e+01
-8.9561151297257169e-04 1.0862295611513193e+01
ITEM: ATOMS id type xs ys zs
5 1 0.373771 0.218678 0.44946
52 1 0.156132 0.100479 0.298069
25 1 0.311687 0.400641 0.242143
53 1 0.386788 0.226196 0.184645
32 1 0.0149277 0.339055 0.421973
26 1 0.0471006 0.261078 0.198662
43 1 0.164617 0.115761 0.0710288
17 1 0.515608 0.0520122 0.239761
49 1 0.815834 0.285951 0.128807
55 1 0.581841 0.339626 0.470055
4 1 0.766028 0.47975 0.240724
28 1 0.750785 0.0133038 0.302895
34 1 0.59464 0.212989 0.0108567
2 1 0.598388 0.319156 0.235377
38 1 0.817937 0.0531595 0.0680567
45 1 0.220807 0.661085 0.248932
23 1 0.324598 0.823684 0.368286
64 1 0.409213 0.517824 0.0862413
12 1 0.0275819 0.788208 0.101508
31 1 0.0377297 0.531851 0.215412
39 1 0.380576 0.516286 0.434962
54 1 0.225039 0.897438 0.176556
29 1 0.63075 0.744418 0.154157
44 1 0.932926 0.794794 0.297693
57 1 0.531663 0.645908 0.332191
63 1 0.861944 0.64237 0.145447
50 1 0.524411 0.871312 0.340652
3 1 0.949146 0.968349 0.391034
1 1 0.644085 0.751825 0.491713
60 1 0.80609 0.636477 0.415296
40 1 0.0653741 0.272426 0.665409
24 1 0.361205 0.376179 0.971467
21 1 0.350771 0.0465482 0.59147
56 1 0.170524 0.255823 0.875353
48 1 0.266573 0.346953 0.703266
62 1 0.12514 0.505555 0.613021
36 1 0.470818 0.314839 0.779872
42 1 0.995462 0.4075 0.985433
18 1 0.70759 0.432259 0.748102
20 1 0.532907 0.0848686 0.872596
7 1 0.774973 0.0438045 0.54056
27 1 0.949621 0.0861438 0.912742
14 1 0.787511 0.248658 0.625021
30 1 0.548242 0.165781 0.623982
13 1 0.700439 0.441187 0.962747
22 1 0.801389 0.040269 0.740977
15 1 0.892725 0.288146 0.825638
58 1 0.91114 0.482681 0.57367
11 1 0.998994 0.070372 0.604158
8 1 0.342027 0.986457 0.973669
41 1 0.0882688 0.90909 0.673383
46 1 0.374564 0.539304 0.651589
16 1 0.29722 0.839715 0.584547
47 1 0.390313 0.654237 0.894217
37 1 0.4915 0.861884 0.843299
51 1 0.0597594 0.542991 0.836218
33 1 0.483607 0.735785 0.64374
6 1 0.183387 0.658321 0.988025
10 1 0.0781647 0.917533 0.897419
59 1 0.592555 0.629822 0.881395
9 1 0.674355 0.853228 0.701864
61 1 0.781714 0.807773 0.968855
19 1 0.825561 0.678825 0.668411
35 1 0.955194 0.724294 0.833193
ITEM: TIMESTEP
20
ITEM: NUMBER OF ATOMS
64
ITEM: BOX BOUNDS pp pp pp
-2.4127607169344145e-04 1.0861641276071914e+01
-2.4127607169344145e-04 1.0861641276071914e+01
-2.4127607169344145e-04 1.0861641276071914e+01
ITEM: ATOMS id type xs ys zs
5 1 0.371458 0.208969 0.452057
52 1 0.154767 0.0940307 0.300166
25 1 0.301749 0.402547 0.247111
53 1 0.381081 0.223456 0.1822
32 1 0.00652454 0.331853 0.414394
26 1 0.036216 0.269576 0.210078
43 1 0.167555 0.115544 0.0758356
17 1 0.511037 0.0514049 0.23175
49 1 0.82315 0.287199 0.122123
55 1 0.592552 0.338605 0.457328
4 1 0.768277 0.47627 0.255862
28 1 0.751762 0.00667253 0.30416
34 1 0.591113 0.204771 0.0037468
2 1 0.604851 0.327142 0.242915
38 1 0.820298 0.038452 0.0635536
45 1 0.226483 0.659511 0.243059
23 1 0.325459 0.821687 0.365867
64 1 0.410431 0.520671 0.0933341
12 1 0.0191442 0.787855 0.0993947
31 1 0.0336704 0.530538 0.211938
39 1 0.374539 0.523602 0.436387
54 1 0.226396 0.900345 0.182351
29 1 0.631218 0.728244 0.15071
44 1 0.944359 0.789865 0.293454
57 1 0.536968 0.643539 0.328778
63 1 0.85531 0.638582 0.141886
50 1 0.529405 0.872458 0.326514
3 1 0.953403 0.976521 0.397578
1 1 0.644334 0.75672 0.492729
60 1 0.819262 0.644053 0.405209
40 1 0.0638354 0.271476 0.676475
24 1 0.355846 0.365011 0.970338
21 1 0.362283 0.0511375 0.585731
56 1 0.169505 0.258445 0.878069
48 1 0.269163 0.340166 0.704178
62 1 0.124309 0.522295 0.61516
36 1 0.466596 0.32242 0.782142
42 1 0.996413 0.415668 0.987639
18 1 0.706027 0.425851 0.740572
20 1 0.523022 0.0764231 0.872572
7 1 0.775239 0.0520928 0.5386
27 1 0.951934 0.0938293 0.905991
14 1 0.786625 0.262343 0.615831
30 1 0.549576 0.166786 0.616431
13 1 0.708692 0.440347 0.969318
22 1 0.805985 0.0358496 0.741662
15 1 0.879895 0.282176 0.82877
58 1 0.910027 0.483236 0.578239
11 1 0.996629 0.0776008 0.602017
8 1 0.340922 0.989144 0.96955
41 1 0.0935835 0.907415 0.677637
46 1 0.364777 0.535637 0.656428
16 1 0.296638 0.843585 0.589047
47 1 0.392245 0.663956 0.884075
37 1 0.498272 0.863715 0.858196
51 1 0.0543012 0.542651 0.839065
33 1 0.47981 0.733034 0.652699
6 1 0.18436 0.661633 0.986167
10 1 0.0896367 0.899653 0.888745
59 1 0.592364 0.641092 0.881981
9 1 0.668989 0.853913 0.704394
61 1 0.778534 0.807872 0.974915
19 1 0.830147 0.685878 0.673464
35 1 0.953276 0.715901 0.839329
ITEM: TIMESTEP
30
ITEM: NUMBER OF ATOMS
64
ITEM: BOX BOUNDS pp pp pp
1.0376592283245500e-03 1.0860362340771895e+01
1.0376592283245500e-03 1.0860362340771895e+01
1.0376592283245500e-03 1.0860362340771895e+01
ITEM: ATOMS id type xs ys zs
5 1 0.368668 0.202153 0.450743
52 1 0.151827 0.086072 0.303738
25 1 0.289824 0.409043 0.2555
53 1 0.377152 0.217851 0.178376
32 1 0.997298 0.325942 0.410316
26 1 0.0253951 0.278254 0.218612
43 1 0.171602 0.11574 0.0793619
17 1 0.508785 0.0556572 0.221797
49 1 0.830252 0.287557 0.11417
55 1 0.602225 0.336784 0.446636
4 1 0.770686 0.472218 0.272244
28 1 0.751034 0.0010202 0.303771
34 1 0.591328 0.203785 0.00396139
2 1 0.610836 0.333668 0.247286
38 1 0.820276 0.0226013 0.0627054
45 1 0.232485 0.656636 0.235561
23 1 0.322807 0.818584 0.363977
64 1 0.41234 0.529177 0.103042
12 1 0.0138935 0.788912 0.0929944
31 1 0.0317063 0.526804 0.207725
39 1 0.369108 0.530083 0.435027
54 1 0.227352 0.903844 0.186798
29 1 0.632556 0.711706 0.144754
44 1 0.954883 0.783442 0.292342
57 1 0.540919 0.638632 0.325583
63 1 0.846095 0.636524 0.136036
50 1 0.538529 0.870456 0.312841
3 1 0.95969 0.987604 0.405332
1 1 0.644257 0.761372 0.495132
60 1 0.832651 0.650667 0.395967
40 1 0.0601393 0.270621 0.686408
24 1 0.348986 0.348311 0.967607
21 1 0.374786 0.0542601 0.581031
56 1 0.167916 0.259853 0.884794
48 1 0.271723 0.334454 0.702608
62 1 0.124663 0.538928 0.619683
36 1 0.466099 0.329996 0.784887
42 1 0.995714 0.420474 0.993886
18 1 0.70369 0.420623 0.734499
20 1 0.509898 0.065489 0.866847
7 1 0.772986 0.0602947 0.530831
27 1 0.956405 0.100087 0.898745
14 1 0.785289 0.277504 0.604879
30 1 0.55137 0.168459 0.6089
13 1 0.716946 0.439269 0.975933
22 1 0.810694 0.0301594 0.74727
15 1 0.866539 0.278217 0.830908
58 1 0.907228 0.483695 0.582224
11 1 0.993939 0.0860152 0.597978
8 1 0.337141 0.990611 0.966327
41 1 0.103112 0.902166 0.681864
46 1 0.355014 0.532097 0.662158
16 1 0.295882 0.848903 0.592332
47 1 0.386583 0.673244 0.874521
37 1 0.505151 0.864498 0.87432
51 1 0.0539349 0.541046 0.839571
33 1 0.474526 0.729711 0.66154
6 1 0.186006 0.665271 0.984563
10 1 0.10119 0.881076 0.88262
59 1 0.600345 0.650597 0.883824
9 1 0.6658 0.855049 0.706776
61 1 0.775408 0.807925 0.982456
19 1 0.83226 0.692475 0.674563
35 1 0.948405 0.714749 0.848213
ITEM: TIMESTEP
40
ITEM: NUMBER OF ATOMS
64
ITEM: BOX BOUNDS pp pp pp
2.9358867305191438e-03 1.0858464113269701e+01
2.9358867305191438e-03 1.0858464113269701e+01
2.9358867305191438e-03 1.0858464113269701e+01
ITEM: ATOMS id type xs ys zs
5 1 0.364874 0.201111 0.443095
52 1 0.147295 0.0784031 0.308347
25 1 0.278016 0.416402 0.264806
53 1 0.37247 0.214646 0.174032
32 1 0.986273 0.322542 0.414298
26 1 0.0173349 0.284638 0.220386
43 1 0.176244 0.116608 0.0820644
17 1 0.50993 0.0623192 0.210837
49 1 0.83574 0.287076 0.104972
55 1 0.610787 0.334401 0.443103
4 1 0.774767 0.469288 0.288747
28 1 0.74933 0.996596 0.301715
34 1 0.593119 0.206417 0.00851911
2 1 0.615358 0.337571 0.243355
38 1 0.81975 0.00741298 0.0640307
45 1 0.237978 0.652677 0.226798
23 1 0.319417 0.814862 0.363458
64 1 0.413695 0.538608 0.112606
12 1 0.0117685 0.790993 0.0831554
31 1 0.0313148 0.522037 0.202981
39 1 0.364434 0.536163 0.432177
54 1 0.227753 0.907622 0.189066
29 1 0.633414 0.696031 0.13664
44 1 0.966072 0.780271 0.294361
57 1 0.543077 0.631884 0.323923
63 1 0.836526 0.633981 0.129658
50 1 0.549508 0.86553 0.300577
3 1 0.96635 0.997397 0.410531
1 1 0.644392 0.764478 0.498008
60 1 0.842764 0.654637 0.390436
40 1 0.0553094 0.270909 0.695066
24 1 0.343778 0.332352 0.968504
21 1 0.386333 0.0513824 0.579991
56 1 0.164268 0.259391 0.893654
48 1 0.272227 0.32867 0.698743
62 1 0.125293 0.554058 0.626243
36 1 0.470568 0.337343 0.786908
42 1 0.993614 0.421832 0.00352516
18 1 0.699391 0.417762 0.732494
20 1 0.497597 0.0601901 0.858348
7 1 0.769014 0.0685562 0.521905
27 1 0.962645 0.103216 0.894059
14 1 0.784968 0.290971 0.59085
30 1 0.555436 0.172024 0.601558
13 1 0.724899 0.438497 0.981454
22 1 0.81434 0.0237908 0.753141
15 1 0.852481 0.277342 0.831569
58 1 0.904383 0.4843 0.585437
11 1 0.992483 0.0924214 0.594786
8 1 0.32907 0.98988 0.96516
41 1 0.113083 0.897876 0.682198
46 1 0.346225 0.529679 0.667413
16 1 0.296963 0.854922 0.592956
47 1 0.377291 0.680787 0.865553
37 1 0.511975 0.860916 0.890816
51 1 0.0580277 0.538917 0.837675
33 1 0.468292 0.72627 0.669103
6 1 0.188554 0.668915 0.983323
10 1 0.11262 0.863349 0.882102
59 1 0.612062 0.658094 0.886877
9 1 0.664753 0.856371 0.70899
61 1 0.77211 0.807951 0.990191
19 1 0.831954 0.698253 0.6716
35 1 0.94047 0.719126 0.859019
ITEM: TIMESTEP
50
ITEM: NUMBER OF ATOMS
64
ITEM: BOX BOUNDS pp pp pp
5.4443044545466890e-03 1.0855955695545674e+01
5.4443044545466890e-03 1.0855955695545674e+01
5.4443044545466890e-03 1.0855955695545674e+01
ITEM: ATOMS id type xs ys zs
5 1 0.359596 0.203785 0.430584
52 1 0.1424 0.0723554 0.31316
25 1 0.266635 0.422531 0.273791
53 1 0.365494 0.215974 0.169809
32 1 0.972304 0.321159 0.42642
26 1 0.0126169 0.28875 0.216776
43 1 0.180779 0.118099 0.0848362
17 1 0.515305 0.0687227 0.199645
49 1 0.838693 0.284984 0.0944562
55 1 0.618671 0.331749 0.445657
4 1 0.78086 0.467694 0.305566
28 1 0.747219 0.993263 0.29801
34 1 0.594787 0.209901 0.0152852
2 1 0.618563 0.339309 0.23098
38 1 0.82042 0.994878 0.0671571
45 1 0.242488 0.648731 0.216909
23 1 0.316511 0.810378 0.36406
64 1 0.415139 0.547728 0.122147
12 1 0.0112865 0.793898 0.0725903
31 1 0.0318938 0.517906 0.198703
39 1 0.360602 0.542567 0.429629
54 1 0.227865 0.911091 0.189103
29 1 0.630626 0.681383 0.12755
44 1 0.980441 0.782191 0.296613
57 1 0.543839 0.624071 0.323837
63 1 0.82995 0.628602 0.124135
50 1 0.561069 0.859166 0.289344
3 1 0.971414 0.00364082 0.411565
1 1 0.644942 0.765585 0.500804
60 1 0.848013 0.654915 0.390067
40 1 0.0497388 0.272717 0.703195
24 1 0.342717 0.318785 0.973699
21 1 0.396818 0.044734 0.581374
56 1 0.156668 0.256851 0.902491
48 1 0.270977 0.321317 0.693853
62 1 0.125138 0.568147 0.633292
36 1 0.478278 0.344702 0.787826
42 1 0.991539 0.421223 0.0136762
18 1 0.692632 0.41692 0.734773
20 1 0.486957 0.0621078 0.848194
7 1 0.764215 0.0769105 0.513966
27 1 0.969696 0.104387 0.892622
14 1 0.786908 0.301815 0.573345
30 1 0.562142 0.177782 0.594226
13 1 0.732389 0.438879 0.985758
22 1 0.816695 0.0175183 0.757271
15 1 0.837902 0.277862 0.830887
58 1 0.902942 0.486173 0.58801
11 1 0.992329 0.0967444 0.594491
8 1 0.317112 0.986286 0.965857
41 1 0.120762 0.896608 0.679377
46 1 0.338863 0.528703 0.671546
16 1 0.301609 0.859881 0.590006
47 1 0.367519 0.686363 0.857695
37 1 0.518712 0.85375 0.908291
51 1 0.0635564 0.537452 0.835835
33 1 0.461922 0.7235 0.674224
6 1 0.192231 0.671722 0.982885
10 1 0.124968 0.847145 0.885976
59 1 0.624605 0.663784 0.890154
9 1 0.664944 0.857546 0.71151
61 1 0.767887 0.80742 0.996655
19 1 0.830255 0.703262 0.665882
35 1 0.930179 0.724912 0.869865
ITEM: TIMESTEP
60
ITEM: NUMBER OF ATOMS
64
ITEM: BOX BOUNDS pp pp pp
8.4464999321403056e-03 1.0852953500068079e+01
8.4464999321403056e-03 1.0852953500068079e+01
8.4464999321403056e-03 1.0852953500068079e+01
ITEM: ATOMS id type xs ys zs
5 1 0.353108 0.206413 0.416775
52 1 0.140149 0.0693693 0.316514
25 1 0.25578 0.425855 0.281707
53 1 0.357633 0.220676 0.167997
32 1 0.957104 0.320789 0.441309
26 1 0.0109111 0.290635 0.213028
43 1 0.183431 0.119942 0.0882293
17 1 0.524003 0.0738637 0.189246
49 1 0.838302 0.279235 0.0836018
55 1 0.624096 0.330271 0.446899
4 1 0.787183 0.465822 0.321571
28 1 0.745196 0.991293 0.292933
34 1 0.595737 0.213113 0.0227759
2 1 0.621714 0.340237 0.21545
38 1 0.823871 0.987904 0.0726986
45 1 0.244797 0.6468 0.206871
23 1 0.314171 0.80478 0.36477
64 1 0.418708 0.555525 0.131327
12 1 0.010714 0.797671 0.0646914
31 1 0.0335768 0.51684 0.197257
39 1 0.357805 0.549794 0.429026
54 1 0.228244 0.913424 0.187596
29 1 0.621685 0.668274 0.119379
44 1 0.997178 0.787812 0.298159
57 1 0.543924 0.616379 0.324912
63 1 0.828893 0.619543 0.12062
50 1 0.572052 0.85247 0.27927
3 1 0.97202 0.00470165 0.40933
1 1 0.645842 0.764598 0.50313
60 1 0.849592 0.653682 0.394204
40 1 0.0435165 0.276252 0.711007
24 1 0.346041 0.308304 0.980007
21 1 0.407454 0.0406176 0.583118
56 1 0.145695 0.253165 0.910211
48 1 0.269408 0.3125 0.689145
62 1 0.123597 0.581412 0.638506
36 1 0.485406 0.351385 0.787879
42 1 0.991267 0.419932 0.0195864
18 1 0.684809 0.417193 0.739045
20 1 0.477055 0.0666463 0.837483
7 1 0.759789 0.0845558 0.507218
27 1 0.975905 0.105098 0.893897
14 1 0.791392 0.309737 0.556481
30 1 0.569385 0.184015 0.587705
13 1 0.738328 0.441605 0.98841
22 1 0.818446 0.0125313 0.759631
15 1 0.824485 0.277374 0.829445
58 1 0.90402 0.49079 0.590452
11 1 0.993165 0.0988898 0.597775
8 1 0.304379 0.979973 0.967096
41 1 0.124452 0.898587 0.676655
46 1 0.333368 0.528463 0.674491
16 1 0.309441 0.861542 0.583388
47 1 0.358621 0.689938 0.852359
37 1 0.523943 0.847845 0.925703
51 1 0.0678479 0.536848 0.837012
33 1 0.457033 0.722405 0.675059
6 1 0.197104 0.670661 0.984831
10 1 0.137645 0.836071 0.888827
59 1 0.637292 0.666638 0.89194
9 1 0.665285 0.858079 0.714582
61 1 0.761948 0.805875 0.000945547
19 1 0.828157 0.707321 0.658981
35 1 0.919128 0.728954 0.87775
ITEM: TIMESTEP
70
ITEM: NUMBER OF ATOMS
64
ITEM: BOX BOUNDS pp pp pp
1.1663851259899438e-02 1.0849736148740321e+01
1.1663851259899438e-02 1.0849736148740321e+01
1.1663851259899438e-02 1.0849736148740321e+01
ITEM: ATOMS id type xs ys zs
5 1 0.345133 0.207508 0.402919
52 1 0.142523 0.0699682 0.317675
25 1 0.24497 0.426122 0.28904
53 1 0.351333 0.226568 0.172378
32 1 0.948077 0.320518 0.451815
26 1 0.0110921 0.29032 0.211872
43 1 0.18263 0.121543 0.0922014
17 1 0.534363 0.0774467 0.180603
49 1 0.835277 0.268347 0.0728566
55 1 0.624261 0.332111 0.440684
4 1 0.792024 0.462148 0.33547
28 1 0.74345 0.991161 0.287098
34 1 0.595913 0.215872 0.0290266
2 1 0.626192 0.341808 0.20066
38 1 0.831181 0.986408 0.0804103
45 1 0.243655 0.647939 0.197804
23 1 0.31205 0.797379 0.364357
64 1 0.425778 0.561013 0.139633
12 1 0.00909497 0.802825 0.0612811
31 1 0.0367705 0.519854 0.200108
39 1 0.35547 0.558468 0.430801
54 1 0.229153 0.914105 0.185316
29 1 0.608617 0.656354 0.113014
44 1 0.0146203 0.794752 0.299552
57 1 0.544333 0.609403 0.327032
63 1 0.831521 0.607744 0.11935
50 1 0.582015 0.845375 0.269883
3 1 0.966682 0.000882485 0.406188
1 1 0.64697 0.761589 0.504895
60 1 0.850213 0.654544 0.401237
40 1 0.0362213 0.281902 0.718611
24 1 0.351848 0.301077 0.98257
21 1 0.419635 0.0421375 0.585413
56 1 0.133997 0.250295 0.917448
48 1 0.268396 0.302857 0.684872
62 1 0.120544 0.594506 0.640974
36 1 0.488078 0.356399 0.787699
42 1 0.993276 0.418022 0.0191575
18 1 0.678431 0.419147 0.742909
20 1 0.466669 0.0706971 0.826792
7 1 0.756826 0.0906418 0.500724
27 1 0.979704 0.105127 0.897075
14 1 0.794439 0.314642 0.547684
30 1 0.575252 0.188848 0.583456
13 1 0.742184 0.447256 0.989295
22 1 0.820709 0.00976709 0.760728
15 1 0.813109 0.274437 0.827825
58 1 0.907962 0.499231 0.593829
11 1 0.994497 0.0982907 0.60361
8 1 0.293363 0.971932 0.96811
41 1 0.125248 0.902857 0.67513
46 1 0.329446 0.527907 0.676635
16 1 0.318017 0.859782 0.574139
47 1 0.351495 0.692156 0.849412
37 1 0.52663 0.845083 0.942348
51 1 0.0702504 0.53673 0.842134
33 1 0.454836 0.723187 0.671262
6 1 0.202426 0.662757 0.990737
10 1 0.149961 0.832744 0.886379
59 1 0.650118 0.665717 0.889984
9 1 0.664887 0.857516 0.718459
61 1 0.75395 0.804744 0.00489247
19 1 0.826272 0.710592 0.6518
35 1 0.908191 0.729861 0.880643
ITEM: TIMESTEP
80
ITEM: NUMBER OF ATOMS
64
ITEM: BOX BOUNDS pp pp pp
1.4968929223503125e-02 1.0846431070776717e+01
1.4968929223503125e-02 1.0846431070776717e+01
1.4968929223503125e-02 1.0846431070776717e+01
ITEM: ATOMS id type xs ys zs
5 1 0.335328 0.206967 0.39015
52 1 0.147964 0.0735495 0.31787
25 1 0.234218 0.424004 0.296497
53 1 0.347624 0.232921 0.183527
32 1 0.95563 0.319917 0.451734
26 1 0.0119479 0.288399 0.213039
43 1 0.178225 0.122345 0.096124
17 1 0.54476 0.0780063 0.175531
49 1 0.831418 0.253163 0.0621997
55 1 0.61849 0.337898 0.426009
4 1 0.794996 0.457143 0.346023
28 1 0.742072 0.993509 0.281886
34 1 0.595181 0.218341 0.0306659
2 1 0.632739 0.345409 0.189445
38 1 0.842369 0.988176 0.0882433
45 1 0.239534 0.651699 0.192163
23 1 0.309706 0.787618 0.361797
64 1 0.432175 0.561954 0.147163
12 1 0.00662898 0.80923 0.0615522
31 1 0.0410781 0.525596 0.20628
39 1 0.352674 0.568464 0.434522
54 1 0.230384 0.91264 0.182954
29 1 0.598099 0.647261 0.107478
44 1 0.0317897 0.801472 0.300914
57 1 0.546232 0.603531 0.330837
63 1 0.835426 0.595512 0.120219
50 1 0.5905 0.837393 0.261016
3 1 0.956822 0.994177 0.403092
1 1 0.647879 0.756681 0.505982
60 1 0.851366 0.658742 0.409803
40 1 0.0278014 0.289369 0.725646
24 1 0.35882 0.296665 0.979229
21 1 0.432275 0.0478152 0.588849
56 1 0.124787 0.250382 0.92471
48 1 0.268063 0.293176 0.681097
62 1 0.116331 0.60738 0.641754
36 1 0.483345 0.35883 0.787823
42 1 0.996849 0.415351 0.0143578
18 1 0.676083 0.423997 0.745073
20 1 0.455278 0.073416 0.816629
7 1 0.75622 0.0944829 0.493552
27 1 0.97934 0.102824 0.901537
14 1 0.786918 0.316994 0.554048
30 1 0.579587 0.19249 0.582308
13 1 0.744171 0.454945 0.988494
22 1 0.824048 0.00977916 0.76089
15 1 0.804286 0.268586 0.826361
58 1 0.914435 0.510626 0.598373
11 1 0.995896 0.0947676 0.610766
8 1 0.286743 0.964998 0.96942
41 1 0.125473 0.908257 0.673931
46 1 0.326623 0.526547 0.678026
16 1 0.324868 0.857669 0.564077
47 1 0.346943 0.693854 0.847284
37 1 0.526562 0.844652 0.957649
51 1 0.0710146 0.537311 0.849635
33 1 0.455906 0.725013 0.664339
6 1 0.205859 0.649521 0.997561
10 1 0.160873 0.833725 0.878654
59 1 0.662607 0.66089 0.882833
9 1 0.663255 0.85564 0.723361
61 1 0.744924 0.806593 0.0114027
19 1 0.824874 0.71337 0.645024
35 1 0.897914 0.727284 0.878485
ITEM: TIMESTEP
90
ITEM: NUMBER OF ATOMS
64
ITEM: BOX BOUNDS pp pp pp
1.8533925122239836e-02 1.0842866074877978e+01
1.8533925122239836e-02 1.0842866074877978e+01
1.8533925122239836e-02 1.0842866074877978e+01
ITEM: ATOMS id type xs ys zs
5 1 0.324484 0.204769 0.383496
52 1 0.152993 0.0780199 0.318735
25 1 0.224208 0.42061 0.30443
53 1 0.34633 0.240494 0.193348
32 1 0.971653 0.318926 0.446334
26 1 0.0126342 0.285822 0.215279
43 1 0.171929 0.122306 0.0994633
17 1 0.553934 0.074491 0.175175
49 1 0.828279 0.236247 0.0520744
55 1 0.609321 0.345939 0.406688
4 1 0.797106 0.452497 0.353149
28 1 0.740571 0.998329 0.278514
34 1 0.592958 0.220428 0.0254858
2 1 0.641461 0.35207 0.183404
38 1 0.856411 0.991266 0.09378
45 1 0.234935 0.657076 0.193352
23 1 0.306798 0.776494 0.35722
64 1 0.430201 0.555959 0.155175
12 1 0.00359974 0.815887 0.0633807
31 1 0.0453236 0.531864 0.213572
39 1 0.348893 0.578259 0.439428
54 1 0.231559 0.909261 0.180992
29 1 0.597926 0.644023 0.100054
44 1 0.0478907 0.807094 0.301941
57 1 0.549996 0.59903 0.336698
63 1 0.839925 0.585499 0.12383
50 1 0.59748 0.828573 0.252723
3 1 0.945705 0.987414 0.400304
1 1 0.647666 0.75034 0.506038
60 1 0.85321 0.664844 0.418363
40 1 0.0189867 0.297504 0.731374
24 1 0.366245 0.29325 0.972943
21 1 0.442023 0.0535572 0.592605
56 1 0.119997 0.253566 0.931436
48 1 0.268203 0.284363 0.678048
62 1 0.112283 0.619384 0.642697
36 1 0.47233 0.359186 0.787925
42 1 0.000189259 0.412176 0.00973806
18 1 0.677242 0.431453 0.746268
20 1 0.443119 0.0752322 0.807983
7 1 0.758162 0.0963788 0.485405
27 1 0.974627 0.0973786 0.906858
14 1 0.774549 0.318563 0.569188
30 1 0.584044 0.197389 0.582861
13 1 0.744173 0.462082 0.985773
22 1 0.827866 0.012204 0.760216
15 1 0.797969 0.26034 0.824936
58 1 0.922186 0.52152 0.60297
11 1 0.996895 0.0893989 0.618237
8 1 0.286755 0.962598 0.972611
41 1 0.127113 0.913297 0.671603
46 1 0.32434 0.524571 0.678456
16 1 0.328617 0.858942 0.555038
47 1 0.345015 0.695442 0.844728
37 1 0.523928 0.845114 0.970979
51 1 0.0705909 0.539387 0.856297
33 1 0.460072 0.726563 0.656829
6 1 0.206332 0.63446 0.998748
10 1 0.168556 0.833186 0.867582
59 1 0.674202 0.653782 0.871831
9 1 0.660623 0.852871 0.729271
61 1 0.736569 0.811215 0.0208257
19 1 0.824197 0.716324 0.639764
35 1 0.88885 0.722409 0.873443
ITEM: TIMESTEP
100
ITEM: NUMBER OF ATOMS
64
ITEM: BOX BOUNDS pp pp pp
2.2521633806350749e-02 1.0838878366193871e+01
2.2521633806350749e-02 1.0838878366193871e+01
2.2521633806350749e-02 1.0838878366193871e+01
ITEM: ATOMS id type xs ys zs
5 1 0.313369 0.201116 0.388403
52 1 0.155025 0.0812707 0.320727
25 1 0.21514 0.416722 0.313149
53 1 0.347536 0.250712 0.193856
32 1 0.987816 0.318162 0.440526
26 1 0.0128998 0.282699 0.217418
43 1 0.165197 0.121496 0.102144
17 1 0.561227 0.0681208 0.178014
49 1 0.826288 0.21866 0.0432455
55 1 0.598586 0.35508 0.386744
4 1 0.799964 0.448875 0.358208
28 1 0.739074 0.00471503 0.277066
34 1 0.588972 0.222042 0.0155133
2 1 0.652418 0.360966 0.180004
38 1 0.871954 0.995266 0.0965806
45 1 0.230654 0.662855 0.198839
23 1 0.303711 0.767135 0.352729
64 1 0.421834 0.544583 0.164176
12 1 8.62451e-05 0.822087 0.0654035
31 1 0.0488144 0.537921 0.221253
39 1 0.344535 0.585351 0.445633
54 1 0.2324 0.905071 0.179419
29 1 0.605246 0.644586 0.0906165
44 1 0.0621808 0.811947 0.302863
57 1 0.554915 0.595594 0.343903
63 1 0.845316 0.578289 0.130865
50 1 0.603631 0.819576 0.244888
3 1 0.935215 0.981646 0.398021
1 1 0.645584 0.742818 0.505045
60 1 0.855672 0.671219 0.42546
40 1 0.0101422 0.305587 0.73555
24 1 0.373488 0.28939 0.967029
21 1 0.447146 0.0565709 0.595077
56 1 0.119786 0.257092 0.936301
48 1 0.268654 0.276576 0.675642
62 1 0.11046 0.630878 0.645012
36 1 0.458566 0.359334 0.78663
42 1 0.00102177 0.409326 0.00874565
18 1 0.679118 0.440658 0.748344
20 1 0.430244 0.0769817 0.802339
7 1 0.762012 0.0977675 0.476647
27 1 0.967701 0.0896635 0.91335
14 1 0.763874 0.320641 0.585821
30 1 0.590016 0.204875 0.583031
13 1 0.742034 0.466715 0.98114
22 1 0.830823 0.0160196 0.758639
15 1 0.793093 0.250506 0.82306
58 1 0.929827 0.528982 0.606877
11 1 0.996903 0.0838831 0.625486
8 1 0.292461 0.964711 0.977504
41 1 0.131343 0.916829 0.6669
46 1 0.322039 0.522448 0.677624
16 1 0.32951 0.864548 0.547341
47 1 0.345849 0.696663 0.841276
37 1 0.518539 0.845848 0.982574
51 1 0.0684607 0.543495 0.859188
33 1 0.466567 0.72743 0.650031
6 1 0.205851 0.618647 0.993985
10 1 0.17323 0.830005 0.855286
59 1 0.684209 0.645959 0.858631
9 1 0.657399 0.849967 0.735891
61 1 0.730586 0.817006 0.0313708
19 1 0.824195 0.720415 0.637176
35 1 0.881819 0.716921 0.867687
ITEM: TIMESTEP
110
ITEM: NUMBER OF ATOMS
64
ITEM: BOX BOUNDS pp pp pp
2.6888293453177781e-02 1.0834511706547044e+01
2.6888293453177781e-02 1.0834511706547044e+01
2.6888293453177781e-02 1.0834511706547044e+01
ITEM: ATOMS id type xs ys zs
5 1 0.304376 0.198277 0.402305
52 1 0.152153 0.0813047 0.322873
25 1 0.207236 0.412759 0.322649
53 1 0.350309 0.263291 0.18811
32 1 0.00216305 0.318507 0.435634
26 1 0.0127706 0.27866 0.21786
43 1 0.159008 0.120041 0.104369
17 1 0.564783 0.0612874 0.180764
49 1 0.82452 0.202623 0.0369481
55 1 0.586618 0.364777 0.36947
4 1 0.804302 0.446131 0.362454
28 1 0.739211 0.0105396 0.276803
34 1 0.584825 0.222878 0.0049709
2 1 0.66548 0.369995 0.174649
38 1 0.885823 0.000314736 0.0985504
45 1 0.225828 0.665684 0.200285
23 1 0.302166 0.764346 0.352335
64 1 0.413038 0.531171 0.173145
12 1 0.996865 0.826147 0.0668924
31 1 0.0512377 0.543669 0.229255
39 1 0.340503 0.587095 0.45381
54 1 0.232831 0.901801 0.177795
29 1 0.612749 0.643775 0.081543
44 1 0.0728986 0.816591 0.304359
57 1 0.559493 0.592838 0.351098
63 1 0.850971 0.57269 0.14048
50 1 0.609148 0.81164 0.238313
3 1 0.927194 0.976341 0.396169
1 1 0.641984 0.734574 0.502982
60 1 0.858741 0.67669 0.429404
40 1 0.00172881 0.313224 0.738174
24 1 0.378935 0.284436 0.963927
21 1 0.448456 0.0570775 0.594605
56 1 0.123908 0.257935 0.937903
48 1 0.269163 0.269712 0.673543
62 1 0.112779 0.642565 0.648973
36 1 0.445467 0.36118 0.782048
42 1 0.997548 0.408253 0.0125792
18 1 0.679549 0.450392 0.752715
20 1 0.41667 0.0793414 0.801201
7 1 0.766241 0.100611 0.469306
27 1 0.962216 0.0812862 0.920098
14 1 0.75886 0.324776 0.600512
30 1 0.595216 0.212288 0.581274
13 1 0.738822 0.468197 0.976089
22 1 0.831122 0.0197295 0.756432
15 1 0.788656 0.240293 0.820272
58 1 0.935815 0.531053 0.609657
11 1 0.995828 0.0798371 0.631802
8 1 0.301253 0.968882 0.981756
41 1 0.138367 0.918197 0.659037
46 1 0.319447 0.520819 0.675378
16 1 0.328846 0.872971 0.541143
47 1 0.349868 0.696779 0.837176
37 1 0.510469 0.846859 0.992472
51 1 0.062404 0.54889 0.856419
33 1 0.473391 0.728222 0.644426
6 1 0.208212 0.603596 0.988829
10 1 0.176226 0.826063 0.844846
59 1 0.690115 0.638338 0.844021
9 1 0.654224 0.847855 0.742833
61 1 0.728982 0.823836 0.0410726
19 1 0.824655 0.726158 0.638211
35 1 0.879565 0.71283 0.862892
ITEM: TIMESTEP
120
ITEM: NUMBER OF ATOMS
64
ITEM: BOX BOUNDS pp pp pp
3.1554949757561346e-02 1.0829845050242664e+01
3.1554949757561346e-02 1.0829845050242664e+01
3.1554949757561346e-02 1.0829845050242664e+01
ITEM: ATOMS id type xs ys zs
5 1 0.298611 0.197961 0.420794
52 1 0.144443 0.0779173 0.324468
25 1 0.200898 0.408982 0.332899
53 1 0.353065 0.277518 0.182409
32 1 0.0149944 0.320299 0.432073
26 1 0.012336 0.273534 0.215528
43 1 0.153902 0.118055 0.106464
17 1 0.562991 0.0552781 0.180772
49 1 0.820712 0.191458 0.0339179
55 1 0.573629 0.374349 0.355818
4 1 0.809654 0.443916 0.366632
28 1 0.742228 0.0143383 0.276765
34 1 0.583092 0.222293 0.996419
2 1 0.680459 0.37769 0.165504
38 1 0.895496 0.00539567 0.103922
45 1 0.22116 0.664323 0.194254
23 1 0.303133 0.768477 0.357097
64 1 0.405347 0.516747 0.181913
12 1 0.994588 0.826122 0.067382
31 1 0.0523336 0.548625 0.237976
39 1 0.336984 0.583557 0.463346
54 1 0.233259 0.900651 0.175446
29 1 0.617947 0.639586 0.0734471
44 1 0.0788993 0.821214 0.307138
57 1 0.562147 0.590541 0.357053
63 1 0.855784 0.567416 0.151305
50 1 0.61373 0.805115 0.23415
3 1 0.923247 0.970365 0.394499
1 1 0.638963 0.726291 0.499956
60 1 0.862391 0.680929 0.429981
40 1 0.994092 0.320334 0.739523
24 1 0.381222 0.278636 0.963499
21 1 0.447628 0.0570336 0.591323
56 1 0.130862 0.256193 0.936203
48 1 0.269281 0.263116 0.670853
62 1 0.118945 0.654921 0.654122
36 1 0.434603 0.36557 0.773923
42 1 0.990471 0.408883 0.0200114
18 1 0.677232 0.456918 0.757993
20 1 0.402178 0.0826242 0.804093
7 1 0.769346 0.106559 0.46578
27 1 0.961963 0.0731647 0.923181
14 1 0.761761 0.332454 0.612645
30 1 0.596764 0.21645 0.576153
13 1 0.735878 0.467078 0.972343
22 1 0.827421 0.021848 0.754414
15 1 0.783978 0.230579 0.816673
58 1 0.94007 0.528168 0.611365
11 1 0.994644 0.0777448 0.636375
8 1 0.311215 0.973154 0.983741
41 1 0.146772 0.917441 0.648432
46 1 0.316308 0.520222 0.672032
16 1 0.328505 0.882337 0.536547
47 1 0.356857 0.695399 0.833137
37 1 0.500544 0.848032 0.000931328
51 1 0.0513297 0.554558 0.849201
33 1 0.478396 0.729854 0.640516
6 1 0.215251 0.589832 0.98573
10 1 0.178356 0.822506 0.837309
59 1 0.690927 0.63408 0.82928
9 1 0.651612 0.84739 0.74999
61 1 0.732236 0.832031 0.0486244
19 1 0.825453 0.733268 0.642152
35 1 0.883706 0.71159 0.860471
ITEM: TIMESTEP
130
ITEM: NUMBER OF ATOMS
64
ITEM: BOX BOUNDS pp pp pp
3.6515558307748108e-02 1.0824884441692481e+01
3.6515558307748108e-02 1.0824884441692481e+01
3.6515558307748108e-02 1.0824884441692481e+01
ITEM: ATOMS id type xs ys zs
5 1 0.294395 0.199396 0.441373
52 1 0.134225 0.0729505 0.326327
25 1 0.1976 0.406132 0.343156
53 1 0.355087 0.292635 0.179527