ITEM: TIMESTEP
0
ITEM: NUMBER OF ATOMS
64
ITEM: BOX BOUNDS pp pp pp
1.2214325541909421e-01 1.0739256744580505e+01
1.2214325541909421e-01 1.0739256744580505e+01
1.2214325541909421e-01 1.0739256744580505e+01
ITEM: ATOMS id type xs ys zs
38 1 0.240611 0.0575619 0.266426
18 1 0.143656 0.223185 0.128841
7 1 0.484739 0.30863 0.166244
41 1 0.261178 0.392643 0.215264
55 1 0.257856 0.255939 0.424023
53 1 0.0180144 0.17169 0.459052
40 1 0.596455 0.171902 0.0143229
36 1 0.775884 0.241304 0.325212
44 1 0.966894 0.132974 0.244445
16 1 0.735473 0.0362209 0.139936
26 1 0.915542 0.432729 0.0542134
64 1 0.73368 0.427332 0.16879
28 1 0.558573 0.14064 0.339113
48 1 0.511292 0.364984 0.449366
25 1 0.907963 0.372415 0.493053
62 1 0.0672148 0.558138 0.176128
14 1 0.437359 0.557035 0.0952321
49 1 0.124382 0.860577 0.28881
51 1 0.30563 0.721262 0.0306959
15 1 0.0775573 0.775038 0.0979009
20 1 0.457966 0.977477 0.181488
30 1 0.345767 0.740542 0.278233
21 1 0.0847503 0.582727 0.422934
42 1 0.342275 0.551607 0.409567
60 1 0.292352 0.901137 0.48071
58 1 0.593843 0.55105 0.311855
27 1 0.679668 0.593825 0.0243108
6 1 0.557857 0.781354 0.307021
54 1 0.692788 0.824792 0.0962602
39 1 0.855746 0.715215 0.207969
59 1 0.906428 0.903199 0.322416
56 1 0.80888 0.586163 0.422332
33 1 0.677885 0.920316 0.430934
1 1 0.399318 0.100997 0.503512
23 1 0.221718 0.409585 0.572685
13 1 0.0284603 0.40938 0.666603
12 1 0.259613 0.0572426 0.96935
19 1 0.266059 0.0995909 0.704947
3 1 0.137756 0.268112 0.807843
61 1 0.485549 0.107805 0.798908
2 1 0.341906 0.294825 0.957855
17 1 0.394787 0.349571 0.690415
63 1 0.474184 0.494073 0.856321
52 1 0.635706 0.113532 0.633788
29 1 0.708825 0.328605 0.577428
5 1 0.972318 0.235038 0.955146
4 1 0.759267 0.236297 0.831535
11 1 0.87187 0.00282967 0.942581
10 1 0.981673 0.101432 0.667277
9 1 0.762228 0.485375 0.840555
47 1 0.121359 0.897198 0.612329
57 1 0.440401 0.731437 0.569404
35 1 0.183448 0.516432 0.965916
34 1 0.0820103 0.930208 0.888814
45 1 0.133196 0.704288 0.799587
22 1 0.375328 0.69334 0.803887
32 1 0.450337 0.896487 0.957468
37 1 0.634808 0.521131 0.653191
8 1 0.956727 0.763711 0.508913
24 1 0.688364 0.754369 0.593701
46 1 0.935766 0.606487 0.735908
43 1 0.638981 0.785103 0.825611
31 1 0.791365 0.969077 0.715316
50 1 0.88275 0.763758 0.938009
ITEM: TIMESTEP
10
ITEM: NUMBER OF ATOMS
64
ITEM: BOX BOUNDS pp pp pp
1.2259712808062329e-01 1.0738802871918976e+01
1.2259712808062329e-01 1.0738802871918976e+01
1.2259712808062329e-01 1.0738802871918976e+01
ITEM: ATOMS id type xs ys zs
38 1 0.248409 0.0441628 0.254377
18 1 0.141656 0.214728 0.123702
7 1 0.488601 0.318675 0.174171
41 1 0.257251 0.403019 0.213662
55 1 0.269114 0.255095 0.411995
53 1 0.010115 0.178532 0.459388
40 1 0.598009 0.173301 0.0248882
36 1 0.770247 0.248224 0.324351
44 1 0.978968 0.138171 0.242546
16 1 0.738217 0.0404564 0.143544
26 1 0.909973 0.435746 0.0652042
64 1 0.728789 0.414421 0.167863
28 1 0.562484 0.132384 0.342102
48 1 0.509959 0.357515 0.451278
25 1 0.901521 0.365163 0.490655
62 1 0.0654513 0.571361 0.177318
14 1 0.439233 0.565171 0.0863372
49 1 0.132135 0.863687 0.284247
51 1 0.296684 0.721172 0.0343104
15 1 0.0635738 0.769915 0.101252
20 1 0.452903 0.97423 0.188649
30 1 0.346777 0.743294 0.27047
21 1 0.0939475 0.582484 0.417745
42 1 0.342832 0.561691 0.407612
60 1 0.302431 0.910467 0.472
58 1 0.596928 0.550983 0.317413
27 1 0.683886 0.595645 0.0210065
6 1 0.559976 0.784656 0.303448
54 1 0.692504 0.825898 0.102918
39 1 0.848784 0.724837 0.21347
59 1 0.897355 0.915142 0.323636
56 1 0.807741 0.589693 0.419984
33 1 0.677155 0.919093 0.43816
1 1 0.401808 0.103932 0.502372
23 1 0.230143 0.411202 0.571238
13 1 0.036496 0.411369 0.669386
12 1 0.248984 0.0544751 0.969682
19 1 0.272615 0.107181 0.712587
3 1 0.138407 0.264838 0.807388
61 1 0.482153 0.109597 0.803789
2 1 0.347443 0.303294 0.963915
17 1 0.388448 0.342929 0.684459
63 1 0.470333 0.485066 0.856661
52 1 0.634812 0.111719 0.633296
29 1 0.706987 0.311877 0.576345
5 1 0.970355 0.225486 0.960011
4 1 0.763441 0.235289 0.845106
11 1 0.873286 0.0035767 0.945968
10 1 0.989472 0.0893985 0.659563
9 1 0.755139 0.484286 0.842866
47 1 0.127801 0.906665 0.603817
57 1 0.44623 0.732046 0.56915
35 1 0.183831 0.502108 0.971288
34 1 0.0742239 0.912388 0.874505
45 1 0.137948 0.703857 0.795717
22 1 0.379074 0.691331 0.79424
32 1 0.44119 0.888599 0.949379
37 1 0.641091 0.523682 0.665688
8 1 0.957347 0.766563 0.504287
24 1 0.687637 0.760061 0.603905
46 1 0.926166 0.60328 0.739518
43 1 0.639402 0.786729 0.8342
31 1 0.785122 0.971817 0.713395
50 1 0.881233 0.765265 0.924473
ITEM: TIMESTEP
20
ITEM: NUMBER OF ATOMS
64
ITEM: BOX BOUNDS pp pp pp
1.2372736329661915e-01 1.0737672636702980e+01
1.2372736329661915e-01 1.0737672636702980e+01
1.2372736329661915e-01 1.0737672636702980e+01
ITEM: ATOMS id type xs ys zs
38 1 0.25677 0.0340481 0.241385
18 1 0.141789 0.205683 0.116016
7 1 0.492971 0.328701 0.181756
41 1 0.253598 0.413381 0.212028
55 1 0.277715 0.254362 0.398347
53 1 0.00502903 0.185053 0.458723
40 1 0.598907 0.17565 0.0318718
36 1 0.764918 0.25446 0.322287
44 1 0.98642 0.141005 0.242705
16 1 0.742671 0.046066 0.146985
26 1 0.908189 0.438488 0.0732271
64 1 0.718497 0.401894 0.170345
28 1 0.567472 0.124076 0.34363
48 1 0.508608 0.350674 0.453454
25 1 0.894178 0.360837 0.487862
62 1 0.0638323 0.578645 0.180339
14 1 0.443733 0.570555 0.0774918
49 1 0.140485 0.86653 0.282207
51 1 0.287091 0.722515 0.0376625
15 1 0.0476374 0.767235 0.10074
20 1 0.449582 0.970538 0.19532
30 1 0.345717 0.746496 0.261218
21 1 0.103499 0.582741 0.411108
42 1 0.342708 0.571731 0.407168
60 1 0.313438 0.916715 0.462131
58 1 0.600428 0.550206 0.323511
27 1 0.686946 0.598453 0.0190624
6 1 0.563435 0.788355 0.297979
54 1 0.689233 0.825692 0.108511
39 1 0.843831 0.732161 0.220826
59 1 0.888312 0.927775 0.326009
56 1 0.807547 0.594217 0.416812
33 1 0.677643 0.920152 0.445021
1 1 0.405872 0.107312 0.503701
23 1 0.235808 0.416132 0.565127
13 1 0.0427859 0.414822 0.67255
12 1 0.238796 0.0516847 0.968993
19 1 0.279276 0.114202 0.719728
3 1 0.138447 0.261604 0.80751
61 1 0.479256 0.112048 0.811055
2 1 0.352246 0.31221 0.969651
17 1 0.387304 0.333887 0.682434
63 1 0.465846 0.475967 0.855747
52 1 0.632114 0.109475 0.632453
29 1 0.702683 0.296894 0.575462
5 1 0.967619 0.216991 0.965836
4 1 0.76669 0.235252 0.859857
11 1 0.874199 0.00565492 0.949001
10 1 0.99799 0.0749155 0.653223
9 1 0.750821 0.480355 0.84688
47 1 0.13168 0.916322 0.598707
57 1 0.451049 0.732639 0.568893
35 1 0.185084 0.488244 0.977711
34 1 0.0672313 0.894797 0.861171
45 1 0.143619 0.702882 0.792006
22 1 0.382681 0.690571 0.784071
32 1 0.431698 0.880834 0.940741
37 1 0.64548 0.526855 0.675684
8 1 0.959284 0.76778 0.498745
24 1 0.68586 0.764901 0.615089
46 1 0.917616 0.599851 0.744508
43 1 0.640099 0.788992 0.844379
31 1 0.780528 0.973177 0.713074
50 1 0.879734 0.766573 0.910171
ITEM: TIMESTEP
30
ITEM: NUMBER OF ATOMS
64
ITEM: BOX BOUNDS pp pp pp
1.2500595429319983e-01 1.0736394045706401e+01
1.2500595429319983e-01 1.0736394045706401e+01
1.2500595429319983e-01 1.0736394045706401e+01
ITEM: ATOMS id type xs ys zs
38 1 0.262822 0.031046 0.227052
18 1 0.145581 0.197311 0.105565
7 1 0.497506 0.338719 0.188962
41 1 0.24984 0.423393 0.209781
55 1 0.284793 0.255016 0.383484
53 1 0.00305683 0.188663 0.457345
40 1 0.598808 0.179382 0.035533
36 1 0.760412 0.257875 0.32113
44 1 0.988283 0.141097 0.245657
16 1 0.748765 0.0516895 0.150608
26 1 0.908069 0.440651 0.0793434
64 1 0.704206 0.391893 0.173102
28 1 0.574044 0.11511 0.343611
48 1 0.507236 0.344001 0.455799
25 1 0.885162 0.361686 0.486525
62 1 0.0626924 0.577833 0.186014
14 1 0.450492 0.574197 0.0678165
49 1 0.146375 0.8663 0.282326
51 1 0.276726 0.724414 0.0402753
15 1 0.0290505 0.769857 0.0971667
20 1 0.452669 0.965112 0.200954
30 1 0.344005 0.749693 0.250634
21 1 0.113698 0.584193 0.403818
42 1 0.342164 0.582161 0.408285
60 1 0.323888 0.919146 0.452277
58 1 0.603683 0.5488 0.330292
27 1 0.688908 0.602647 0.0193442
6 1 0.56741 0.792273 0.291775
54 1 0.68306 0.825552 0.111984
39 1 0.841661 0.737198 0.230526
59 1 0.879747 0.941318 0.329384
56 1 0.808806 0.599481 0.412986
33 1 0.678865 0.923273 0.451446
1 1 0.41197 0.111803 0.507838
23 1 0.238687 0.423899 0.554052
13 1 0.0473379 0.419414 0.6747
12 1 0.229001 0.0476831 0.966654
19 1 0.285278 0.120384 0.725635
3 1 0.136588 0.258998 0.809314
61 1 0.479016 0.115029 0.820824
2 1 0.356564 0.320741 0.975979
17 1 0.390584 0.322552 0.683702
63 1 0.460774 0.468196 0.852758
52 1 0.625238 0.104075 0.632277
29 1 0.696852 0.287289 0.573645
5 1 0.965067 0.210332 0.972209
4 1 0.768511 0.236551 0.876394
11 1 0.874494 0.00821344 0.951438
10 1 0.00427365 0.0607582 0.648444
9 1 0.750656 0.47193 0.854698
47 1 0.13642 0.922897 0.594736
57 1 0.455106 0.733583 0.567524
35 1 0.186926 0.474354 0.985579
34 1 0.0603391 0.880704 0.848608
45 1 0.150977 0.699027 0.787591
22 1 0.385956 0.690495 0.774436
32 1 0.421733 0.872876 0.930955
37 1 0.647039 0.531028 0.6809
8 1 0.963271 0.767863 0.491374
24 1 0.682712 0.769114 0.627667
46 1 0.910604 0.595766 0.750937
43 1 0.641137 0.791783 0.856788
31 1 0.778903 0.972817 0.714277
50 1 0.87773 0.767776 0.895165
ITEM: TIMESTEP
40
ITEM: NUMBER OF ATOMS
64
ITEM: BOX BOUNDS pp pp pp
1.2591867589554084e-01 1.0735481324104057e+01
1.2591867589554084e-01 1.0735481324104057e+01
1.2591867589554084e-01 1.0735481324104057e+01
ITEM: ATOMS id type xs ys zs
38 1 0.264019 0.0360424 0.211622
18 1 0.15101 0.190835 0.0954447
7 1 0.497738 0.347312 0.195628
41 1 0.246468 0.432317 0.207462
55 1 0.291053 0.257038 0.368478
53 1 0.00366005 0.188988 0.456888
40 1 0.597576 0.184131 0.0364439
36 1 0.757765 0.256509 0.323384
44 1 0.986081 0.139179 0.249273
16 1 0.755477 0.0563736 0.154223
26 1 0.906711 0.441492 0.0842786
64 1 0.692552 0.388061 0.172448
28 1 0.581949 0.105781 0.342312
48 1 0.505825 0.337947 0.45787
25 1 0.875693 0.36737 0.487011
62 1 0.0620334 0.572008 0.191753
14 1 0.457962 0.577019 0.057365
49 1 0.148811 0.862636 0.284434
51 1 0.266327 0.725524 0.0406774
15 1 0.0101708 0.775529 0.09274
20 1 0.463675 0.958524 0.205436
30 1 0.343343 0.751592 0.240632
21 1 0.12348 0.587112 0.398263
42 1 0.342234 0.592833 0.410805
60 1 0.332404 0.918315 0.444161
58 1 0.605817 0.546917 0.337107
27 1 0.689547 0.607833 0.021464
6 1 0.570454 0.794765 0.288371
54 1 0.676744 0.826234 0.11145
39 1 0.841766 0.741085 0.241104
59 1 0.871857 0.954736 0.33334
56 1 0.811619 0.604292 0.409544
33 1 0.680286 0.927557 0.457167
1 1 0.41896 0.116733 0.513435
23 1 0.240351 0.432555 0.540837
13 1 0.0504878 0.424278 0.675321
12 1 0.220968 0.0409609 0.961791
19 1 0.2892 0.124809 0.729834
3 1 0.132159 0.257772 0.812852
61 1 0.482512 0.118163 0.832485
2 1 0.360632 0.326701 0.983982
17 1 0.395427 0.311916 0.685816
63 1 0.456333 0.464276 0.84674
52 1 0.614439 0.0947756 0.633517
29 1 0.690798 0.284348 0.57028
5 1 0.964324 0.20684 0.978441
4 1 0.768305 0.239042 0.89352
11 1 0.873602 0.00980034 0.952759
10 1 0.00305681 0.0520389 0.646552
9 1 0.753823 0.460233 0.864951
47 1 0.146366 0.921516 0.589681
57 1 0.458554 0.735162 0.564015
35 1 0.187966 0.46145 0.993995
34 1 0.0544524 0.873952 0.836535
45 1 0.160123 0.691239 0.782518
22 1 0.388148 0.690367 0.767143
32 1 0.411957 0.86491 0.920204
37 1 0.646593 0.536172 0.68268
8 1 0.96948 0.767297 0.482079
24 1 0.678157 0.772665 0.640655
46 1 0.905632 0.590322 0.757601
43 1 0.642332 0.794942 0.87095
31 1 0.780845 0.971188 0.716601
50 1 0.874137 0.768605 0.881545
ITEM: TIMESTEP
50
ITEM: NUMBER OF ATOMS
64
ITEM: BOX BOUNDS pp pp pp
1.2610215383342549e-01 1.0735297846166173e+01
1.2610215383342549e-01 1.0735297846166173e+01
1.2610215383342549e-01 1.0735297846166173e+01
ITEM: ATOMS id type xs ys zs
38 1 0.263159 0.0442291 0.195705
18 1 0.155738 0.187902 0.0878487
7 1 0.488586 0.353927 0.202728
41 1 0.244643 0.439575 0.206701
55 1 0.297481 0.260051 0.353022
53 1 0.00524207 0.18801 0.459066
40 1 0.59506 0.189457 0.036057
36 1 0.756484 0.251527 0.328908
44 1 0.982089 0.136221 0.250989
16 1 0.76199 0.0605126 0.157462
26 1 0.902783 0.440587 0.0882298
64 1 0.689137 0.390487 0.168084
28 1 0.59106 0.0962859 0.340122
48 1 0.503718 0.333307 0.459153
25 1 0.867892 0.376015 0.488636
62 1 0.0606716 0.565225 0.194523
14 1 0.464798 0.579717 0.0458995
49 1 0.149179 0.857626 0.287851
51 1 0.25574 0.724933 0.0375169
15 1 0.992785 0.78116 0.0885954
20 1 0.476923 0.954274 0.208421
30 1 0.344624 0.751641 0.232286
21 1 0.131694 0.592018 0.396172
42 1 0.344799 0.604578 0.414413
60 1 0.339534 0.915594 0.438272
58 1 0.606642 0.544795 0.343777
27 1 0.689027 0.612813 0.0245265
6 1 0.573062 0.792372 0.29147
54 1 0.672756 0.828004 0.106095
39 1 0.842794 0.746308 0.25078
59 1 0.864268 0.96748 0.337704
56 1 0.815562 0.607025 0.408076
33 1 0.681569 0.93219 0.46281
1 1 0.425178 0.120767 0.518436
23 1 0.24125 0.440624 0.527377
13 1 0.0530943 0.42921 0.674544
12 1 0.215213 0.0297195 0.953207
19 1 0.290461 0.126682 0.73374
3 1 0.125343 0.258284 0.817753
61 1 0.488706 0.121269 0.8452
2 1 0.36611 0.329186 0.994117
17 1 0.401108 0.304501 0.68721
63 1 0.452807 0.465051 0.837593
52 1 0.602762 0.0833468 0.636857
29 1 0.6846 0.284702 0.566406
5 1 0.965955 0.206866 0.984198
4 1 0.76632 0.241268 0.910583
11 1 0.871245 0.00969413 0.952748
10 1 0.995184 0.0472025 0.647053
9 1 0.758478 0.449039 0.875248
47 1 0.160446 0.913487 0.583517
57 1 0.461671 0.737688 0.558024
35 1 0.186095 0.450022 0.00116093
34 1 0.05135 0.87412 0.823184
45 1 0.169698 0.680901 0.777584
22 1 0.389438 0.689236 0.762124
32 1 0.402318 0.856977 0.90868
37 1 0.646138 0.541616 0.684716
8 1 0.978288 0.766196 0.47065
24 1 0.672071 0.775904 0.653705
46 1 0.902265 0.58228 0.76365
43 1 0.642862 0.798574 0.88681
31 1 0.785616 0.969459 0.71937
50 1 0.868669 0.769197 0.870549
ITEM: TIMESTEP
60
ITEM: NUMBER OF ATOMS
64
ITEM: BOX BOUNDS pp pp pp
1.2536178728090785e-01 1.0736038212718691e+01
1.2536178728090785e-01 1.0736038212718691e+01
1.2536178728090785e-01 1.0736038212718691e+01
ITEM: ATOMS id type xs ys zs
38 1 0.264723 0.0495345 0.18233
18 1 0.158764 0.190102 0.0816126
7 1 0.472852 0.35916 0.210584
41 1 0.245651 0.444366 0.209317
55 1 0.304284 0.263619 0.337233
53 1 0.00636184 0.18727 0.464108
40 1 0.590614 0.195047 0.0369607
36 1 0.755276 0.246154 0.335898
44 1 0.97826 0.133681 0.249938
16 1 0.767355 0.0646895 0.159191
26 1 0.896934 0.438083 0.0907752
64 1 0.691603 0.396241 0.162862
28 1 0.600156 0.0879549 0.337973
48 1 0.499906 0.331457 0.459012
25 1 0.863355 0.386053 0.490562
62 1 0.0573349 0.559942 0.193366
14 1 0.469146 0.582409 0.0338765
49 1 0.148904 0.853202 0.291555
51 1 0.245446 0.722389 0.0309169
15 1 0.978449 0.785245 0.084656
20 1 0.486393 0.955143 0.208405
30 1 0.347646 0.750104 0.225904
21 1 0.13708 0.599034 0.396975
42 1 0.350805 0.617217 0.418173
60 1 0.345818 0.912074 0.434469
58 1 0.606451 0.542726 0.349905
27 1 0.688128 0.615863 0.0277275
6 1 0.577405 0.782674 0.301408
54 1 0.671342 0.831116 0.0997121
39 1 0.843742 0.754673 0.258158
59 1 0.857395 0.977803 0.342839
56 1 0.819703 0.605945 0.409943
33 1 0.682367 0.935753 0.46942
1 1 0.428129 0.12263 0.520438
23 1 0.241336 0.446542 0.515407
13 1 0.0557064 0.434053 0.672909
12 1 0.211662 0.0143405 0.941519
19 1 0.289019 0.12575 0.739067
3 1 0.117324 0.260817 0.823115
61 1 0.495191 0.12399 0.856437
2 1 0.374296 0.329106 0.00426467
17 1 0.407817 0.301557 0.687109
63 1 0.449912 0.469654 0.82728
52 1 0.594745 0.0716685 0.643377
29 1 0.679342 0.284849 0.563584
5 1 0.968904 0.209579 0.988897
4 1 0.76424 0.240503 0.925991
11 1 0.867716 0.00844808 0.95152
10 1 0.986352 0.0423079 0.648054
9 1 0.7634 0.443255 0.884033
47 1 0.172971 0.903314 0.577967
57 1 0.464624 0.741508 0.550911
35 1 0.180142 0.440006 0.00444284
34 1 0.0521329 0.878731 0.808243
45 1 0.176641 0.670347 0.773845
22 1 0.391273 0.686039 0.757805
32 1 0.393253 0.850326 0.897919
37 1 0.646917 0.546458 0.689042
8 1 0.989397 0.764762 0.457774
24 1 0.664711 0.778973 0.666158
46 1 0.899799 0.571801 0.768501
43 1 0.641134 0.802469 0.901655
31 1 0.791332 0.968659 0.722134
50 1 0.86316 0.769751 0.862732
ITEM: TIMESTEP
70
ITEM: NUMBER OF ATOMS
64
ITEM: BOX BOUNDS pp pp pp
1.2346616196144744e-01 1.0737933838038153e+01
1.2346616196144744e-01 1.0737933838038153e+01
1.2346616196144744e-01 1.0737933838038153e+01
ITEM: ATOMS id type xs ys zs
38 1 0.270643 0.0495717 0.172461
18 1 0.161208 0.196952 0.0748459
7 1 0.457131 0.365176 0.218854
41 1 0.24857 0.448004 0.214605
55 1 0.310094 0.266057 0.322109
53 1 0.00605203 0.186969 0.470719
40 1 0.583478 0.201255 0.0420049
36 1 0.753902 0.243245 0.343766
44 1 0.976079 0.132954 0.246881
16 1 0.771197 0.0691867 0.158045
26 1 0.891524 0.434499 0.0919883
64 1 0.693369 0.402744 0.160198
28 1 0.607992 0.0818247 0.336646
48 1 0.4939 0.332842 0.457252
25 1 0.861862 0.396026 0.492669
62 1 0.0523253 0.556662 0.189425
14 1 0.470053 0.585181 0.0213659
49 1 0.149539 0.849941 0.294914
51 1 0.235769 0.71828 0.0219622
15 1 0.966524 0.787883 0.0798416
20 1 0.491724 0.957492 0.205686
30 1 0.351745 0.747587 0.22032
21 1 0.140522 0.607733 0.397909
42 1 0.358119 0.62879 0.420278
60 1 0.352231 0.90886 0.431512
58 1 0.605846 0.540459 0.355359
27 1 0.687562 0.616134 0.0311711
6 1 0.583582 0.7689 0.314511
54 1 0.672036 0.836648 0.101086
39 1 0.84356 0.766013 0.264078
59 1 0.852051 0.984543 0.349603
56 1 0.823331 0.601841 0.414325
33 1 0.682412 0.936957 0.478442
1 1 0.427311 0.122054 0.51895
23 1 0.24102 0.449996 0.505403
13 1 0.0587506 0.438975 0.670798
12 1 0.209657 0.996354 0.928482
19 1 0.285692 0.12356 0.746775
3 1 0.10945 0.265618 0.827656
61 1 0.499971 0.125987 0.863643
2 1 0.384776 0.328125 0.0122688
17 1 0.415284 0.301256 0.685768
63 1 0.447845 0.476686 0.817465
52 1 0.591701 0.0598971 0.65343
29 1 0.676481 0.283693 0.562083
5 1 0.970963 0.213608 0.992342
4 1 0.763778 0.235417 0.938972
11 1 0.863697 0.00692811 0.949914
10 1 0.980317 0.0366492 0.647773
9 1 0.767893 0.443848 0.8912
47 1 0.181285 0.892719 0.5737
57 1 0.468707 0.747696 0.545415
35 1 0.171235 0.429836 0.00391129
34 1 0.0563015 0.885047 0.792086
45 1 0.179159 0.660262 0.771439
22 1 0.395009 0.680317 0.751823
32 1 0.384748 0.845857 0.889265
37 1 0.649169 0.550387 0.696235
8 1 0.00161084 0.763553 0.444761
24 1 0.656219 0.781875 0.678175
46 1 0.89763 0.560769 0.771936
43 1 0.635432 0.805942 0.909148
31 1 0.795588 0.968739 0.72511
50 1 0.859617 0.770056 0.857135
ITEM: TIMESTEP
80
ITEM: NUMBER OF ATOMS
64
ITEM: BOX BOUNDS pp pp pp
1.2007626728833287e-01 1.0741323732711265e+01
1.2007626728833287e-01 1.0741323732711265e+01
1.2007626728833287e-01 1.0741323732711265e+01
ITEM: ATOMS id type xs ys zs
38 1 0.279739 0.0458898 0.16508
18 1 0.165864 0.205914 0.0689695
7 1 0.449842 0.375612 0.224991
41 1 0.249495 0.453509 0.219831
55 1 0.309651 0.261458 0.31161
53 1 0.00361052 0.186936 0.477044
40 1 0.574229 0.208784 0.0520025
36 1 0.752877 0.244745 0.352189
44 1 0.976218 0.134493 0.243197
16 1 0.773622 0.0736031 0.154095
26 1 0.889661 0.430387 0.0921839
64 1 0.690482 0.408711 0.162472
28 1 0.613668 0.0781387 0.336414
48 1 0.486725 0.336955 0.454758
25 1 0.862972 0.402842 0.495644
62 1 0.0471567 0.554849 0.183888
14 1 0.46732 0.588135 0.00873558
49 1 0.153156 0.848337 0.296917
51 1 0.227206 0.713276 0.0115884
15 1 0.955965 0.789794 0.073331
20 1 0.493663 0.95744 0.201238
30 1 0.356037 0.744659 0.214223
21 1 0.144772 0.615686 0.396475
42 1 0.363378 0.63599 0.418874
60 1 0.358904 0.907214 0.428318
58 1 0.605681 0.537094 0.360174
27 1 0.687128 0.614527 0.035112
6 1 0.590981 0.755399 0.327986
54 1 0.67499 0.844626 0.113029
39 1 0.841467 0.778548 0.269874
59 1 0.849229 0.988199 0.358054
56 1 0.825744 0.598289 0.418844
33 1 0.681412 0.935313 0.490207
1 1 0.424686 0.119151 0.515235
23 1 0.240674 0.451572 0.49771
13 1 0.0625193 0.44412 0.668551
12 1 0.209038 0.977448 0.915908
19 1 0.281951 0.122399 0.756748
3 1 0.103317 0.272719 0.829576
61 1 0.501978 0.127084 0.865294
2 1 0.395924 0.327279 0.0167554
17 1 0.422534 0.301119 0.6836
63 1 0.447776 0.483469 0.808915
52 1 0.591718 0.0487806 0.665649
29 1 0.676364 0.281608 0.561411
5 1 0.970261 0.217707 0.994818
4 1 0.764241 0.227247 0.948776
11 1 0.85966 0.00516728 0.949028
10 1 0.978717 0.0321075 0.644001
9 1 0.770719 0.44736 0.897695
47 1 0.184877 0.881846 0.570815
57 1 0.475576 0.757114 0.544278
35 1 0.161534 0.419389 0.00160729
34 1 0.0632458 0.890031 0.775846
45 1 0.177517 0.650503 0.770117
22 1 0.399669 0.674485 0.742969
32 1 0.37743 0.842737 0.883037
37 1 0.652919 0.553394 0.706178
8 1 0.0112033 0.764106 0.433914
24 1 0.646955 0.784132 0.689521
46 1 0.89616 0.552203 0.772839
43 1 0.62519 0.808239 0.907559
31 1 0.796217 0.969382 0.728901
50 1 0.85881 0.769667 0.853296
ITEM: TIMESTEP
90
ITEM: NUMBER OF ATOMS
64
ITEM: BOX BOUNDS pp pp pp
1.1494649939108026e-01 1.0746453500608517e+01
1.1494649939108026e-01 1.0746453500608517e+01
1.1494649939108026e-01 1.0746453500608517e+01
ITEM: ATOMS id type xs ys zs
38 1 0.289076 0.0416089 0.159032
18 1 0.174473 0.212859 0.0664091
7 1 0.453242 0.391059 0.228958
41 1 0.245829 0.46164 0.223629
55 1 0.301722 0.247666 0.30584
53 1 0.998913 0.187186 0.481375
40 1 0.566843 0.216041 0.0645956
36 1 0.752746 0.250431 0.35997
44 1 0.977966 0.137675 0.240423
16 1 0.774811 0.0775065 0.148961
26 1 0.891392 0.425991 0.0920857
64 1 0.683569 0.413712 0.169493
28 1 0.617247 0.0758182 0.337253
48 1 0.479984 0.34254 0.452836
25 1 0.866447 0.403403 0.500114
62 1 0.0434077 0.554066 0.177352
14 1 0.461835 0.591304 0.997169
49 1 0.161693 0.84924 0.295989
51 1 0.220226 0.708009 0.000533403
15 1 0.945997 0.791578 0.0657553
20 1 0.492857 0.954775 0.196459
30 1 0.359972 0.742143 0.206986
21 1 0.15195 0.619685 0.391678
42 1 0.366109 0.638513 0.414982
60 1 0.364843 0.907918 0.424553
58 1 0.60647 0.531197 0.364431
27 1 0.685683 0.612826 0.0392957
6 1 0.599436 0.744934 0.340173
54 1 0.679177 0.852808 0.128223
39 1 0.838164 0.790044 0.275544
59 1 0.848902 0.991105 0.367517
56 1 0.826203 0.598705 0.421469
33 1 0.679776 0.931914 0.502768
1 1 0.422488 0.114917 0.510599
23 1 0.240434 0.451793 0.492531
13 1 0.0671052 0.449353 0.666444
12 1 0.209137 0.960316 0.906172
19 1 0.279161 0.123905 0.768065
3 1 0.099827 0.281213 0.82755
61 1 0.501395 0.128102 0.862855
2 1 0.404133 0.32832 0.0175087
17 1 0.428941 0.299551 0.681174
63 1 0.450918 0.485789 0.802061
52 1 0.591949 0.0400549 0.678011
29 1 0.677629 0.279479 0.561525
5 1 0.968169 0.220782 0.997083
4 1 0.762171 0.218072 0.955283
11 1 0.856011 0.00234221 0.949425
10 1 0.980085 0.0303773 0.635622
9 1 0.770761 0.449799 0.904713
47 1 0.184657 0.870958 0.568604
57 1 0.484059 0.7679 0.54669
35 1 0.152986 0.411806 0.999208
34 1 0.0713393 0.89055 0.760769
45 1 0.173577 0.641014 0.769493
22 1 0.402054 0.67314 0.731433
32 1 0.373653 0.838267 0.878432
37 1 0.658153 0.555433 0.718241
8 1 0.0137883 0.767923 0.427678
24 1 0.63804 0.784645 0.698754
46 1 0.896047 0.548256 0.770089
43 1 0.612159 0.809528 0.905538
31 1 0.794255 0.970733 0.733617
50 1 0.860185 0.768697 0.850876
ITEM: TIMESTEP
100
ITEM: NUMBER OF ATOMS
64
ITEM: BOX BOUNDS pp pp pp
1.0814057280420819e-01 1.0753259427195388e+01
1.0814057280420819e-01 1.0753259427195388e+01
1.0814057280420819e-01 1.0753259427195388e+01
ITEM: ATOMS id type xs ys zs
38 1 0.296674 0.0384535 0.153818
18 1 0.187301 0.214846 0.0686392
7 1 0.460032 0.407719 0.233194
41 1 0.239644 0.469919 0.226509
55 1 0.291312 0.23041 0.300376
53 1 0.99209 0.188155 0.482206
40 1 0.565388 0.219915 0.0784223
36 1 0.753702 0.25852 0.36531
44 1 0.98002 0.141879 0.239446
16 1 0.774797 0.0810358 0.144523
26 1 0.893411 0.4209 0.092784
64 1 0.675867 0.417982 0.179749
28 1 0.619429 0.0738102 0.339077
48 1 0.4736 0.348587 0.452565
25 1 0.872164 0.398129 0.506024
62 1 0.041767 0.554343 0.169985
14 1 0.454666 0.595039 0.987675
49 1 0.175395 0.852822 0.292082
51 1 0.214829 0.702648 0.989059
15 1 0.935576 0.79352 0.0583829
20 1 0.490093 0.950292 0.19285
30 1 0.36368 0.740232 0.198394
21 1 0.160054 0.620488 0.383526
42 1 0.369253 0.638981 0.41073
60 1 0.369137 0.910421 0.420162
58 1 0.608423 0.52203 0.368406
27 1 0.682036 0.612101 0.0434584
6 1 0.608811 0.738007 0.351533
54 1 0.683476 0.860015 0.141816
39 1 0.835295 0.799216 0.280881
59 1 0.850542 0.995769 0.378472
56 1 0.824736 0.603077 0.422098
33 1 0.67818 0.928071 0.513926
1 1 0.421848 0.110705 0.505192
23 1 0.240697 0.450377 0.489616
13 1 0.0725378 0.454484 0.66404
12 1 0.208512 0.946763 0.900597
19 1 0.277555 0.128728 0.780469
3 1 0.0984997 0.289591 0.821251
61 1 0.4986 0.130622 0.859422
2 1 0.405609 0.334132 0.0147473
17 1 0.434681 0.295672 0.678622
63 1 0.457156 0.482911 0.796509
52 1 0.590525 0.0344856 0.68941
29 1 0.678427 0.277933 0.563418
5 1 0.967932 0.222697 0.999408
4 1 0.755296 0.20924 0.958934
11 1 0.853126 0.997121 0.950959
10 1 0.981541 0.0303633 0.623828
9 1 0.768621 0.450261 0.9121
47 1 0.182483 0.860119 0.564939
57 1 0.491508 0.778301 0.547994
35 1 0.146114 0.411008 0.997386
34 1 0.0783376 0.885588 0.746739
45 1 0.168896 0.631782 0.76908
22 1 0.400073 0.676605 0.717859
32 1 0.375922 0.83001 0.874447
37 1 0.664989 0.556552 0.732156
8 1 0.0101097 0.774031 0.425265
24 1 0.630925 0.781898 0.705255
46 1 0.89655 0.548643 0.764474
43 1 0.597559 0.810165 0.910207
31 1 0.793301 0.973019 0.738686
50 1 0.862917 0.767775 0.848807
ITEM: TIMESTEP
110
ITEM: NUMBER OF ATOMS
64
ITEM: BOX BOUNDS pp pp pp
9.9716515787200422e-02 1.0761683484212393e+01
9.9716515787200422e-02 1.0761683484212393e+01
9.9716515787200422e-02 1.0761683484212393e+01
ITEM: ATOMS id type xs ys zs
38 1 0.300948 0.0366609 0.149716
18 1 0.203079 0.213381 0.0754699
7 1 0.463447 0.423047 0.237055
41 1 0.234276 0.475874 0.228368
55 1 0.280753 0.212944 0.293514
53 1 0.98386 0.190497 0.478435
40 1 0.568285 0.220591 0.09258
36 1 0.755225 0.266948 0.366626
44 1 0.981155 0.146541 0.240127
16 1 0.773854 0.0839889 0.142955
26 1 0.893014 0.415038 0.0950598
64 1 0.671859 0.420729 0.189931
28 1 0.620623 0.0719834 0.341776
48 1 0.466864 0.35408 0.454674
25 1 0.879275 0.390069 0.51239
62 1 0.0418343 0.556356 0.161816
14 1 0.447082 0.599244 0.981013
49 1 0.191827 0.858029 0.286797
51 1 0.210859 0.69771 0.977986
15 1 0.924701 0.795733 0.053198
20 1 0.486977 0.944145 0.191601
30 1 0.367278 0.738582 0.188823
21 1 0.164751 0.621134 0.373429
42 1 0.375286 0.639538 0.40739
60 1 0.371139 0.913369 0.415407
58 1 0.611747 0.512303 0.373704
27 1 0.675783 0.612941 0.0474038
6 1 0.619232 0.733745 0.362564
54 1 0.686216 0.866074 0.151666
39 1 0.834642 0.805318 0.286236
59 1 0.853905 0.00315577 0.391378
56 1 0.822049 0.608971 0.421913
33 1 0.677041 0.924806 0.522223
1 1 0.423226 0.108095 0.498831
23 1 0.24181 0.447479 0.488681
13 1 0.0780803 0.458791 0.660536
12 1 0.207177 0.937005 0.898692
19 1 0.276573 0.136435 0.793708
3 1 0.0988256 0.296162 0.812499
61 1 0.493731 0.135998 0.857433
2 1 0.401281 0.34477 0.00982192
17 1 0.439798 0.289075 0.676102
63 1 0.464831 0.478021 0.791379
52 1 0.587554 0.0315587 0.698471
29 1 0.677646 0.27724 0.567855
5 1 0.971108 0.223771 0.00131478
4 1 0.745177 0.202061 0.959498
11 1 0.851328 0.989287 0.953172
10 1 0.981225 0.0291057 0.61166
9 1 0.766189 0.449526 0.918315
47 1 0.180929 0.849431 0.556748
57 1 0.496195 0.787669 0.543783
35 1 0.141085 0.41629 0.996344
34 1 0.0819042 0.876647 0.735201
45 1 0.164791 0.624021 0.768586
22 1 0.393568 0.680444 0.703849
32 1 0.382555 0.819006 0.871039
37 1 0.67265 0.557025 0.746903
8 1 0.00478597 0.780031 0.424081
24 1 0.627277 0.775214 0.711213
46 1 0.89638 0.551947 0.75838
43 1 0.58333 0.809882 0.922427
31 1 0.795704 0.975979 0.742889
50 1 0.86665 0.767424 0.84526
ITEM: TIMESTEP
120
ITEM: NUMBER OF ATOMS
64
ITEM: BOX BOUNDS pp pp pp
8.9578187242438823e-02 1.0771821812757157e+01
8.9578187242438823e-02 1.0771821812757157e+01
8.9578187242438823e-02 1.0771821812757157e+01
ITEM: ATOMS id type xs ys zs
38 1 0.301884 0.0343094 0.1467
18 1 0.219004 0.213535 0.0832973
7 1 0.459773 0.436256 0.239396
41 1 0.232017 0.477903 0.228206
55 1 0.270477 0.195884 0.286557
53 1 0.97544 0.193906 0.470635
40 1 0.571278 0.220993 0.106272
36 1 0.756211 0.274577 0.364382
44 1 0.980688 0.151437 0.241375
16 1 0.772813 0.0863207 0.145255
26 1 0.889765 0.40876 0.0991455
64 1 0.67454 0.420787 0.196176
28 1 0.621187 0.0706473 0.34521
48 1 0.459048 0.358477 0.45896
25 1 0.886533 0.38231 0.518839
62 1 0.0425289 0.560122 0.152717
14 1 0.43971 0.603012 0.977027
49 1 0.208435 0.863839 0.280618
51 1 0.20792 0.69351 0.968124
15 1 0.913747 0.797508 0.0517072
20 1 0.484875 0.936158 0.193102
30 1 0.370722 0.736381 0.178883
21 1 0.164821 0.623984 0.364016
42 1 0.383948 0.640966 0.404696
60 1 0.371233 0.915755 0.410817
58 1 0.616785 0.505649 0.383283
27 1 0.667193 0.614789 0.0512342
6 1 0.630798 0.730466 0.373041
54 1 0.686241 0.871461 0.157273
39 1 0.836649 0.809128 0.291452
59 1 0.858553 0.0121216 0.406092
56 1 0.8189 0.614573 0.421958
33 1 0.676897 0.923483 0.527708
1 1 0.426661 0.108428 0.4914
23 1 0.243544 0.444395 0.488637
13 1 0.0822067 0.461227 0.654711
12 1 0.206499 0.9297 0.898576
19 1 0.275145 0.145985 0.807456
3 1 0.100704 0.300249 0.804741
61 1 0.48755 0.144637 0.85783
2 1 0.39499 0.357999 0.00490116
17 1 0.444437 0.279868 0.673921
63 1 0.472171 0.474282 0.78645
52 1 0.584715 0.0293458 0.704806
29 1 0.675479 0.277376 0.573798
5 1 0.977295 0.224359 0.00271201
4 1 0.734288 0.197107 0.956599
11 1 0.850393 0.98018 0.955913
10 1 0.978731 0.0247148 0.601222
9 1 0.764934 0.448111 0.923355
47 1 0.181824 0.838662 0.542889
57 1 0.498589 0.795177 0.535433
35 1 0.138136 0.423594 0.995514
34 1 0.0815921 0.865767 0.727508
45 1 0.162301 0.619655 0.767967
22 1 0.383859 0.681434 0.689688
32 1 0.386527 0.80779 0.867766
37 1 0.679236 0.55741 0.760876
8 1 0.00110179 0.784291 0.423046
24 1 0.626318 0.765699 0.718775
46 1 0.896159 0.55668 0.753482
43 1 0.574262 0.808318 0.939935
31 1 0.800642 0.979327 0.745062
50 1 0.871326 0.76814 0.838771
ITEM: TIMESTEP
130
ITEM: NUMBER OF ATOMS
64
ITEM: BOX BOUNDS pp pp pp
7.7550320210290735e-02 1.0783849679789302e+01
7.7550320210290735e-02 1.0783849679789302e+01
7.7550320210290735e-02 1.0783849679789302e+01
ITEM: ATOMS id type xs ys zs
38 1 0.301205 0.0281215 0.143548
18 1 0.232021 0.219102 0.0857845
7 1 0.451188 0.447211 0.240044
41 1 0.232794 0.475713 0.225294
55 1 0.261272 0.180786 0.285266