10.949880848160982 0.0 0.0 0.0 11.082330606900339 0.0 0.0 0.0 10.776336186598478
11.037373949435741 0.0 0.0 0.0 10.926956060445585 0.0 0.0 0.0 10.875676421076507
10.737304013438864 0.0 0.0 0.0 11.04608740225734 0.0 0.0 0.0 11.137193426811367
10.980554075865989 0.0 0.0 0.0 11.046854661376068 0.0 0.0 0.0 10.93111962141644
11.042209570765676 0.0 0.0 0.0 10.736119521464053 0.0 0.0 0.0 10.973107423271825
10.86494790622024 0.0 0.0 0.0 10.825844958705753 0.0 0.0 0.0 11.002737175566924
11.07211496234136 0.0 0.0 0.0 11.089066370348704 0.0 0.0 0.0 11.123733162295794
10.833427994981868 0.0 0.0 0.0 11.169155928546356 0.0 0.0 0.0 11.120394669140943
11.054521936872437 0.0 0.0 0.0 11.046993807433426 0.0 0.0 0.0 11.06433835235238
11.090294845334343 0.0 0.0 0.0 10.96797998348515 0.0 0.0 0.0 10.758473223561941
11.00156294021483 0.0 0.0 0.0 10.754170794378219 0.0 0.0 0.0 11.07376619779146
10.970688625170652 0.0 0.0 0.0 10.972246462955427 0.0 0.0 0.0 10.85413602921684
11.111477808984738 0.0 0.0 0.0 11.000774155573822 0.0 0.0 0.0 10.8260017211163
11.130518134118505 0.0 0.0 0.0 11.014972225368222 0.0 0.0 0.0 10.74463420092675
10.752277611726438 0.0 0.0 0.0 11.126403111226459 0.0 0.0 0.0 11.00590233603184
10.80401579656437 0.0 0.0 0.0 10.734491954913478 0.0 0.0 0.0 11.098057890483664
11.011344251734037 0.0 0.0 0.0 10.792273557845789 0.0 0.0 0.0 11.014328326026256
10.735894285355812 0.0 0.0 0.0 10.805001236870648 0.0 0.0 0.0 11.028436668737474
10.921169809544553 0.0 0.0 0.0 11.056887186767764 0.0 0.0 0.0 10.906852155924241
11.096583587278419 0.0 0.0 0.0 10.830121325597103 0.0 0.0 0.0 11.007444731321812
11.091648480633312 0.0 0.0 0.0 10.966102111481025 0.0 0.0 0.0 10.77392820990557
10.824092250672097 0.0 0.0 0.0 11.048594748043286 0.0 0.0 0.0 10.744968136319683
11.050945228121176 0.0 0.0 0.0 10.802519979393011 0.0 0.0 0.0 10.994994292431198
10.788899320430543 0.0 0.0 0.0 11.119999851675235 0.0 0.0 0.0 10.827092024024868
10.982836417165617 0.0 0.0 0.0 11.012951354621485 0.0 0.0 0.0 11.061187972165676
10.92400831609016 0.0 0.0 0.0 11.014033068623059 0.0 0.0 0.0 11.061519732773105
10.831737802978386 0.0 0.0 0.0 10.837121176666466 0.0 0.0 0.0 11.108856982929787
10.830276744706122 0.0 0.0 0.0 10.972662393068774 0.0 0.0 0.0 10.948359252053654
11.042566765381313 0.0 0.0 0.0 11.023109762740711 0.0 0.0 0.0 11.031159793912675
11.015555443958114 0.0 0.0 0.0 10.896279009610936 0.0 0.0 0.0 11.148392027056806
11.041085598375131 0.0 0.0 0.0 11.009110614482237 0.0 0.0 0.0 11.007785684210432
11.091554816267433 0.0 0.0 0.0 11.100095313475958 0.0 0.0 0.0 10.855726177763955
11.037686163988669 0.0 0.0 0.0 11.123095779525613 0.0 0.0 0.0 10.88427336399539
11.011461729074293 0.0 0.0 0.0 10.86411735967755 0.0 0.0 0.0 10.858897926817969
10.857666427833294 0.0 0.0 0.0 11.038348854858867 0.0 0.0 0.0 10.771804001721987
10.83581881760921 0.0 0.0 0.0 10.917401697486989 0.0 0.0 0.0 10.911441997137306
11.117961817318694 0.0 0.0 0.0 10.809249371537206 0.0 0.0 0.0 11.01199652323783
10.898469165660602 0.0 0.0 0.0 11.036476480705364 0.0 0.0 0.0 11.146245862141896
10.820087966736484 0.0 0.0 0.0 11.16457792742144 0.0 0.0 0.0 10.739305189976829
11.054694977819569 0.0 0.0 0.0 10.922171294425468 0.0 0.0 0.0 11.083039215742698
10.999052523538403 0.0 0.0 0.0 10.961875726008842 0.0 0.0 0.0 11.036042337175063
11.08130994551371 0.0 0.0 0.0 10.840989576725354 0.0 0.0 0.0 10.765005034428965
10.737775510331508 0.0 0.0 0.0 10.932794989150148 0.0 0.0 0.0 11.106521459131802
10.878474204842965 0.0 0.0 0.0 11.09668551891791 0.0 0.0 0.0 10.95539589594541
11.067401580946553 0.0 0.0 0.0 10.82380807214992 0.0 0.0 0.0 10.994013641063296
10.836249038679602 0.0 0.0 0.0 10.977553726143984 0.0 0.0 0.0 10.908396784779132
10.790930831733412 0.0 0.0 0.0 11.001008673165598 0.0 0.0 0.0 10.931461123955076
10.875104933557378 0.0 0.0 0.0 10.733489317112594 0.0 0.0 0.0 11.029259545990554
10.891275001513037 0.0 0.0 0.0 10.828410562204304 0.0 0.0 0.0 10.912284270990957
10.796573977483295 0.0 0.0 0.0 10.988126792991803 0.0 0.0 0.0 10.916577897243021
10.834713895598167 0.0 0.0 0.0 11.021818569861251 0.0 0.0 0.0 10.798764314892571
10.951542464595214 0.0 0.0 0.0 10.867248442245225 0.0 0.0 0.0 11.049646381993059
10.747094320970614 0.0 0.0 0.0 10.907354991484928 0.0 0.0 0.0 10.95810277086855
10.989842194227009 0.0 0.0 0.0 11.156920765105843 0.0 0.0 0.0 10.860348883652433
11.103279795672924 0.0 0.0 0.0 10.751372445828865 0.0 0.0 0.0 10.818913696825945
10.939748162975429 0.0 0.0 0.0 11.140011192846856 0.0 0.0 0.0 11.098910558998558
11.019801561877944 0.0 0.0 0.0 10.915157526246352 0.0 0.0 0.0 10.887233349088552
10.820477441161831 0.0 0.0 0.0 10.740903650059527 0.0 0.0 0.0 11.013287528685893
11.119005354773567 0.0 0.0 0.0 10.79205100231645 0.0 0.0 0.0 10.829922334554809
11.164016109761702 0.0 0.0 0.0 10.869319576512323 0.0 0.0 0.0 10.774581735804885
10.885499561461067 0.0 0.0 0.0 11.147284940414645 0.0 0.0 0.0 11.085673012896775
10.81639695570822 0.0 0.0 0.0 11.111554795835586 0.0 0.0 0.0 11.052627065220888
10.970277454479762 0.0 0.0 0.0 11.080726207891464 0.0 0.0 0.0 10.97504952517246
11.080388647993967 0.0 0.0 0.0 11.096820864358941 0.0 0.0 0.0 10.81423771266915
10.906363431254821 0.0 0.0 0.0 11.003855413966809 0.0 0.0 0.0 10.941296513325131
11.042456167344769 0.0 0.0 0.0 10.859151394966846 0.0 0.0 0.0 11.138415111438995
10.791593890775479 0.0 0.0 0.0 10.960967956891201 0.0 0.0 0.0 10.947715879593328
10.81503432439671 0.0 0.0 0.0 10.883947723111765 0.0 0.0 0.0 11.068700954475434
10.749804237454592 0.0 0.0 0.0 11.131121293365581 0.0 0.0 0.0 11.016410132347705
10.966142992950894 0.0 0.0 0.0 10.814854084220144 0.0 0.0 0.0 10.767732567779433
10.86559350241443 0.0 0.0 0.0 10.876676407786894 0.0 0.0 0.0 10.977443921928286
11.137210638272553 0.0 0.0 0.0 10.820201074664762 0.0 0.0 0.0 11.027976876332374
10.760376668900287 0.0 0.0 0.0 10.943582842064984 0.0 0.0 0.0 11.098144892537068
10.864956373055572 0.0 0.0 0.0 11.002387206218351 0.0 0.0 0.0 11.120261117909632
10.86281373453895 0.0 0.0 0.0 11.106281978771172 0.0 0.0 0.0 10.966618782586202
10.77176985419614 0.0 0.0 0.0 10.757120247194432 0.0 0.0 0.0 11.154275401718644
11.01954596928631 0.0 0.0 0.0 10.886672283988656 0.0 0.0 0.0 11.063007058589175
10.804502639596056 0.0 0.0 0.0 10.802849550692198 0.0 0.0 0.0 11.023056118989803
11.047422495445165 0.0 0.0 0.0 10.926585788189985 0.0 0.0 0.0 11.060966635424581
10.956713584275244 0.0 0.0 0.0 11.142232658684192 0.0 0.0 0.0 10.744471085434247
10.913501502618303 0.0 0.0 0.0 11.016590437812036 0.0 0.0 0.0 10.736582729759357
10.956847995286166 0.0 0.0 0.0 10.96966750744065 0.0 0.0 0.0 10.983451222218722
11.060027496548146 0.0 0.0 0.0 10.86738393761327 0.0 0.0 0.0 10.76767778973189
11.098070575233892 0.0 0.0 0.0 10.979964908172253 0.0 0.0 0.0 10.735851747799408
11.013747245437171 0.0 0.0 0.0 10.734108202875522 0.0 0.0 0.0 10.95871155045172
10.867937228270227 0.0 0.0 0.0 11.104695240788093 0.0 0.0 0.0 10.861492541493863
10.937183770223749 0.0 0.0 0.0 11.075211029403974 0.0 0.0 0.0 10.975135797906427
10.786495268372994 0.0 0.0 0.0 10.761686329255737 0.0 0.0 0.0 10.766173511287379
11.161279734417304 0.0 0.0 0.0 10.853395832943404 0.0 0.0 0.0 10.832792110553669
10.871695444803954 0.0 0.0 0.0 11.124875488322548 0.0 0.0 0.0 10.899363909710981
11.058385988847835 0.0 0.0 0.0 10.979263237097628 0.0 0.0 0.0 11.10211084704774
10.733101817227329 0.0 0.0 0.0 10.815059782703676 0.0 0.0 0.0 10.741012113266626
10.776500169261611 0.0 0.0 0.0 10.880708925898372 0.0 0.0 0.0 11.076679581476393
11.007970747030784 0.0 0.0 0.0 10.919070375277764 0.0 0.0 0.0 10.985206263525924
10.895960336515799 0.0 0.0 0.0 10.850622245555558 0.0 0.0 0.0 11.152669162044111
10.992502368053401 0.0 0.0 0.0 10.898472502797073 0.0 0.0 0.0 11.103658551999155
11.129951914505568 0.0 0.0 0.0 11.018062507909043 0.0 0.0 0.0 10.924615431634855
10.91327078135546 0.0 0.0 0.0 10.881054806008898 0.0 0.0 0.0 11.155163428224203
10.833274004414237 0.0 0.0 0.0 11.056991945879396 0.0 0.0 0.0 11.057436110113576
11.0171255127353 0.0 0.0 0.0 11.053283718668096 0.0 0.0 0.0 11.031579981408008
