4.078687172500855 4.113611817466064 1.3412355752580511 0.04688738979182533 2.8036085873512224 2.683868355312328 4.104730369110121 1.3662461981033358 3.995797669468361 -0.015617815053732007 0.01051845554274344 -0.04870835497687449 1.362909769408901 4.187721706034503 4.0356705655888545 2.736103666910395 2.7757290957237197 0.00222830075260076 1.3733800454759129 1.3438668316258644 1.360290557910021 2.717264396911134 0.038244648838371864 2.6616028675956773 4.1484915679197965 4.153875624332837 6.780710430259433 -0.04526133248587342 2.7455873587129873 8.079423238231737 4.068181856815129 1.346036003021885 9.44413426304016 -0.03071551076717637 -0.02614174553689953 5.381473336148674 1.3991319752546176 4.127730593831683 9.445077047781187 2.717479014575758 2.7947183790906007 5.369362767930608 1.330310879135841 1.4281590143950076 6.714901646361986 2.752825229953622 -0.004233223935899036 8.117098493266004 4.09663840716333 9.736787348516618 1.3571873616776522 0.0438520828207151 8.296908676649824 2.7265619407393076 4.14799006337695 6.8826735307413385 4.018700440250375 0.007853254544301056 5.5449331574500205 0.04046199971012446 1.3254995014911592 9.72356427240438 4.080565077066314 2.720747554008934 8.30660479614087 -0.04534564656840426 1.3398876449256427 6.887729090728935 1.3222747615813757 2.7068718649981443 5.4994451624305905 2.655768771079777 4.146154863346799 9.701797004266322 6.7314031168001645 -0.021644629472559813 8.30173209916344 8.073213560802746 4.130643262137294 6.937459069588943 9.383387609058817 0.010837097075424924 5.501726022611262 5.346623150373231 1.3898661860809038 9.72669046338653 9.453715408782301 2.744459520985626 8.267479776882308 5.357495287067371 1.4173471020455335 6.934340543523386 6.7659565608046215 2.710726223056697 5.535050889984555 8.130024827607258 9.548129661407485 4.1885254272887575 1.3696899356300825 5.49688727026446 2.8204922086310016 2.647636294573848 9.583899637174172 1.3938836973640942 4.065328317866099 5.4673674864859025 -0.04990189198932404 0.011038574883031086 6.893419743805724 4.191969164815505 4.086205360691202 8.201437760522793 2.729025663930144 0.02071060463621168 6.866698749571956 1.3614709550654527 1.343105814906917 8.256390832547375 0.04031855627101355 2.661121072838358 9.618793622473005 4.119225821376916 6.692297807327128 5.442683170089893 2.7237784810277046 8.096034207478397 9.549946246640193 1.40831564032197 9.399706216486832 5.507173588333222 0.027581654868432698 5.433307882107698 6.853962943157461 4.109757459407511 9.444133168052074 8.197992928007963 2.763552828220565 5.359331582085607 6.888005027726308 1.3488676422092194 6.692702952918509 8.26184168323359 0.014589621242089693 8.052828167627723 9.566725844051916 9.678208770943213 1.3312449039721892 5.456102249069315 8.33506791641758 2.7358605795555655 9.564092397707933 6.955311755323784 4.083038655149914 5.444284042669894 5.507826201231773 -0.00925812425712011 6.889535821068881 9.730475837195739 4.082522915761966 8.240153254237637 8.339504808137256 0.03909216961601952 6.8174385206003345 6.888655450648689 1.3375421804479666 8.214274305841093 5.528388982476534 2.693591849505495 9.539778187284591 9.698997119733445 6.778500744304274 5.437571765709972 8.329937897240217 8.041178589393365 9.619868900772296 6.9382923555214875 9.453621239807006 5.495458310813775 5.566355504341362 5.427709208030033 6.872137555389238 9.697903226636715 9.396865817394819 8.178072904768989 8.285736513220446 5.407914013432728 6.838834587777642 6.906065761197265 6.7620178886635385 8.209319484757302 5.577214501178484 8.038980948307138
4.13094359946918 4.08068381345303 1.3329891705603292 -0.025023934218160713 2.656950872967415 2.7374011879474573 4.113526623376971 1.3094100285921495 4.105414153524135 0.04218705070953329 -0.018161998833796513 -0.001987831048293377 1.3652922528981426 4.002093295983467 4.128665485486017 2.7669217483126176 2.6603227907089675 0.04662076382502163 1.428506604718746 1.3417671940623155 1.371057073311933 2.732712511493737 0.045565590875455565 2.801266744831077 4.142799946565664 4.061505272478491 6.8624508297276385 -0.04825981385651284 2.690315750679164 8.275852788196582 4.0906251761692864 1.3549645820936558 9.711642955984562 0.007701879541916261 0.04159103251626376 5.521883398213627 1.3653937967384775 4.026792731407515 9.716615292948783 2.803128749816347 2.666691355477792 5.489448971125816 1.3664732519107323 1.3274616536864516 6.951556653358829 2.7222932304854695 0.014657632604850665 8.323881920937552 4.117010018595413 9.461070285109681 1.406206694391306 -0.018112330651024054 8.101736006669444 2.737854824016779 4.157796426550763 6.715191290231662 4.13682872725902 -0.0048222286785084756 5.411561534376832 0.022628824071133154 1.4277074988448069 9.409481599270018 4.132343138485969 2.79954822570715 8.087260490734758 -0.016781223352722103 1.3891793375995118 6.7650890503822705 1.3711122601816803 2.801197209375196 5.356361419780914 2.792133317887919 4.111059770299272 9.42793498477608 6.914229358399232 -0.015582564541813379 8.10425142419252 8.321885259990099 4.16146856086374 6.712780727761106 9.710318471110629 -0.04659648160233287 5.39555734215015 5.486611262283415 1.3857996936961945 9.492775141779434 9.704096703415331 2.761968174884111 8.111533883524357 5.5742733974020195 1.3904177309566381 6.717976019679105 6.868067749330507 2.717423541098978 5.399267003534556 8.243837781318849 9.624105543191586 4.065389324371297 1.3703197767321107 5.541157964341527 2.7433988969515806 2.726533789556843 9.70317618642795 1.3812854077508754 4.114638086933679 5.484755879722515 -0.0003874118256251945 0.04905450478087221 6.854655132507153 4.056774654003762 4.1452778370173125 8.284004992595635 2.689144685303129 0.006328830222606454 6.9440589652349765 1.3237828969491048 1.3357827299069314 8.310095137137312 0.031348349491187394 2.776972381030974 9.678349821203483 4.008592101764895 6.912105767651361 5.53601675555588 2.7335657005000282 8.296948521026138 9.691520719537344 1.340363240095947 9.655196721869752 5.4924268546173725 0.020856221814853776 5.546241778782637 6.878478200439615 4.0209329895777595 9.687674194715965 8.319100530542656 2.691021038874533 5.566006404313892 6.865281916145669 1.303947632224574 6.926395855703695 8.242240673308366 0.030101126234901153 8.249402825264154 9.693984261402859 9.416033384446404 1.3740404754904656 5.551385195043074 8.050832741752041 2.718511826170393 9.615202797363972 6.735294763143165 4.165805145088473 5.542406291335207 5.444218916418422 0.016146574350629547 6.878654798422805 9.479745521832127 4.137122321406075 8.31646259816874 8.136957370679488 0.029779938652972574 6.922638733611307 6.779896791272835 1.4078280846244782 8.301919754252964 5.402641128750898 2.7598037458526266 9.698426804417506 9.463368266365954 6.940374689810656 5.516265374873365 8.070270661014392 8.274042658868876 9.701945519232586 6.719115076670687 9.71020037120937 5.537634834576867 5.385312451650284 5.572711608988174 6.896483468563329 9.418994711877037 9.65593291471218 8.252530817041425 8.141194618538677 5.560291252082874 6.911003133993812 6.715948454084594 6.889661267725183 8.241308015209638 5.381102797225969 8.306157002112153
3.9678998319598437 4.18935672723702 1.4049579767416525 -0.009088054116974654 2.7909893076988164 2.790251654913093 4.004888770555739 1.3995002051116217 4.237634867272645 -0.036005401548264544 -0.03858235451148987 -0.04176167022986912 1.3514443272690744 4.136339141209863 4.242303447057688 2.6915607988039714 2.756854344509693 -0.04937549250579862 1.375863104056437 1.4036168874703738 1.4321910009109375 2.6187114122639925 -0.004471013391195943 2.820173300007343 3.951324655754298 4.172142681442675 7.009466677150685 0.024065519485320524 2.753953124965262 8.411919640866001 4.000066647323304 1.4267471877761242 9.816320351529356 0.03501005346621876 -0.04079853405986365 5.580930654525921 1.3703752679751686 4.127047078316633 9.78331710018325 2.6361101396873687 2.7666274386227245 5.622321887767326 1.299368402803896 1.3669994595933437 6.9643324197301935 2.656055755622733 -0.040453866601032264 8.459363492379783 4.027490795504028 9.70199812823747 1.3842349799957157 0.029998953683146846 8.293837213708608 2.8417735344911783 4.005030502968716 6.9165986610080505 4.172331657993311 -0.013011465003485217 5.550026546114442 -0.04844242078703078 1.359866668537216 9.643022412213256 4.234606947540855 2.6612633480692507 8.35197112509817 0.017256995010398943 1.3669275196564532 6.947866764025585 1.4263681609444496 2.62843296731776 5.52653547239384 2.7925182997903297 4.00478569243721 9.708167783123592 6.958218598824942 0.027966382033402865 8.335613916164096 8.395503376759855 4.022021212839582 6.95146590833089 9.810717626295144 -0.02325485303230589 5.568244529834043 5.591350134340562 1.294403473428082 9.727046111040021 9.84450255337343 2.694647773707835 8.266435613866312 5.644482609520662 1.3120158732013258 6.933609771756542 7.045159623152157 2.6376423529700865 5.536077714470583 8.450791902585854 9.298785519272807 4.17972858672817 1.3823205186901193 5.300400333758008 2.748115252773155 2.813424904434897 9.350395444743803 1.4149823237685992 4.2475056708522 5.3283527572961935 -0.02508878455780125 -0.026333238092958813 6.685308542715366 4.191015640707096 4.186782995464999 8.029004831408344 2.738388329067381 0.02503080311612868 6.653714025655821 1.404757189156601 1.3724035447033072 8.03757427374147 0.007295998077131708 2.801077004819442 9.368895819558958 4.1740270782970335 6.998933381913501 5.288352004924528 2.7530866245313774 8.406219206165268 9.354701103653191 1.4071333545347753 9.844724815566508 5.340762933274926 -0.04812459658823299 5.57149363802851 6.702162888825262 4.188988437709359 9.834103474436414 7.973631480880638 2.7447394443913296 5.588878406956669 6.620716142961721 1.4120789567633651 6.978485260150308 8.00277252397311 0.04594385014310356 8.415604683603414 9.317363202676859 9.706682813978533 1.4069025024984863 5.315377799126353 8.301381243508452 2.8151954858667128 9.351854644359229 6.940608346512501 4.21153570240718 5.335525276377171 5.495123489502525 -0.009104160072994813 6.6651106001356855 9.692563259200861 4.25066995434496 7.9469235108776095 8.31105555442456 0.03571871553110573 6.63376196733805 6.898338801802796 1.4114937736946327 7.951585648280245 5.521572690478828 2.819825411357308 9.29074113110594 9.648883906474193 7.037056179813216 5.287057086060508 8.31924596992601 8.363027327040808 9.284988083615538 6.910124066687946 9.837226956173923 5.283977627269453 5.517831813760546 5.604610704797159 6.640747657329193 9.642791560176967 9.79049176672503 7.96986268717192 8.28890020132323 5.587473967591712 6.676726215617424 6.90607610307488 6.9636581170381495 7.999356987566435 5.575895932674019 8.381637222356899
4.247429848191211 4.0842686971225115 1.3457997667016948 -0.048190357672753065 2.7785150111354993 2.7168493175008437 4.1987519539174905 1.3939692613217038 4.057618892380384 -0.02675412000584748 -0.040938799761051164 -0.00034698550879736525 1.4284591816739989 4.134669440330736 4.035377780099718 2.8099644160641875 2.7346465995470073 -0.016554283324775564 1.4257480828726674 1.4150101990418784 1.3769219511189217 2.815465673656196 0.033901362653828655 2.7286457267445465 4.219579868888593 4.122534830021496 6.730664583561784 0.009086408497779105 2.691165801517393 8.076257915846853 4.23263904185102 1.3781451848429733 9.378820652819416 -0.04776541023001705 -0.046139190171381295 5.331489441552711 1.3926658695528986 4.103191485961451 9.397675362223087 2.766815230767664 2.6962311311125897 5.376251670242979 1.3735443326851855 1.3558162281296997 6.738998824105365 2.8250956195807304 0.048748169819807056 8.029737700449038 4.248073308660057 9.553713427862773 1.385761297149994 0.04946739611177628 8.21158446038864 2.651894947920466 4.19722785301176 6.797325331245551 3.994118348159651 -0.0013681770378529022 5.499379917261887 0.0332502157971298 1.421417352345146 9.57656396089465 4.009598733295807 2.7791804327124967 8.178180516834448 -0.038409978157379225 1.3913427127867568 6.880921387480526 1.385384664145192 2.806664759564389 5.506860968753775 2.6628524428327727 4.198263319261114 9.561697388731336 6.712356705751092 -0.025455120458672535 8.169650822428315 8.072049069469571 4.190742737774554 6.820213198161286 9.440266735372555 -0.013071251571910874 5.504858115690338 5.365332607269938 1.436955934417904 9.624756514678218 9.373295238008442 2.761214050133565 8.211033236574032 5.338613625037134 1.4413481560482506 6.825883556286063 6.679917952900168 2.7874015735490976 5.517388025946308 8.058838364860899 9.752065058633807 4.145847644379967 1.3629151563397472 5.564824019554049 2.716284917021344 2.672900747867598 9.845970757090614 1.3398911305534713 4.031527997840719 5.555635491903364 0.014872062440352895 -0.00863949994689136 7.006636653039708 4.06004559483115 4.070219078182441 8.372966761697048 2.78017087869014 -0.024181376185872083 6.994718359645763 1.3924341798618978 1.3190127050336198 8.432814075576742 -0.01428240668647889 2.712033246483169 9.789002544489614 4.138575223415522 6.746666545016543 5.588929629916796 2.7424021648907915 8.011821828418856 9.772412025336388 1.4152858109491826 9.416612425782326 5.6149974652929036 0.0243845164362756 5.335185496054648 6.995637432021913 4.113562619286107 9.373454456042541 8.36695600639592 2.727521318007178 5.3821086977870465 6.962414667609973 1.3991652595104038 6.709217365340802 8.439927278507088 0.02055889139624389 8.04818173713027 9.749944713641758 9.541301009535413 1.3353989858810347 5.5980918042377 8.257026385376204 2.699946950611863 9.756132255863509 6.815915409295992 4.068770743099834 5.626477634579221 5.45453533441605 -0.02522672493389452 6.973701579144556 9.62979219677741 4.020748387904441 8.35230135892627 8.214554700266161 -0.042861494779735304 7.015751610978085 6.841820732471775 1.3917951116146823 8.379014850882037 5.523553607059907 2.643591452928296 9.783223478879485 9.561960922029156 6.680002503166553 5.548990060576649 8.26161845309073 8.024538408094115 9.818543529119916 6.848046706632791 9.388006984359286 5.550589927305504 5.501498066143122 5.368706931537451 7.033935408527719 9.562370496696184 9.366876006095689 8.438718319503336 8.216824380793643 5.391595896508594 7.043419313083044 6.867493267901149 6.74438368782417 8.411948826721781 5.508861625706397 8.070378927194632
4.166766739318857 3.997464269517007 1.3967058999660515 -0.044516667884541825 2.6344691311495456 2.7020043891053054 4.148469798060098 1.2841846802189925 4.115296792067604 0.010611563397505816 -0.041810222318747155 0.0435990602692112 1.3550049955220551 3.974273420976484 4.083557064877396 2.7239574059529446 2.659254474752086 0.032986392650748306 1.4030871928769972 1.3274833923878788 1.3956977462322409 2.7746245845684028 -0.03700906959737824 2.7589888158161986 4.1113503063670125 4.022394266064924 6.842925732702828 0.007333131375945486 2.6594234205585185 8.234378853576066 4.17790059922906 1.3302041928261155 9.649589288340808 -0.020799105947494227 -0.045156011818689154 5.526878756767392 1.333976211615489 4.007789839686629 9.665601596439375 2.743173059047991 2.706498568400607 5.47375026963861 1.3822185210092073 1.3029034338833545 6.873459650607909 2.7328828239489944 -0.002346469533787706 8.20911979918294 4.124999581617436 9.325277384805505 1.3676814521092941 0.025175133600388665 7.994290299320824 2.7848982563530433 4.15214795806812 6.621424529818054 4.167306703366868 -0.022202570783938544 5.337023422291475 0.04593559181438521 1.3835557325882268 9.355377343874457 4.103186800831345 2.7982295159678285 7.954384858153032 0.04580639796240725 1.3988988827868059 6.686581295832271 1.3361493184590156 2.754523346265781 5.30725362528869 2.708088646578797 4.106138383449611 9.297097665980912 6.892925961860213 -0.02735155310678658 7.944688693928944 8.289789765423127 4.137201223193132 6.651668037611424 9.620058003064752 -0.019619797965336454 5.348623263445565 5.485632791357711 1.415066886040321 9.281868250540912 9.637766394553388 2.7445224170575386 7.97760772910131 5.496285210930628 1.3365854857370612 6.6597962080764646 6.824996497022775 2.7279524773756476 5.291833179623117 8.282364983707744 9.606700242146998 3.956002981020696 1.4045624320756513 5.490090531361429 2.6555829400698063 2.730685424244412 9.606330328126376 1.2829291809907963 4.0946224630882595 5.512597867129521 -0.034619535446264546 -0.0179071512609107 6.880115894537167 3.9562922869114496 4.098762187456339 8.282959054582651 2.691910705336668 -0.05012500612553371 6.852796363838135 1.364133590174207 1.4170103149247755 8.27094071368583 0.045551322921322565 2.7880662662788955 9.595002125327728 4.032659104081907 6.896727794615427 5.476096739172397 2.7068419811182576 8.220238199999745 9.585922116397686 1.3089004579012373 9.633480913018975 5.52820492613684 0.038847597490910726 5.448472443489212 6.9184025477818825 3.9536576157078653 9.589848726121051 8.298428085970336 2.6195455849146554 5.545792957541156 6.860954348269018 1.3632457965247176 6.844038787427562 8.212910589728585 -0.032329381181287746 8.242726764011566 9.661382368162386 9.347263528281857 1.4053872851305877 5.509123987998557 7.964479646142626 2.740331898525433 9.604671788248847 6.67663668189284 4.1707308925547615 5.531905170564004 5.289483397426458 -0.04033387889913578 6.8328287362713205 9.295237053668238 4.1061273412400405 8.299489242310086 8.023737663804141 -0.038938143609391004 6.896109430879465 6.656200864640223 1.3592429955553151 8.282186099912696 5.345548008080106 2.7130962886191394 9.637753143901904 9.273893566788905 6.880928601161576 5.475649529684781 7.956709243267679 8.24363553785924 9.599902657935234 6.631223386591151 9.58066712886296 5.522351450843377 5.295791811754236 5.453734056349683 6.8909902625224575 9.292787891585442 9.57147338517434 8.271350379660905 7.938522724104629 5.473557030971121 6.917113921924974 6.657054427440044 6.876826420306036 8.259180760492963 5.273477714653633 8.194949331640776
4.023440145954461 4.091132030894585 1.3846637290020072 0.03903123885830559 2.739027291283147 2.7176374683401714 4.065889497424063 1.3725982043521496 4.070149643498092 0.019569944168683896 -0.0015276116756145657 -0.019192930476338053 1.3346317303886537 4.135458845362382 4.080400721847611 2.7407178771773553 2.7664232574286816 -0.036154200652738465 1.300716795499387 1.3643929956933722 1.3863532284014246 2.6664168444258776 0.02836511949876918 2.700693582080421 4.058261217499106 4.096502574644629 6.8736929954483745 0.022081920124602018 2.741584900020271 8.18969134017786 4.0692967450874535 1.4112024507577408 9.563295638706126 0.0035658759028214825 -0.023704056847000696 5.447389353595778 1.3144620410955463 4.107429452753915 9.565967329396265 2.6516655046536024 2.7794144756401495 5.470546903563096 1.3235842513576088 1.3817052036871436 6.897551334555644 2.6771861807905233 0.031238898219964433 8.25288730967439 4.087784540444678 9.639124283133219 1.3876494166866364 0.04219837117296879 8.251408590264354 2.7748077377279117 4.0657786749554194 6.9421725891117 4.1087701873255424 0.013623558179609559 5.564100624004396 0.013436681075622571 1.3312147042721474 9.640832252944076 4.149541990838424 2.68226445744189 8.283257012061858 0.037929533140614854 1.3375935151878893 6.890530405218645 1.3252270314810295 2.655664891977882 5.517270525539007 2.6950123008202587 4.008043428276556 9.699271548247262 6.908771566258397 0.011925366821867334 8.253727170147542 8.213458413722718 4.016432254554949 6.893076062513072 9.641915488250326 -0.03949191264952932 5.5285027086844565 5.5199346107656115 1.3425109906102446 9.69713332649932 9.563610722195406 2.6749860288395135 8.233616151573129 5.462857779929864 1.3283333200874177 6.895921592369711 6.8741667071770856 2.7067975098141357 5.529075291439115 8.245083017593354 9.474103108354385 4.145588236295351 1.4107537284092138 5.420809345038001 2.8005337613802603 2.7439610641273617 9.44869977365485 1.3956210289654303 4.083626524880968 5.348407505180531 0.02604653961558178 -0.026222551771662547 6.7313839077727025 4.133181552281238 4.1255652237989775 8.12920182920477 2.728261214402874 -0.015961694969028155 6.715937211334429 1.384287801804452 1.3255964397098408 8.11589335451444 -0.022662108342794175 2.783620296974647 9.467822081969798 4.144688618608716 6.882138319455881 5.369746262868348 2.764546880925278 8.237208103350923 9.443277078154855 1.3315069713708247 9.588668551551523 5.382206185127202 0.02231551650458575 5.522889876596103 6.75110052873812 4.1851648955385485 9.591522773366487 8.045355939717677 2.7817591313983114 5.508901256166845 6.759186222969929 1.4114490850752122 6.860247622414427 8.049017427162074 -0.019736177871649063 8.239974319087848 9.423380099054194 9.659433043759526 1.3273685127133452 5.370244963977243 8.268793593409098 2.76325938459839 9.387816951567554 6.901254108802084 4.1314931393766114 5.342545865785126 5.523348377397746 -0.013215036138335677 6.776071438510987 9.708182978519945 4.1458631194773785 8.071419863249911 8.285635349158529 0.04512538813890452 6.760556292900905 6.8729454870324265 1.3352608108724238 8.076331906198313 5.553174832389902 2.708371840765747 9.390156174851763 9.615288760416552 6.866515610861526 5.351448604099482 8.286706633022082 8.225867270726413 9.417410896674518 6.919933127242458 9.641954602062789 5.395451643119674 5.502025917131788 5.518651460417886 6.6875742648252405 9.665481560258918 9.621812075139447 8.111720128023663 8.239657062608986 5.454154956656983 6.687325457518189 6.883652893194007 6.819746356104411 8.112806622814285 5.558297655327684 8.210529223767201
4.175075324422672 4.223612154783089 1.3427485978280238 0.03301372518321323 2.8281381455043952 2.7887535253718503 4.142012881933625 1.4309468511950423 4.1149205238322715 0.02246642847008685 0.03148023726092895 -0.026142370637584185 1.4429600959291828 4.159541147130507 4.124495688851705 2.788505509996694 2.7748037677307966 0.04443129013237964 1.3871433499810275 1.391653022405189 1.4035489027207289 2.8016027147856475 -0.021806530418331305 2.81662314594356 4.151736413293553 4.2403731224130805 6.895160700009577 -0.02447380291275934 2.7610245206601625 8.286284475319567 4.187744038362584 1.421263179448979 9.652778330895828 0.02434758080218865 -0.05108230959025809 5.575273805155796 1.3989329379929287 4.217619926165469 9.668289256746572 2.7898695945600545 2.811712662957761 5.512246897944165 1.4183600709058528 1.413300114368063 6.900623681531997 2.760558384620248 0.0244206567609401 8.316185828986866 4.228937842079974 9.79835782005518 1.4062383194450814 0.0351307135640129 8.427555804547074 2.7416217464001558 4.229367440140513 6.973839148931976 4.189748091170767 0.027223009057908698 5.560686293692912 -0.00015058076348784249 1.3690747655739828 9.768043476499786 4.201410349860601 2.77346514903185 8.390918176136687 0.02299788998827924 1.4433520487988498 7.024577115746904 1.420885620328763 2.7948498318701156 5.594375417888828 2.8003283143534823 4.155670335739672 9.86421697427418 6.945074901471309 -0.04702327224506375 8.376905307440348 8.299334070014183 4.139341180593211 6.964022611806363 9.729890075551054 0.01789253777914364 5.629469593473464 5.49784761243564 1.3938685526091539 9.793143961119414 9.637973805979682 2.8155923320405662 8.443005833765524 5.500202651288129 1.402130564794053 7.040512103600707 6.879591091949533 2.8276443291770748 5.565474983414124 8.332994406711196 9.798649016678691 4.197953635569358 1.4231952635099074 5.5555754054262945 2.7669890689903758 2.7541487372685487 9.783955212912167 1.3530523080119785 4.157948976998923 5.564079896928869 -0.04795665153638913 -0.0006875783391613985 7.007771859657063 4.2554500213573005 4.145367732767214 8.365167758368768 2.82321769761513 0.00472225703143859 7.003210148292578 1.3641321734547935 1.3967749827867684 8.356442931778444 -0.01665910417233881 2.7912835036407455 9.808127854297952 4.231630580438815 6.9424939914735875 5.539795427181967 2.7730864827001374 8.330392459695046 9.750423312748717 1.3770865479607328 9.640115153013399 5.582084263069133 -0.03390835207217042 5.509239711520393 6.961830333043821 4.184568555791383 9.729895611608535 8.415498271353083 2.8380764758945927 5.579049396357955 6.982056872657025 1.4247232153747105 6.90446570542393 8.407538527906656 0.05015114472192518 8.310026411433316 9.798017906125837 9.848411530165437 1.3876925268831597 5.561542168179501 8.386993111382536 2.717481214147763 9.787252488747953 7.052545278141779 4.150307003251915 5.614222183958826 5.583460526958953 -0.026755765806497894 7.019666632761107 9.80193300597652 4.178402494968856 8.383891811981584 8.435514440782004 0.01824130940045739 6.976261727685736 6.974397183526078 1.335302600515849 8.414573749753728 5.645154351529118 2.7826062871447586 9.745341211981001 9.772016151348275 6.894362400520793 5.577964329091645 8.36569368382948 8.267874869771683 9.814859700195054 7.047443247567132 9.733540551854139 5.530880160214289 5.565006632951218 5.525333030618156 7.008135025027828 9.794815850478729 9.713472343484895 8.383112335088235 8.39644426871439 5.512367583997254 7.005789951078804 6.962682885895921 6.899539721477184 8.33448139175064 5.631790308769572 8.334109368687905
3.97095836459102 4.104259362698074 1.3449690022341994 0.037460910663847796 2.76897219506299 2.708514083451394 3.992946973392434 1.387430623260531 4.092889680017341 -0.01713956643086081 -0.013696703014055577 -0.044789724702453036 1.347851777423664 4.096093124675456 4.087488132819042 2.6917580203715556 2.7370558328469734 0.016905564386169206 1.3779080400529418 1.4129325127607182 1.3626827403487944 2.712146531858112 -0.011739102575362353 2.6893280824722816 4.018549613772975 4.1072288053114985 6.870628285013869 -0.031107105144790936 2.7328968798397 8.182465414411014 3.972672212899826 1.3545089189265802 9.534778397483013 0.016518811006748353 0.03686723880972279 5.426293997866896 1.3080129293149179 4.180931865989758 9.54266296637776 2.6385323052894103 2.7216853652076933 5.507389789808932 1.346714267484191 1.3929968385643525 6.809989255154758 2.7134216263331212 -0.023758790935794735 8.255822888736235 4.004831243902929 9.601297812057801 1.3690311291538537 -0.005385297056305486 8.276585153488618 2.7097664277276143 3.973457636429462 6.940287227021603 4.125783217438504 -0.005702716496558455 5.473380409304286 -0.04108252564257024 1.339805790451791 9.645108194869508 4.150494266695057 2.6553512022516195 8.32215488500671 -0.04599548523829451 1.3486697012372852 6.860366862017022 1.4129162626187257 2.641140994750602 5.468308198317035 2.6924080260512544 4.032924489379517 9.690227255783007 6.875861914078245 0.045713816110424986 8.278557920726504 8.259131417645902 4.0561621924287525 6.912778986656744 9.558498188078026 0.01181276988572823 5.467404690422254 5.500346978269395 1.3429864849111177 9.696078390243098 9.610606976733887 2.6639832776780215 8.263784374969749 5.432151632383783 1.3140276485377316 6.856939165399409 6.798667239557202 2.6846101245804666 5.464618332741944 8.21516286678547 9.344141481712517 4.1069254693276385 1.376823613910644 5.378322495362317 2.767988519801045 2.6974824037241043 9.394813757816246 1.410063821027647 4.093525602240645 5.361730017045203 0.030347681842342707 -0.006492473397392633 6.667495010051162 4.114418951471768 4.131128430811228 7.98856980349963 2.7679527694886614 -0.014456126316503804 6.6894489518829925 1.3512968075260683 1.4158629550333608 8.026819387721513 0.008223655190990735 2.6979460744422896 9.36868244614955 4.112460267690275 6.833728545920161 5.315054192528824 2.797545361399754 8.23035999957683 9.36153888372966 1.3830950853769393 9.61463917863362 5.3091857245839424 -0.013617618989692208 5.502679415316714 6.657047252092801 4.110772419608656 9.613198332710288 8.019359489204168 2.726330739131942 5.454627745444972 6.72058530728337 1.3974645442694829 6.810821262424772 8.016794133454955 -0.050247605726324904 8.185894194371427 9.354135319037889 9.691985521146593 1.3491572054970593 5.3226765924660935 8.266165562443046 2.753724145160053 9.371277052154348 6.879192109843903 4.1152043750014045 5.397318911351518 5.51395701385949 0.04717957891814604 6.734420678175762 9.662019175969673 4.103978776913004 8.074442053844653 8.316583252988892 0.046038818950274445 6.699761291991416 6.854490810672544 1.3766199454643384 8.053639705408688 5.534237191066096 2.7292925983457694 9.367802771796358 9.62144365475727 6.796906807508018 5.333265184988388 8.302867049804444 8.226912802788828 9.402243322735204 6.863353638115238 9.529760353635737 5.379197836344312 5.564673707017998 5.512728503124858 6.65627374533396 9.625482356713798 9.539227686360553 8.039939752366234 8.316846505289169 5.4515434684948 6.683412565804188 6.8974561861006425 6.797869899256772 8.047407234283176 5.518606721154937 8.255606220176336