0.04370859669039167 0.009044252484228741 0.018931307148398923 -0.045599976127974534 2.7480517333999206 2.679170715236421 2.7630656522340207 -0.02537272380937994 2.703192766461323 2.690035201519666 2.793751313421888 0.0007333473513776179 1.368641783682906 1.3896275579634476 1.3358677243660402 5.518636932356275 0.0017556554501637301 -0.03208121025205669 5.447992596904612 2.7851142328999168 2.6740099200696363 6.878963432713187 1.35853034662018 1.3118434840445665 8.186449520032628 0.04331674840413318 2.6584465379961464 8.159639654324206 2.727999608807028 0.02737903081695483 0.030672526608440283 5.572909014551361 -0.029561560098517473 2.69532405883587 5.575367370000905 2.744921325302995 1.4045976948661216 6.952292695109522 1.3097528968189975 4.137985764883347 4.151698265805823 1.305040866449325 5.4886692948437865 5.536714491841877 -0.033319144363113534 6.7962418514777925 6.918716331899282 1.3963261934715536 9.602631913953946 4.121550027826204 1.3314457492920617 8.219137110034929 5.585074918746231 2.7139926743957155 0.030589340938731772 8.326166419597778 2.70048594855094 2.6907116323601903 8.322875112902864 -0.020462580200006818 4.071749175377949 9.682038108432142 1.3169550245384969 5.434604082274686 8.280987844559775 2.65887231727926 8.196146123295097 8.2610714439543 -0.0182636326941596 9.605028974699493 9.71650762304346 1.3718947811878226 0.044930112577163936 -0.015306163226365087 5.380284934503317 2.7587706447611757 2.7615157718615566 5.4110855232611765 1.3703941554882126 1.3861873927016868 6.747488481738895 4.062985127254843 1.3643566271446321 4.007606456742977 5.463675284741237 0.0027418434555237805 5.412898095222194 6.832371795838425 1.3470091313655517 6.722768108707754 9.609024075942072 1.4133551756995135 4.070880104039152 8.199599423136286 2.8108218884847016 5.3794640232890885 1.413656176478064 4.107915239832008 4.016221646299236 0.03214797769748062 5.50413635666814 5.427510314835464 1.3547574386795849 6.926249013201045 6.718076874755509 6.837943046612324 4.12684326333555 4.0668696791205745 4.116564360385121 6.877815251561553 4.057504723988653 4.126855303366692 4.199491716698216 6.710693052020594 5.473929013081095 5.55266862765334 5.417910031822132 6.849709440682934 6.954286962085955 6.709937813703504 9.589094540757172 6.8839414383162705 4.018302382590234 9.62105972889095 4.191660223714475 6.78685719447673 1.3864172478416708 9.641856146318077 4.014610471222777 2.7480342206273503 8.322112212747774 5.4343840780692725 6.844289237572453 9.68084176715594 4.074543557151183 4.059636904049077 9.701214594396523 6.749569218029892 8.19517197532088 8.336064419744805 5.3810894274932615 9.579899240609524 9.683280420736342 6.714551334727468 -0.03769624295738084 2.7208478303086676 8.117850895326823 2.7082900778275403 0.013531900455345509 8.092106025100327 4.063779769310218 1.3534713444439597 9.472967345844097 5.490848540480492 2.7591646821440055 8.112004912933228 8.199925598525406 -0.04518842597257457 8.131757131295856 9.615798235281886 1.3495659961608026 9.405647153535917 1.3824637394339452 4.203239450028242 9.427093732644714 2.69454364590821 5.501989947480004 8.061282450828468 6.8309981377399485 4.110404242633549 9.46010311984299 4.096675323486789 6.937037975652581 9.479507271850785 8.255106155797572 5.506193012896854 8.065110086183344 9.564842634392285 6.882126677258682 9.426478596508185 -0.011060410426374371 8.330883922708878 8.14538973019348 1.3558618378997938 9.70881185404714 9.40993012097762 5.439959707036313 8.32752584856854 8.136666180356944 6.803081683714746 9.697603679602203 9.482119958608603
0.03529075743656232 0.004275916578478283 -0.04020117203123371 0.02608553577956801 2.7179783724342097 2.814229832442321 2.8178523605207615 -0.019825007192471687 2.7452540086959893 2.8069481065226825 2.671185532746133 -0.026756703558518342 1.4056697942070462 1.380538783464098 1.3531275802006097 5.54311801489927 0.03563078614576563 -0.027340086147837755 5.538155373672793 2.6577143953550486 2.7797524770160096 6.976437921430192 1.3574079415988163 1.3627361692479336 8.357687876050793 0.0008367373138238428 2.7844695419525065 8.374184824471815 2.7146736489663317 -0.003806988097158679 -0.03352838641435167 5.42722823012727 -0.01876825130210452 2.779009080916477 5.452778165129596 2.8052690758703744 1.3922719963414767 6.716644875549538 1.345376925799652 4.189612625021767 4.019704946093585 1.3523052885509026 5.558979354099166 5.38669147420656 -0.02729008192589609 6.960833270569596 6.760974173903291 1.406656544186695 9.714354643959942 4.02832678516126 1.3854691997475461 8.330843387302643 5.383406752427459 2.809948359839182 -0.01832821414901788 8.142074115858067 2.741369236253588 2.809044950229436 8.115980801643975 -0.007366177494473112 4.157394349222288 9.43936475942875 1.3705612743793378 5.572309368463881 8.080521141057742 2.793535862992996 8.389713913397031 8.130443133834437 0.002571328212733562 9.798971788329625 9.455672803011327 1.3480127038984437 -0.013233339535628344 -0.010478662509108682 5.523866389451729 2.752625742215123 2.6917094878408556 5.527142221591374 1.3654097283144147 1.3130764208352013 6.935877830205911 4.187772469654314 1.381918899989688 4.143452060940019 5.572242696167958 0.04538272062932213 5.574269533963994 7.016333512105116 1.3379096286563634 6.930842960658851 9.740387953107703 1.3550355190689174 4.139249483887055 8.355957729971612 2.7299993873889856 5.582845813629455 1.4265960054871665 4.02596436347575 4.1625558961315985 -0.005519354897427659 5.391719676524027 5.535281797718545 1.386938212667699 6.729314834184625 7.008039478492392 6.986647672345748 4.073778400496369 4.201248051865126 4.209046488078162 6.7587951010315654 4.173204572995309 4.211072214669265 4.061600705646176 6.911808020173057 5.617060924691805 5.417727427958353 5.5498096909999965 6.9624211824174775 6.793506920698537 6.954073810968016 9.746368458051927 6.736943256043059 4.215439250052171 9.741586943229372 4.10658672611476 6.9852931135335945 1.393489876946989 9.476264541606902 4.160034572140807 2.836522825788846 8.128728544624302 5.553401105340339 6.919227535504269 9.466669287018764 4.176533742971691 4.203604917525976 9.519112603786247 6.990106853299179 8.347025864727899 8.125460490919181 5.560613936554192 9.760301856694738 9.501680020812453 6.957461874805797 0.04018894877698131 2.6989823241210376 8.352172965973095 2.8002442071677036 0.00016445832994147242 8.304245586049406 4.190509367401921 1.365423062773599 9.791687840000122 5.556578040241034 2.7358909959386457 8.31995802378841 8.40350396660361 -0.012787746357881517 8.317822287909035 9.756652659697929 1.369450069447301 9.791241135617444 1.4382047634121569 4.017899238079026 9.77209618584338 2.7456607097011148 5.4545972076033395 8.340837564461385 6.970644098914551 4.100243968362693 9.707891876075214 4.169695387819936 6.783514965949661 9.70318703439297 8.326381899500516 5.3938498563787425 8.3404530875549 9.777528866756109 6.731319447882019 9.785046168121339 0.00520266149179712 8.083995878880222 8.382493303748655 1.3982458340561073 9.447522114834834 9.775267564719412 5.539369920663509 8.08912742325637 8.358770189654598 7.007680559299344 9.512329808881095 9.701500225306138
-0.01828785101298534 0.02057205042895035 -0.014067071583292913 0.007548933643544467 2.7964544375576152 2.7426907654664334 2.696775396409366 -0.04359278895000337 2.7897136916094936 2.726326335373084 2.808305298377747 -0.007382251785058302 1.31161406147176 1.361485931485525 1.3907473703792412 5.439927826760159 0.026788625795779744 0.03065301309384057 5.39654777649796 2.739908713657358 2.777417614772616 6.8130771019750185 1.3840680335368778 1.4131989780808576 8.150661732226567 -0.02556921641001254 2.7843864516849823 8.095288264291584 2.73279731989234 0.03606578712994392 -0.04906806868303903 5.583365242125724 -0.020021561659476304 2.7148066450875765 5.561797486910553 2.793439908419599 1.3119583911004749 6.912365756665235 1.3453550753122916 4.111623647616297 4.1935269458299365 1.3934109903414968 5.397573089245885 5.614297885968997 0.020330800370615108 6.813196630413012 6.914089597991157 1.412300869909146 9.471624233458817 4.151018685551268 1.3589758342876643 8.095492230249995 5.556179650324864 2.7956659885033286 0.028504790983482693 8.309358213781834 2.723080425497301 2.7490301590447785 8.359872686223712 0.017201129159302515 4.089815738933966 9.722864237391484 1.3971141787369428 5.46416797466698 8.395438427778197 2.7667993224323433 8.170267685831002 8.369043478213973 -0.0010878184448570758 9.471370920897566 9.76235138898509 1.3418394040076427 -0.01117207088327005 -0.013716162407532567 5.476223898036696 2.6785215397227824 2.733852240601969 5.467621140274695 1.3210809330790696 1.345440609423883 6.849594684668753 4.072061927822841 1.3871209433659926 4.128818197228554 5.379001221118769 -0.000674403572164417 5.525307318996174 6.772451688742538 1.372474871642695 6.9355992338740915 9.499971115313208 1.3802836973945372 4.116001239583907 8.081413096163786 2.744847760306185 5.50363538761945 1.3414106368585106 4.180819647302715 4.119455501782799 0.002422369903920646 5.589098220784708 5.515973134920949 1.3724726784603467 6.94454193490011 6.924740788066658 6.802826167678119 4.208929665463467 4.086158607367839 4.048909598360878 6.9347976257257145 4.092948699918801 4.043219386757689 4.150911219616191 6.936316404502053 5.440793037196643 5.532774008301649 5.556381423100928 6.810177714910298 6.923274645666684 6.936376717016636 9.473490631637393 6.904768573010022 4.1716170541684 9.481854332523406 4.134869187328072 6.8743195258745935 1.351912690534313 9.741444878247993 4.1522369983458605 2.7268559889102475 8.360391373849133 5.505176098219273 6.787479374194475 9.73961247439582 4.12886864042257 4.106958748761033 9.785431343429552 6.9102877163900285 8.14442761140095 8.332034622674174 5.52621419989728 9.448168148241587 9.73010941527976 6.870499002223502 -0.04545589735505596 2.825094109255531 8.231189905107696 2.7213302659831964 -0.03893337305061051 8.318277886393194 4.054469315614331 1.4299516014498916 9.67392666305818 5.434051194657347 2.77708315446447 8.313934288751986 8.160544211888917 0.04333399343288011 8.25770876947461 9.488270487483948 1.4041192031580587 9.698340072370533 1.3650630118959322 4.206148710245567 9.620247428487415 2.751547932380859 5.5300632349189005 8.232563933849033 6.784681970108961 4.195587440646355 9.693194866580946 4.017678681718207 6.988304695482122 9.640323819705605 8.089969797096467 5.518147675219489 8.291526544697339 9.526759741108988 6.982233966741467 9.658957096938478 -0.019283555799205324 8.331931543103794 8.304785428585209 1.3517482018581755 9.738205547919257 9.687345649257491 5.419526844554391 8.33521693026185 8.305020099096499 6.773029592291368 9.696718214023814 9.632329670045314
0.02519229851631009 0.009758815572285655 0.032363796943677414 -0.0043663019439295495 2.796600054136488 2.787527558480538 2.7148244914066795 0.020278030036004153 2.691156258863313 2.7382323581405155 2.7803266463424707 -0.030938866069760283 1.3286750503493183 1.3507222606141005 1.4011537017045022 5.413281886903779 0.017567611064822335 -0.04646059014588509 5.503259517332151 2.8095889309023243 2.68952761080788 6.805059151275097 1.371488340368388 1.4089559608168833 8.14142861046423 0.01907860427745464 2.754992726256123 8.177717503691335 2.7796087339220494 -0.008370924185916832 0.011502939677133762 5.5899635106992696 0.04533742215581738 2.68257725990911 5.545641406260952 2.7038902168030816 1.3813669895768594 6.953282465269871 1.3650859560059942 4.069374891998566 4.193164127575078 1.380326615735429 5.500514237666806 5.573706443855642 -0.04381335618287391 6.819175553617771 6.891818703873537 1.3290694119520385 9.547449736591256 4.151662471173895 1.402980619957988 8.163950797686985 5.570030819414819 2.7476599971182516 0.02877859242834005 8.29166404015023 2.7584112530774934 2.7332930335362797 8.31484313357862 -0.0390058485784425 4.078305766084479 9.71600446105997 1.3475608314121834 5.497161074646992 8.294684937178802 2.735874903697735 8.218941363935905 8.344508494914734 -0.02307015375913076 9.524366510071815 9.7289650135118 1.3753404470734116 -0.031650242110026254 -0.040156251485825134 5.519005657126952 2.7556332915113706 2.8151993238691997 5.469201708531485 1.4112469620614152 1.3888925419293208 6.853292189839838 4.067357329323876 1.397149079462515 4.15449163438457 5.430089099077168 -0.016954280726890116 5.505143084213652 6.8671634779266775 1.34376755212856 6.8661089419282435 9.509110598788682 1.4081356451073577 4.085628690652117 8.218052416234745 2.8051866788675386 5.485716962391259 1.3771216106658082 4.138644180697359 4.095326500009617 -0.030310284178131704 5.51882917486275 5.457403542350658 1.3520469669922985 6.97201028381231 6.824613821907216 6.815776635936868 4.15602659432444 4.12108637420277 4.088221454780498 6.9480958476164165 4.095569435472066 4.066905229696449 4.159634676170321 6.795922381214283 5.44894437703264 5.525371002001797 5.4279898316505335 6.799418255200829 6.969079806709224 6.878178367885528 9.499786452496744 6.915996774069039 4.122569043101395 9.586578686995962 4.2033227517335465 6.842192326938965 1.3948406478709017 9.716597092860743 4.058184609172208 2.732272268835316 8.336879449876477 5.514241725390223 6.822979726868321 9.690350258346 4.115864895855152 4.085805172916317 9.693523670911535 6.894023642779355 8.135173294655337 8.313087026110153 5.432546778015667 9.501190684833501 9.670001417524977 6.850695068124685 0.007387198972501566 2.7520110475084847 8.264160041852229 2.6877355532485576 -0.022224781925675337 8.218554628110033 4.0548292673590085 1.3949256208129241 9.540122454436847 5.407969988630675 2.8074025117402814 8.222789113054159 8.157089777317006 -0.045899550849197536 8.225519141165806 9.506748786759132 1.359147654634647 9.55880125012812 1.3296707589263523 4.117380246654554 9.53825740729912 2.750798548989624 5.537668111867833 8.178572680095023 6.798516234739358 4.171217141806015 9.59668719890657 4.109174910765913 6.967579707463517 9.619002400757733 8.136313892992485 5.56443567800164 8.198309279974806 9.561648933082568 6.9031702174104 9.556456868445649 0.004452364282644728 8.284052425459054 8.170754080032253 1.3680218800925437 9.753602809111579 9.57958584962618 5.46327647992045 8.326334089892136 8.197284157687072 6.803221339054685 9.724633572262034 9.574928678765326
-0.023919656203027915 -0.037353260789789886 -0.04746454133052326 -0.022920266668274417 2.70372346258374 2.6986748223478294 2.73842209492184 -0.010816668628301848 2.7517846222356566 2.7350954631623 2.715599828735961 -0.02657320772633892 1.336520886547728 1.3413239871134615 1.3571968344763188 5.419898371073535 -0.04687653843615321 -0.03297662386173147 5.466786755721846 2.7273555789098505 2.7408279529182193 6.810902141190999 1.2978214652854794 1.3946168648255426 8.10956899525318 0.0004943101254869124 2.6902618578591504 8.177874254554125 2.706661323198834 0.04806977507894079 0.020834256400152087 5.357292216748794 0.003921096224178318 2.727327578772023 5.411515560579439 2.749733073675629 1.3373835061784798 6.675771322180439 1.397753957190561 4.1030109657845255 4.029225217968108 1.367841194564146 5.409488781372104 5.327350377056174 -0.010256665871758941 6.744451352556915 6.722291397323485 1.3382159718146482 9.470862465279287 3.9828785282939148 1.3307162425904853 8.103065424778638 5.3527809637734896 2.668688828591713 0.03502494163662495 8.028140286738331 2.7085685633562133 2.7334014548237575 8.068049098569038 -0.017887780358034018 4.115753182352633 9.396582407337382 1.3623488598365139 5.412534334824995 8.096134313738041 2.6879949236235294 8.111425619776798 8.037076638418702 0.04512114518006678 9.545547448291307 9.376904772015168 1.391002693189085 0.03735003000465598 -0.04573714821226399 5.477253422627309 2.700172829721582 2.7087537950372242 5.388495139572013 1.3692778170203541 1.340424751917859 6.779516140543524 4.073886514730782 1.2981143898042862 4.085068262079216 5.394984709977643 -0.03178661800407779 5.4082072366023235 6.763388061155088 1.3303371638014407 6.792258357111631 9.515559300678435 1.3605439278750406 4.053372106058887 8.164191879512051 2.6852832179678083 5.403156442509658 1.3480310970514406 4.05911321124183 4.050204859699286 0.032662160775365066 5.345265080623657 5.46858091839954 1.3708189015292251 6.714921976433056 6.841492291767154 6.830163005230941 3.9866187005505944 4.088358278273905 4.1069665237168 6.71382889412942 4.034137088300016 4.054814113156985 4.04489452586753 6.754662787436798 5.460600879118803 5.352407269626335 5.462995967831402 6.801122554590679 6.756240487510521 6.751161693280028 9.494390119552735 6.746396285207523 4.065091240667925 9.455776852560724 4.00138015782739 6.837179193613396 1.3201892676958564 9.426505939247576 4.033606162609678 2.670815762138198 8.055017188267257 5.445426958273246 6.770532404014522 9.419498366292144 4.032537849658735 4.055849041328211 9.438359689903862 6.750470305261372 8.119117042252238 8.019944861782001 5.417274973544807 9.53958664971926 9.37300413743017 6.752473392044391 -0.04063466155745573 2.67703394659258 8.123048907760197 2.6758374791646586 -0.022113647313177037 8.170081600811155 4.027591517618732 1.3527491202753146 9.47347293966748 5.389533298528374 2.638852527880134 8.170585603292043 8.190345085170984 -0.025081661922854444 8.198166815980159 9.490512100463675 1.360398542544015 9.54941362116821 1.3271580712296818 4.011086513298007 9.556541810101974 2.701347758581944 5.3296765423525825 8.19210586306896 6.746470593265603 3.986806086088361 9.490681178219017 4.0797385435366555 6.694271874785536 9.553123639430305 8.180725960898982 5.348704789862884 8.186092295006391 9.452108834505367 6.701084523704556 9.549958546927462 0.04820116034105278 8.079709002117287 8.149557499783857 1.38474897009823 9.358325603638479 9.504023243893652 5.398706574451898 8.076912219119707 8.102596960934223 6.823412818157842 9.3856181995213 9.543650977417707
-0.018677672475710172 0.02118914828158902 -0.0360849105060538 -0.045238134856218234 2.794235104911079 2.828684888993019 2.7643651989025377 -0.017716409737699328 2.8277682601986753 2.806339612707163 2.8137836836046923 0.044097247710764814 1.4264376989140288 1.352166816651229 1.418724735721722 5.5788140371311545 -0.0037438081042121167 -0.049378205289576385 5.533254755607084 2.737314851774459 2.7676811743272047 6.956189234259596 1.4375276009662556 1.4144845110733049 8.329718291803221 0.021030207896821654 2.7943526772504956 8.288163001615963 2.8082447200588265 -0.050439622242646115 0.0244528693331819 5.534090825576271 0.012423477198391588 2.7638219711491208 5.605738102857637 2.771021099672864 1.3498251675578414 6.92788695944328 1.3773294745520024 4.184502979962808 4.203701018903716 1.3632708709294972 5.566718238397248 5.591003458283484 -0.01696525312475767 6.932478812477177 6.91692769332374 1.3969422825791864 9.667756832334515 4.2120813139854905 1.439850743302513 8.347599085089552 5.554550589900366 2.8243967645026173 0.046075293458177846 8.313570601890522 2.801214329614802 2.758877401096974 8.387501830728338 -0.02736387336652392 4.179680336781169 9.731166425427286 1.4128210801971093 5.539654827675902 8.368681547359447 2.802299696488864 8.363266687949633 8.316652521269127 -0.03127968544877195 9.722831852921951 9.746228748465924 1.3672988121873004 0.014408054742438895 -0.03932903616774386 5.5735907770892785 2.7599094249651897 2.740096308507888 5.623157315848476 1.4058048419791254 1.421365758827514 6.992008518369189 4.145749830531653 1.3569426486236567 4.151245248766623 5.594244318046856 0.015259365570439443 5.653692376480941 6.974944199662145 1.3434773498620982 7.030884683303624 9.71772507658672 1.3543865388741105 4.176948957155269 8.287703598586019 2.7377230890641013 5.574505228618077 1.385481156751578 4.1699457825305535 4.251781573928616 0.042418575975756066 5.6040354812016355 5.598491074491908 1.4261644520881616 7.004638835794333 6.960821366706069 6.9101825246660775 4.141929818133374 4.252384676484514 4.184116515328614 7.006670224547592 4.174581180875344 4.182706735888383 4.224465600404077 6.974951820091552 5.509459420468419 5.60110488177839 5.569248220960258 6.918926423093827 7.015755953665869 7.01032041023338 9.679686070254245 6.919340103547332 4.232838275056445 9.742273745603871 4.149465334183783 6.9699822114856405 1.429820080937811 9.717776242327021 4.1676139311321165 2.7543682841537795 8.384341529790122 5.650115129190903 6.9626709537863425 9.764107364486708 4.243887897696093 4.182842814984929 9.773731966827313 7.003000443471902 8.328496845832614 8.379747499490682 5.6373422008725775 9.753462713238385 9.728730065282702 7.001161742719354 0.03032604314016776 2.7365767587547856 8.357851828539818 2.7411000279240216 0.0012758776092284387 8.402631648998865 4.149850710185206 1.3571995659579383 9.835480306309435 5.50892490177718 2.748108645712599 8.43513822358211 8.371427079211388 0.04656408957297612 8.360594094493441 9.672520689346445 1.34927540800779 9.756998592483074 1.4043014401204696 4.142659202090868 9.827110897555382 2.796152187223239 5.52190575895503 8.421662038492826 6.939658345611018 4.199849436155038 9.809004757285173 4.207270645764347 6.997159928648088 9.797731964927186 8.333332552607521 5.575338032688947 8.385596723376675 9.738300235984687 6.930815381600982 9.81671772047748 0.00937530543572979 8.327422365286274 8.377601804296322 1.4118336902725614 9.751509706044736 9.85201881538742 5.585878175191122 8.38587759063195 8.428983093887076 6.906671683975155 9.755989429903076 9.834270835299321
-0.0291074709710595 0.001921196408938811 0.000944991847085869 0.03782227619412815 2.7768725345684455 2.687807591130857 2.699073228560752 -0.0027800842152879263 2.7052619564887066 2.6657628041012296 2.749419337480041 -0.037505843844420586 1.3582535721044628 1.389711683387636 1.3411629963187268 5.4481664469865025 -0.03222120834420235 0.036985990698472436 5.4206411377639805 2.7574625311853627 2.70752972166161 6.776318046449397 1.3850480732812316 1.3406334564681957 8.173758643793665 -0.010253914951238124 2.644866429714929 8.103637665618672 2.7043600166619886 0.011674631623394556 -0.03528220699239393 5.459104889061598 -0.0272217924789246 2.7332016414072733 5.462500617168153 2.6703510731719895 1.3732582775033515 6.806000261892374 1.3730979087274793 4.10224727871758 4.0642097424216095 1.3119317507891082 5.380869681347674 5.498240251876962 0.0040781026293944846 6.780791151365671 6.887186685602549 1.344135738325163 9.525486605910793 4.139645492511079 1.3362217006809463 8.174314014856417 5.5141748809158075 2.705132800427601 -0.03667278725029249 8.189441418513356 2.6923474266787024 2.6675096398276765 8.224219916867439 0.02069080098904185 4.10525553864082 9.600722164105548 1.3416817731641657 5.397830024771796 8.207522190767564 2.7087889932573854 8.184721840780472 8.22984035812653 -0.00419649568540752 9.54852374200991 9.614356738956213 1.3728320625017045 -0.007738600661215715 -0.033239388625914454 5.321636559123843 2.6694222258325415 2.7392246190568095 5.361322987799922 1.3386336901220846 1.330576504510143 6.685747358599424 4.0682630901392915 1.3892585608732588 4.059959431710741 5.417718981881477 -0.019388477372898456 5.363889964514387 6.752402649134763 1.4001851636427527 6.696556644613414 9.470875118073506 1.3425245164628767 4.028850041792552 8.128026635157356 2.6981045581024636 5.341953883836189 1.3169042591416555 4.110743594937278 4.055255998485496 0.01168431832797744 5.451112281480208 5.301956404312949 1.3715986221181506 6.883936258064736 6.6506987088175284 6.755922151799878 4.130591652627609 4.021633446878304 4.078396459433499 6.900873999178165 4.015504991778865 4.060201599325313 4.155727574719687 6.648317932091158 5.451090755470025 5.462030273845629 5.324362828313671 6.781542409121099 6.842683812147758 6.652322846285926 9.474886490071329 6.843279006329351 4.035289547739152 9.485846458156608 4.066379564248176 6.648834556335578 1.3503276951546448 9.594581869700509 4.052430709648822 2.741992863966496 8.239730483505657 5.367906718014756 6.775331078882451 9.569900146423318 3.968126243363466 4.118844908870098 9.616831153826885 6.665638836185865 8.129836972613848 8.222279347049335 5.320056549976323 9.474828369843832 9.629711242020596 6.642898759027288 0.01323741996276663 2.7724597024806865 8.018411886097432 2.7401577715982937 0.02337617075951935 8.00495167192926 4.0441496535309644 1.3949016044430438 9.335938246933413 5.417537087095421 2.747883456653399 8.02948378943567 8.139434344254468 -0.03740682419757332 8.053533724313954 9.549759334994482 1.3648803543396657 9.359668520560462 1.3248355175940199 4.114244800493736 9.376125155346273 2.6960186877156156 5.441505223135006 8.047069463455644 6.741820462528216 4.077597844455665 9.333323912996542 4.052190694635268 6.861279056045369 9.373841245665732 8.1333726197866 5.491372378327696 8.047520433369002 9.495025148899147 6.807713732303035 9.344050323871324 0.04216837765031579 8.225338193096508 8.034260411095541 1.3132362270062699 9.544626457866062 9.397432676527092 5.422240520320666 8.20192112291764 8.010135135181612 6.776483796727815 9.609357323090935 9.401007070518176
-0.02159892116167907 -0.0006480347887144875 -0.030172231147090077 -0.027902430539986485 2.639125594348491 2.8257775211953606 2.904911634669055 -0.03585232882019202 2.8086465704594987 2.8267971406988477 2.7002434453110675 -0.026684707137358914 1.4101528002505082 1.3615311641687557 1.3687714699514741 5.677208937713908 -0.03671749443621326 -0.017357035411717226 5.717990360160177 2.71726247294007 2.842739468039865 7.108840901401756 1.2908651529600246 1.3941903267502562 8.578804290726726 0.007404832749801468 2.863917558319754 8.572065400462737 2.629020057030178 -0.03068483897650499 -0.04918349007818556 5.344303729440978 -0.0398255991136919 2.843862056801662 5.37267064087443 2.8147732413289686 1.4605249137235379 6.716587346485693 1.442682132028052 4.2791326406935015 4.026846765522288 1.4075561841713762 5.727877647420114 5.330780060439187 0.02947271172922038 7.1779925929746815 6.654907641526683 1.391963056923759 10.033942345317133 3.9870256433328706 1.3834423507985718 8.571258434862282 5.390873814974003 2.8274082408622982 0.04729087034119732 7.986530713080536 2.852814786119326 2.872120402821461 7.993884061201182 -0.008117782940494263 4.294781729494548 9.328297375809035 1.3692639316216544 5.737986542431632 7.989241490728665 2.804934081004981 8.613988438598968 7.986738890059294 -0.014682073157783502 10.018255202659756 9.343745003017734 1.4599003827872639 -0.004293370379117054 0.04661373554469944 5.610529627571499 2.898659609919903 2.708832424531439 5.650810753730108 1.4606178099022313 1.3549209854776543 7.083010167569731 4.243672042747316 1.3809140078146236 4.236008667620671 5.711676777702252 -0.013666930578570997 5.628807790152667 7.162373723412488 1.3680204659044495 7.075717257926789 10.01888532975137 1.3674642080633592 4.270826826933484 8.610243491443462 2.6761598311771153 5.643092536281101 1.464692930222973 4.022438114343106 4.255322118940286 -0.007458555841093861 5.367280424048094 5.595292415803694 1.437671334533968 6.654866229977145 7.088461942104842 7.183152248200889 4.012015834632382 4.227677111546075 4.301193804286509 6.7380709868473065 4.273057454453187 4.246063839540897 3.9958205610698627 7.07872015488382 5.689793571849151 5.324113920194656 5.670729709057831 7.132659257772451 6.729326434508401 6.999689010668437 9.966768335042408 6.670280280253788 4.243075492587757 9.978380357379045 4.016148035737622 7.011637921556719 1.3767146528452683 9.360743884487503 4.180612325880733 2.8065491314369586 7.985346566609966 5.597001481645433 7.186047698975335 9.377542423595992 4.262960870983423 4.33008563509113 9.351912032125247 7.040084298396041 8.5758439245503 8.05380881184464 5.68238761986828 9.951066642381138 9.4030530573424 7.067737140407733 0.027658438167033533 2.693164308802226 8.440290492139978 2.834913804408273 -0.004923497470734077 8.433954525060681 4.300478615633679 1.3082837460805143 9.836592807916665 5.72683116637098 2.71200208691769 8.49721458428854 8.554776638146203 -0.013956811425336202 8.445677351273106 9.978680311305427 1.3341849914698594 9.8822574355152 1.4366707419586473 3.9839567117427928 9.912202462755365 2.8430203950380815 5.313049201850561 8.484023326914123 7.1528983131857915 3.99836569251984 9.866534477463626 4.233892201669963 6.658029176976984 9.822674050347661 8.59199890579435 5.343061382954842 8.504580243950942 9.99275911891724 6.647463635689482 9.85190165047286 -0.04949239785311682 7.986902297795308 8.425391288154886 1.386926517115097 9.413252610070472 9.873689721685132 5.758635236416077 8.0375038536374 8.489627316874559 7.138896732517711 9.362967796620794 9.817086848853252