-6855.220153115709
-6853.791616008096
-6854.833617176639
-6852.815093048322
-6854.950418912572
-6853.540299966186
-6854.508159637679
-6853.200695228754
-6853.279965527434
-6854.230011538593
-6853.57814052476
-6853.736715680578
-6854.861007747467
-6854.095451381436
-6852.870146439873
-6853.144500863876
-6853.036674258683
-6853.509586205102
-6852.718867744525
-6854.725364305117
-6854.083398779237
-6853.553131902418
-6853.313961661696
-6853.736649012687
-6853.563806384081
-6854.872913408192
-6854.741464872779
-6853.56555621212
-6854.796293906471
-6854.564730880223
-6854.193313449971
-6855.07742559774
-6853.928439199993
-6854.242421426263
-6854.210145187518
-6853.734748705694
-6854.809199041327
-6853.874337254478
-6853.9457646881
-6852.418150523662
-6854.687158705828
-6854.859798201454
-6853.368774096444
-6853.619998980218
-6854.418109821394
-6854.088387986469
-6854.720974700728
-6854.554224020685
-6852.879274226477
-6854.67716859047
-6854.656295826361
-6853.976539402684
-6854.429104036817
-6854.340173288693
-6853.2722693317355
-6853.029435894518
-6854.023834828695
-6854.675290460755
-6853.0961530375935
-6853.097575376628
-6853.236498607075
-6854.153243054547
-6853.738515577564
-6854.88926105522
-6853.769602678833
-6855.197186843783
-6853.5887388145475
-6854.547250423285
-6853.8799855214265
-6852.631698253223
-6853.437476309973
-6854.978607049061
-6854.044709225486
-6853.884689553356
-6853.852012899098
-6854.183732593826
-6852.245299051356
-6854.431096998571
-6853.645889251397
-6854.573912817481
-6852.888525960934
-6854.041403858688
-6855.144726152886
-6853.913203682224
-6853.41436064755
-6853.7245006264175
-6854.30259368729
-6853.747549757007
-6852.423826274108
-6853.49261555344
-6854.220091356491
-6852.961531518764
-6851.483503706746
-6853.110823647034
-6855.222480913541
-6853.998015987399
-6854.6046204560025
-6854.2289263486055
-6854.093708764412
-6854.160730947101
