0.12265421919882746 0.48973447419035665 -0.1728372678111217 -0.5674499238949646 -0.3485554567144642 0.131013132686484 0.27014400938409605 0.5891312655231402 0.39733931098638664 -0.12847236854250133 -0.042381807400320555 0.4707502197783699 0.31146163718596037 -0.3923925085040726 -0.20456570926265413 -0.09005468799625135 -0.7447521694559753 0.09695501466051044 -0.49480571806567686 0.7938712955801295 -0.6620498080597372 0.09412165897677338 -0.7711681975556589 0.6975418303187599 -0.701834801267159 0.05081759687249958 -0.3504182209548159 0.5867388540315637 0.5094949446467355 0.10644778464229411 0.49508751097215375 0.2746915195454624 0.27927219693760935 -0.20090497258161527 0.3788199120259605 0.6391227669499187 -0.8519332327198682 0.12826102386264362 0.020656757018403134 0.5035101878182102 -0.046003463313307874 0.11782285924845516 0.3741333051835686 -0.712655803142063 0.16032756537988518 -0.4003382457137105 0.06140797079383617 -0.876172307772891 -0.30918903910169976 -0.8615386170201162 0.02004689134854612 -0.5842654527904068 0.15007554863457379 -0.2878547964002978 -0.6168721830818344 0.04087179851369735 -0.02432469278829359 -0.34404728443146554 -0.5774805686580893 -0.669789085685524 0.8714041969602865 -0.3157638641057401 -0.5214626585315729 0.36823725141410774 -0.08391077988204258 0.6232567464519396 0.6284645159051241 0.6776175805910073 0.3528150033217666 0.47291174620606297 0.41976832941386416 0.20170227167193003 -0.8386575986568848 0.13384417437737595 -0.34876500162210905 0.5902111288508802 0.37121690286772197 0.2656263240194006 -0.3269124245233918 -0.1418611311445815 0.47743688776992615 -0.012299643302959462 0.8592277094987525 0.6830171543400236 -0.48934032407573147 -0.4075139375265433 -0.5967507297416109 0.2890727279677989 0.504179445971093 0.17538574526458828 -0.7310880417053215 -0.3561373828267802 -0.42938579789897013 0.599518008074103 -0.06288198423620138 -0.39838703552461063 0.4411064287700081 -0.6786113119628442 -0.2888487848824509 0.24838039245475932 -0.49860220899363167 0.7174802211138998 0.3376123274393992 0.18410024231945069 -0.6237352287502549 0.3456791636079337 0.48456707105680424 -0.3080322997894372 -0.7315053317483982 -0.13383183308220176 -0.5001104181080419 0.23817645533856402 0.48836073377128153 -0.07457433297246512 -0.590040664711287 0.07043948486848514 -0.03441164471065042 -0.12292855590613667 -0.46749803138965934 0.5145335355119074 -0.6043617093196495 0.4076854301074011 0.2093605595481362 0.7029228921250152 -0.19347294178360228 0.00013524002628363804 0.22184712205092114 -0.20401883562024864 0.3957161735606669 -0.4025010576929842 -0.3345426873751399 -0.8417061556752213 -0.12429766833952141 0.34170295256900507 -0.381016405456647 0.35076274877842817 -0.05194502560872344 0.34526341622675377 -0.2936454349401459 0.7497663348411152 0.7190917885753938 -0.7543935492004814 0.03608131910358947 0.40860151416376733 0.8187827141098285 0.3890639583514719 0.45237557392592415 0.4999656650000615 0.07150417868757362 -0.3567703884250888 0.25936440227008883 -0.4118459892429939 -0.47962052568480623 0.1486493577110085 0.08493665004339566 -0.12896627745978434 -0.3052621932434678 -0.016923772338532143 -0.4897385879554146 -0.6396670694891629 -0.7423273620645667 -0.6099500020407044 -0.0029793943432980946 0.49822091439481286 0.17786146049859045 -0.09396482168393495 0.6833660530390101 0.35052826417011895 0.5109597021177199 -0.5363737713154505 -0.7274103357434182 0.8785672903676288 -0.18796101082643757 0.39777125631748267 -0.4575576323474958 -0.150063978670348 -0.09484388185477859 -0.08975129782321963 -0.49436451676320026 -0.15334342075256815 -0.15195399660420927 -0.09145002568188121 0.16753488176160178 0.18708709286191652 0.3690587188741386 0.2936081539443073 -0.2925534874275478 0.6147129706469865 -0.1891509173694807 0.578295608360217 -0.8477683027089012 0.7585949888763387
0.34589205094968817 -0.19442527839454257 0.5478228936926566 0.5106249444861206 0.6369399003659869 -0.47292151639807584 0.9211717553017168 0.706697528676099 0.2325010022203415 -0.28750332659815003 -0.5620212966802257 1.547293224895961 0.0160933060174368 0.12385800969894152 0.08165849351275614 -0.2512276320955673 0.9238791269305509 1.004609966422715 -0.8167517997227288 -0.1878406831984894 0.4206484180259723 0.001664532186616488 -1.8430045412262 -0.40139394067173456 -0.1672623448265055 -0.3051930305684292 0.527281322095879 0.8855367797069265 0.011941745742908466 0.275236593415655 0.8989376264938648 -0.28213280631485604 -1.9253672598948328 0.2563981205529133 -1.4981036505451877 -0.08461886169266072 -0.0035128982492649177 -0.10205376933965649 -1.7925474130169128 -0.6362102212888139 -0.028727964062311817 0.4276549312507925 0.2284188617311679 0.4770494225235204 -0.5833357418872857 0.3502744962881 -1.0905179792404445 -0.19735942132220205 0.12028186231190897 0.6926531347678909 0.22078937021036818 0.3833571377746817 -0.36565432117827995 0.605982275642208 0.15454258326699188 0.38453778834634417 0.5022752869698447 0.5448352718192423 -0.5032649045766237 1.663173872816381 -0.6566959999469917 1.2869816282212547 0.21577983281091873 -0.46221235751068784 0.5147294535727974 1.555956556997914 0.27261483952209176 -0.2511543556554707 0.44979212946946406 -0.7139045879474996 0.3114737213708184 -0.3368739066114779 0.3016852745254869 1.3560887674315611 0.392381195650163 0.6197554181669003 -0.12574159987489958 -0.2661819394125545 -0.4208793030898558 0.3115369705085861 -2.4584867859390434 0.5392868311971873 -0.3380841248694952 0.2674155547093395 0.1636175489850666 -0.03125510135953972 -1.5967072565527147 0.18295507297141395 -0.4812788872238356 -0.8324769237674695 -0.7856519929941308 0.4832126139114387 0.20865633439226 0.4814678633061902 -0.39738713350518656 0.618046920116226 0.3687414447440359 -0.26153595600011087 0.2410787165870235 -0.3140126857425882 -0.7264117192755748 -0.15365838088982567 -0.5831781332634989 -0.3952286924012871 0.6501777392124996 0.42442356879768844 -1.281636047638625 0.6481668794300579 0.8548120969295602 -0.13042794960697537 0.28408993004122685 0.28423519736983954 -0.10436210575785897 0.9423075088390674 -0.38457095557712484 0.19650427241075835 0.7458646857938638 -0.06707776748510383 -1.251518145207322 -0.1758912241460971 -0.44356980270883606 0.82489988275116 0.054043817119281114 -0.7181849604904083 -0.5583147943629159 -0.2145063654151338 -0.5898699434613777 -0.1942015924195107 -1.1412083065064604 -0.2429574216669751 -1.3178747182556851 -0.3703275582842332 0.14681924648080522 0.3965828924363363 -1.153178077273827 -0.7388286048826888 -0.24577509362142838 -0.6361644556525431 0.14612144908283223 0.8716772481160149 -0.35188734930117466 0.5658761516499415 -1.484494030181553 0.6404322297899615 -0.18157464768411954 1.7686088999234446 0.3178235748482462 -0.6251207962438718 0.8694748411480574 0.7807982644462553 0.12174764822415807 0.6843515568807311 -0.20586874434479385 0.4259330634636794 -0.6074210649712636 1.5133857735152387 0.06836383328637903 0.6823175571698378 0.0742028085656593 -0.1764614948272703 -0.5142931373663272 0.8150880388670608 0.521909002040372 -0.33295271718020075 -0.4294570174565378 -0.6379698842923981 -0.10028639302658858 0.29798982795177065 -0.523482260064763 1.0468552482451714 -0.40724345747397606 -0.0333916880865683 -0.054816176508931405 -0.010164856348143785 -1.0635802743093359 0.578713412623926 -1.824994992022657 -0.19957725490912726 0.22710939889112497 -0.7413336306927297 -0.32799665872650613 1.4160692617502515 -1.0385320730914567 0.296652854307902 -0.038819029749726695 -0.22477072345561935 0.005541498643519488 0.46560235702884334 0.33333838265439364 0.6426279518896997 -0.062135335878163965 -0.07628668767788152
0.10775930436486603 -0.6429017743763766 -0.07691840772460948 -0.4033490075155763 0.13601444255581735 0.19030919934363996 -0.39133861331826153 -0.38001573210627454 -0.21832162539616595 -0.4185267436972792 1.1812213565642882 1.71082361348386 -0.5477822702627082 0.28377651256586617 -0.4728276711326889 -0.31607291070572663 0.4334134310011245 1.5613422467898592 -0.7605204880338258 -0.20649249397172179 -0.6451494327599728 0.8224619627336287 0.12022658359394132 0.09419210720339262 -0.0074862810747161395 -0.20360077424622355 0.24455150562697242 -0.6367560664899549 0.13471012192209703 -0.2945358079648992 0.15216251307058956 -1.0700797659907506 -0.8214738877887465 -1.2242819351991883 0.15624491067007928 0.3211513536698985 -0.6560100296235606 0.10351389882495074 -0.195799790144566 0.34035260918869775 -0.08591546901689719 0.1316692782132442 0.34196957596683036 -0.3154136798551729 0.693872866107605 0.09672567225852374 0.950686476931382 -0.75204330380075 -0.4857119832945247 -0.029939724982225857 0.5805185841534648 -0.744879181952143 0.1942663842191751 -0.43351653223789205 -0.3720779653164366 -0.19045909465794295 0.2868116998477641 -0.10121970347413535 -0.1300029462544148 0.9977944861627783 0.05687331614827624 -0.1614663069700187 -0.07622163876790097 0.15908443700140346 -0.32047258243531906 0.4063173461152809 -0.6007832479397717 -0.2424537425576792 -0.44381302906789366 0.2462769729585113 0.11126654618717612 0.36692084659552937 -0.3734748456639632 -0.27558060701863507 0.6325109180603559 -1.1213766164925139 -0.21397620394327663 0.5397393453535737 -0.40585711864941065 -0.21425773973943746 -0.38548832518507165 0.02482785767695724 -0.18193820167112537 0.2170648701709294 0.5023133392966316 -1.0731316654431968 -1.0562608578297874 -0.16459662506888426 -0.03929468383456458 -0.2970300351416626 0.13974896989758515 -0.3109852117701741 -0.2832841463104798 0.37072222261949056 0.420189990332315 -0.3934546312199998 0.8293345214837458 -0.03029659410101234 0.27650106195037544 0.332983056197504 0.5622930622843735 -0.22339029816832495 0.6139352119406974 -0.47820384784293773 -0.5686948520456593 0.19089258265093575 0.6592298221124389 0.495293970556005 -0.7253470254564863 -0.8718238009962083 0.42719650355713523 -0.36459811199962366 0.6449470869411796 0.3510201162048729 -0.013713492931350577 -0.552100695132404 0.4482330125124603 -0.5033083562200493 0.5908307647127502 0.38469205453602134 -0.0455694610996828 -0.3215529599836914 0.07199165984695342 0.5204360170392714 0.7756887111338319 -0.11027924257324233 0.4274487287772573 -0.22922798789602458 -1.0780201038837498 -0.15839101047880463 1.119483256124543 0.3988403210119454 0.03416893257222502 -0.82989476486259 -1.147269939319508 0.27427860037775986 0.7405070210263763 0.3044813492133853 0.15382421704372862 -0.47970280098596735 0.22737525095800198 -0.2664783876070507 -0.04185241725941179 -0.004956315564010819 0.7216857745548152 -0.675291760671308 0.05393197413176518 0.3284656279431246 0.22869268421784483 -0.12156407145844224 -0.02294889548668951 -0.21477016059948173 -0.3061667073356082 -0.1997682878740108 0.6609946273223455 0.7119551775306127 0.36293486536458786 -0.45069510089970766 -1.1208459408000246 0.34075935770881316 -0.22184943604376633 0.5157779494419698 -0.055701150217046004 0.05808687684040319 0.12492887416561708 0.8036934238768739 0.6509459848370919 -0.32640386031808943 0.7987296521136954 0.3334383985673677 -0.39188934361540895 0.588501088138309 -0.2958092753606841 -0.20083375302404766 0.8147085440404549 0.5997856599131929 -0.8819632034230552 0.475135236219943 0.10826838279080063 -0.20036144137331943 0.19749414712785343 0.3039295904749733 -0.7959284352194744 0.43343168583356967 0.05038385176919065 0.23831709468148637 -0.6443025113786451 0.0680846114830634 0.24445174682431448 0.12810855744517938 -0.3996710444433568 0.07412876079461427
-0.6207555772966405 0.33799130804537275 -0.48668231762759406 2.3325652088428535 0.1002542542370725 -0.2906290167113253 -0.062372134479318386 -0.25506937443916067 -0.24344618837793552 1.5862719201520035 0.2706412607354888 -0.9789133329875591 -0.20000302959263622 -0.10767085841611779 -0.12658980680780776 0.1895700071847703 0.1605013719535881 -1.125221701270217 -0.48541939175477045 -0.47641615981489566 -0.3693222569481704 0.14726636132055285 -0.9168898400969112 -0.3281262423258349 -0.8068823631278168 -0.06020469451435438 -0.22572743094193382 1.4731557223505984 0.9757845575505906 -0.21576826284669293 -0.2995759414919679 0.02561538657525911 1.27155295237101 2.5693794937265686 -0.8755372452920533 0.8578814798835032 0.24775818548972814 0.08303094838025055 1.223947434677905 0.24188835697251246 0.6682667355037265 0.37964523614073326 0.01798898037825289 -0.40912936164277924 -0.5699973729071667 0.09647550392093063 -1.0508669405077256 0.23836903096534431 -1.0495564492264184 1.0974802694908905 -0.906370428622826 0.44548141790925216 -0.00750093636273547 1.0176536869805506 -0.08489885482692475 1.0188273955736777 0.15356582117601938 1.5102225452959088 0.153017147761401 -1.4986764923295222 -0.13067220440729754 0.9231311930209327 -0.19294920806964833 0.38382636410161636 0.6180047540243807 -0.5496285794428276 0.5462990008489624 -0.4741183649196544 -0.9620800634803044 0.10821876049978782 -0.6151662561343211 -0.18543695885300324 -0.426412317092943 1.261709741028343 -0.6861207329660118 2.637122919820129 1.1127335961055353 -0.7182556658273437 0.21747624667673518 0.37321053625898304 0.6854843849335936 2.062513502062248 -0.7252488093157252 0.44653736997759225 -0.21631873603352422 0.10865661936815481 1.029171457812163 0.7749623744907685 -0.11107577033260871 0.11633496184901901 -0.5926552195159988 0.3902826612499214 0.3161623850957394 0.3046803525980688 -0.6282904522211051 0.25652847548319047 -1.4991012385717666 -0.22790849775365268 -0.48846332078741683 0.6535888217765776 0.09350485132838089 0.4333416972229247 -2.5960037811823162 0.5629749188427466 -0.1110261480415959 0.48240168797436916 -0.7841059886632495 -1.0224156271455682 -0.5307929347935633 0.7427690775876756 -0.8433624603317217 -0.09399104693618007 -0.019951760531578544 -0.9617977563531952 0.049977874580023604 -0.4657635651970559 0.06490595664476564 -0.5521354050250814 -0.3107376145357422 -0.5351699808153364 -1.4251959066418682 -0.5812978855216505 -0.1341460218885109 0.13611600113068817 0.1953914989625538 0.6698276522329432 -1.4327814322986099 -0.9898220094802631 1.7954306481019788 -0.33336640767885173 -0.7949326469651083 0.555529775418611 0.0016480771263842583 0.010011104379098888 1.0111071441112844 0.6687647581860676 -0.0947369239632691 0.20708641880197884 0.4689453053591472 -0.6524423668769603 0.050552259026254875 -0.5956839790399935 -0.614398010509729 -0.008619623348210962 -1.2632426327331019 0.7926852456918284 -0.3243166387717576 0.30769239995151526 -0.7487674612629556 0.26749731578986835 -1.1139214457660491 0.9749872584602757 -1.261873263189401 -0.007700196857735126 0.16231502812355916 -0.7218197290295182 0.6179013956772972 0.20444281053154467 0.2320430887473165 0.1413775066399436 -0.22895827917440567 -0.8550702356869532 -0.7450360192449814 0.5636202657362294 -1.0747686868259878 -0.10123127343836114 -0.7897001949215755 1.206515869465019 -1.1818229947040293 0.7799053203183407 0.6710018750467024 0.6962454801048396 -0.7822056863167431 0.8325941660716241 -1.9908023495701908 -0.6412179589160505 2.241731219478417 0.986075140843321 -0.3145045377773422 0.27266986112974334 -0.4482756928249376 0.988180617222098 0.984905546015252 -1.15306032074904 0.1789068710439693 -0.4107571270541894 -0.839435871583806 0.09958602452545431 -0.33452777497680447 -0.22475426839538715 -0.27378314879858007 0.25850076871821287
-0.40545731210783076 -0.0810897654934797 -0.619856719631455 0.1504352459668377 -0.2505285491460137 0.6463619650108352 -0.49534564972954687 0.7682767349404769 -0.1179652983635904 -0.0359008276616672 -0.13159343066998627 -0.34099461364807077 -0.33244852385027257 0.2496731431242539 -0.0829630712567926 0.6392891173244538 0.15645676957056925 -0.10166938941704426 -0.305784384295525 -0.3913519830547002 -0.02173867722867224 -0.12514124728673934 -0.16123902145056104 -0.18007106655539956 -0.05303620179037318 0.06655120555767248 0.1954490916733666 -0.6066906145631423 -0.06943701174589977 0.2895566095827529 -0.8569813366667371 0.0805439202923387 -0.6393971036572278 -0.0992019017131582 -0.26424024230515136 -0.3493075043891404 0.1009458809874584 -0.37399755093665266 -0.27755727112903167 0.04837582020022636 -0.8390566338675163 0.01674430933787439 -0.25094738185098714 0.5184860924017523 -0.45910055135458355 0.541401563547345 -0.6653148519642542 0.8436136571105795 0.3455961169758242 0.3610283923704944 0.21185427250426742 -0.48428913480506913 -0.06444058697257289 -0.26074251356453804 -0.4957107463784496 0.2749805115407909 -0.7434625041102744 -0.48979232401148554 0.01883307354610305 -0.08286536933666373 0.04350152282706057 0.12978285982380874 0.527163308460776 -0.03155129244371986 0.5137326368771669 -0.5554351588222757 -0.42959431436535045 -0.3680873560998048 0.7740344633598605 0.019859715038404505 0.368309756523256 0.46027580260960727 0.2625921651787671 0.9602085574892044 -0.5148214990659714 0.2688036933061177 0.3266236896383794 -0.4460362619714576 -0.1268433175795106 -0.44675925618041123 -0.06127915852545575 -0.2868986031346155 -0.5429298272664134 -0.1068283079101644 -0.31008738254625307 0.6363657730300717 -0.17489440745046653 0.04869129455811615 0.2069303528400888 -0.16490592877918697 0.3363100636882079 -0.07729815966153139 0.8358502111150766 -0.14628625679547066 0.5351326998194978 -0.504341425470254 0.45263679800711076 0.5041712184409769 -0.5534314981286855 -0.11328177684499202 -0.054705876183312234 0.5503821697794005 1.085448278027021 0.5727880482784264 1.0150555872360714 0.452211280433918 -0.4400101103820358 0.48186869828903467 0.5874459074009173 0.002858809605033786 0.0936532039807871 -0.4447635659066211 -0.5924693287574377 1.0428504979611524 0.6018841943134344 -0.403362377252015 -0.9409797911665794 -0.90953339973184 -1.5407531097845981 -0.7484458162574786 1.3989732254999132 -0.8462436385342588 -0.7288110727456868 0.13399252702978215 -0.48326789262940645 0.04982437972129484 1.0474458306413188 -0.3861555264554253 -0.4499782773383411 -0.1648894737189547 -1.4103169326475067 0.7422047204437734 -0.4362503862292874 0.3972382666321481 -0.3951818983237516 -0.20482821889542144 0.5082692997697504 -0.7659552858961517 0.00966837632769948 -0.4001222730481625 0.4977066937625558 0.22898450442665083 -0.19232520133240427 -0.4501068324964055 -0.028786070993756872 0.2979733728915384 0.11521318953974997 -0.3604007860888245 -0.0478284323371886 -0.06604084158015723 0.9134371056616203 -0.5139959178408825 -1.0677385194520836 0.11794215843513882 0.21286960114265918 0.4173329804994942 0.784118844179056 0.7779787927195891 0.14773507342685524 -0.23750154075872643 -0.15925387269973218 0.6058910014799823 0.0869318260965535 0.17889555819005964 -0.4640075017378977 -0.36127598960492624 -0.1799682224289481 0.6553837088934713 -0.022251612309348776 0.6251981864490265 0.14993388085038692 0.3902867750149795 0.18644585973349181 -0.1773017313403785 0.3502829809285322 -0.30959630184244746 0.35971712975823855 0.36983030693284047 0.12722975438465187 0.6548062391234465 -0.3661132630925695 0.5454824184849381 0.22821394480921342 -0.6563617565360245 1.1042299295098983 0.49378113345590446 -0.6146332664489865 -0.3135879395003438 -0.30551878933896415 -0.5284630011088061 0.7877821519632562 0.8172737336644699
0.1755497816462783 0.6976583012919663 -0.13536421056632816 -1.1015562393324771 0.3766632706942739 0.40854777810769644 -0.3811827558311822 0.43177640961833386 0.3650570539139132 -1.038748559977637 1.470533454236403 0.03613942603503453 -0.22370525830558247 0.44456970472826013 0.398021681765392 -0.8637641639165252 -0.3377390828252506 0.020849589755499578 0.7491929788361484 0.37375869545296925 -0.9571949674738611 0.20040000792073875 0.8881713891162961 0.5514214096771923 -0.5904381572600218 0.5206571319111419 -0.23383411920946826 -1.250186313769776 0.04162616018121863 0.6183212568235351 -0.4776528604354741 -0.19354570400306667 0.5353872390324651 -1.5242383999590265 2.0126670108537663 1.27083304348585 0.3759518464495461 0.5734776181462833 0.6382460207719202 0.4930833360579315 -0.41862778805151774 0.05922227599642703 0.2371899230555786 -0.1890825260253905 -1.0789287317409482 0.214324845531947 2.1231737960567822 -0.11802957594262253 -0.7443824448213825 -1.3192708272722633 -0.007554158198174087 -1.1826547465767052 -0.061160373559404346 -0.3895432119807356 -0.48649385576587184 -1.1409789641044736 0.06189442351195147 -1.0099056676040157 -0.8904671271290083 -0.7001250176649039 0.9134432763092075 -1.6267696231557338 -0.9311378653754931 0.13272831560537787 0.2223952812449073 -0.7056914560090879 0.0996479881116413 0.29848605086189883 0.6410657496089024 0.515058297667126 0.10969148839057237 0.37960101316635914 0.048717776920677386 -2.226233895173766 -0.8100548473185274 -0.941074921983547 0.3040902844225537 0.4582605719517914 -0.06734207689008402 0.32866154600401465 -0.14361256661804944 -0.28077603517664546 -0.20042546184203547 -0.5439538976555535 -0.13788054923027868 -2.457234658699497 0.7567759333897289 0.1898183757501505 0.5028596987184049 0.6468185929322796 0.3181218228149554 -0.3578736487915966 -0.2597179289547656 -0.2101223774148252 -0.382355950203677 -0.14703779024951452 0.356782729720263 -0.03824284553128252 -0.5026267567719925 -0.12134475635878458 -0.5922006484770833 -0.16508307778699957 0.4687306182451798 0.2587761338667866 0.43162188631834053 0.10940326772619223 1.5993896884808843 -0.036170279272969966 0.21833319536039172 0.6276373920181384 -0.15484828743286883 -0.13365879783944723 0.5758990831035824 -0.1478867685133711 0.46112349532188324 0.02149493664898234 0.5343441424799313 0.023210376678192285 2.257947167116647 -1.0922190210919513 0.0746722920029101 -0.10431171213589778 -0.16883585996121245 0.9469043841811307 0.2402960727847281 -0.06537081209632613 0.6386486555269775 0.44946097138229046 -0.021218028838511843 0.05419319821295183 1.62351897742892 -0.18998986833100828 0.03748025633364513 -0.33524562697943555 0.2749751122241523 0.9819868297065603 -1.2084184858043705e-05 -0.294683389286357 -0.4707610184116473 -0.15653133156224655 0.2965199282744635 0.23100102063604733 1.6740840919709814 -0.07487283804949041 1.0838557367289205 -1.5720591189867315 0.6307250298045266 1.2020197813668783 0.18805845563625032 -0.1665519490230422 1.3287561410548794 -0.4029651418135963 -0.5342492687732798 0.41968939654681264 -0.3663338637438078 0.11756240649821686 -0.7197790444504055 -2.4102917142910556 0.2562788213662296 -0.08961065848029728 0.004155674039586392 -0.9045937963383776 -0.8617633314364126 0.23356363915690098 0.2939377693695841 0.16984656061391393 -0.6534201574091972 0.5427207965794008 1.2133771153612265 -1.2977828326018166 -0.40803612857860055 0.12055079970257947 -0.3752144540628893 0.2256508120677275 0.7434452777190939 0.033913107807677076 -0.07601775028721103 -0.48738320034936067 -0.17427631425049342 -0.5848868884244895 0.2617971800812975 -1.9575569572534999 0.13699994639753826 -0.8224941015231447 0.3622177846929052 0.5567708469145637 0.6540205099973575 0.43702968759747307 0.4486333332746725 -0.24415786973297948 -0.07015023576284048 0.15671645098985915
0.23558658312420072 -0.20139091107909832 0.440036592744597 0.3079646797762954 -0.7535983069926956 -0.019565323726437274 0.5650120038774333 -0.35232623661080614 0.4738877369660871 0.5937530805658678 0.647699452875336 -0.544704659778649 -0.41240031908456715 0.6235210558569196 0.31405973693043976 -0.043080119018925805 0.3087882041188553 -0.9217170862822255 0.27997616498316946 0.0014935538263909762 0.05486091370393777 -0.41434330174355094 0.67298445269437 -0.3538491010132358 0.23570845341404567 -0.7756347179674448 0.41195089025197434 1.0925239539268798 0.5103462369034372 0.059776605838000284 -0.3900360924567541 -0.4731799122657851 1.183906359595619 0.4954595495995918 1.3542213752055194 -0.24622118001991147 0.009918801775608724 -0.8143071948369782 0.5124409146489368 0.11626451362239977 -0.06502037073544285 0.25861389725730943 -0.23074468165086712 -0.05409909583724877 0.08691382837442452 0.27010081485098647 1.0114308459992905 -0.086233000257316 -0.8834755263025236 -0.7961459505469192 -0.14035369336111958 0.3737934053456466 -0.1257716817818866 0.17935835675909112 -0.49678855282366047 0.457541948618212 -0.5491290140985897 0.6879829829857312 0.6084780454808683 -0.1126343730689802 0.5136732443941411 -0.5371533297939524 -0.6711437999412054 0.30513826607109384 0.30589648439335704 -0.49410637800580715 -0.4042427229744393 -0.5369836369853074 -0.2443242201075147 0.41819558561010556 0.12688136990629761 -0.22930923475592122 0.3793495592771854 -1.3457354492216953 -0.2633951206960367 1.1877576150209095 0.2555964505872243 -0.36890291002256465 0.6700971038442459 0.31335268356108614 0.008515236559862752 0.8039369073462477 -0.30948137353113797 0.15980614565877638 -0.2628240786839151 -0.9259735475657344 0.860266692286228 0.13916687214186999 -0.39971809563120836 0.5483931643738297 0.3124450841451522 -0.3613392387426938 0.3876117992859776 -0.691799528518344 0.6330719327701484 -0.433680311509266 -0.8718477122556081 0.127134109347052 -0.3197770990301912 0.446500860312702 0.6494660578574557 -0.16063301243544592 -0.5354615439138263 0.5656064429283226 0.2521390881662432 0.4680785864834777 1.3451160704701415 -0.6011267473221195 -0.2720363413108024 -0.7282595711175909 -0.008778774633894558 0.24276793136398833 -0.3773219873241953 -0.1303176492813562 -0.4641975062615167 0.22927889573861804 -0.25280243278185494 0.4371764975879826 0.9706379803526444 -0.17973630892380013 -0.9034781946766955 0.24624046329362106 -0.01743979274300222 0.4970328076239828 0.6337532751078891 -0.6455428115436496 -0.3029394586475621 0.6028229040776198 1.1458090385032653 -0.1565534430494336 1.4908814217651354 0.20707227773459175 0.00023114217419960192 -0.029456614698220238 -0.26929863066466525 -0.20085689295249923 -0.07028290468596282 -0.46229951790785545 -0.14382493973917163 -0.06655943308778858 0.11406622041950032 -0.7991554267972043 -0.042443256765875285 -0.42397285441351507 -0.8497555083422591 -0.969137741658034 0.009193750684126102 0.6992477572662731 -0.3406413440737101 0.6676902941749662 -0.4549114529739004 -0.1449737086316342 -0.28167257884898583 -0.5043360261536153 0.07780055321924664 -0.14782609047876477 -0.6779302267354196 -1.2618298115459754 -0.47024551222780947 0.1628099654821067 -0.20620144509386423 -0.2333468951604046 0.2403616359153409 0.28157179160506346 0.3132706653702411 -0.3035274699405482 -0.03923940511659694 -0.24004230490270917 -0.7819400913601824 -0.610732902953316 0.649764820044797 -0.07733209822326036 0.19265687364021014 0.454818636149778 -1.2663233285409548 -0.6960626746700722 0.4602822303675105 0.9697946585157425 0.2458350003250863 0.19022306738773692 -0.2639301672639003 -0.7535062614995216 -0.24749927540138666 -0.1776673422099134 -0.22247498544290717 0.2787566907537715 -0.5766992104073746 0.18484534801559133 -0.1681933412812071 0.656632750809224 -0.28796741071876214 0.2563353856357779