
     Program PWSCF v.7.0 starts on  8Jul2023 at 21:56:41 

     This program is part of the open-source Quantum ESPRESSO suite
     for quantum simulation of materials; please cite
         "P. Giannozzi et al., J. Phys.:Condens. Matter 21 395502 (2009);
         "P. Giannozzi et al., J. Phys.:Condens. Matter 29 465901 (2017);
         "P. Giannozzi et al., J. Chem. Phys. 152 154105 (2020);
          URL http://www.quantum-espresso.org", 
     in publications or presentations arising from this work. More details at
     http://www.quantum-espresso.org/quote

     Parallel version (MPI & OpenMP), running on       1 processor cores
     Number of MPI processes:                 1
     Threads/MPI process:                     1

     MPI processes distributed on     1 nodes
     109280 MiB available memory on the printing compute node when the environment starts
 
     Reading input from pw-si-23.in
Warning: card &CELL ignored
Warning: card / ignored

     Current dimensions of program PWSCF are:
     Max number of different atomic species (ntypx) = 10
     Max number of k-points (npk) =  40000
     Max angular momentum in pseudopotentials (lmaxx) =  4

     IMPORTANT: XC functional enforced from input :
     Exchange-correlation= PBE
                           (   1   4   3   4   0   0   0)
     Any further DFT definition will be discarded
     Please, verify this is what you really want


     gamma-point specific algorithms are used

     Subspace diagonalization in iterative solution of the eigenvalue problem:
     a serial algorithm will be used

 
     G-vector sticks info
     --------------------
     sticks:   dense  smooth     PW     G-vecs:    dense   smooth      PW
     Sum        4087    4087   1023               194617   194617   24377
 
     Using Slab Decomposition
 


     bravais-lattice index     =            0
     lattice parameter (alat)  =      20.3881  a.u.
     unit-cell volume          =    8765.7797 (a.u.)^3
     number of atoms/cell      =           64
     number of atomic types    =            1
     number of electrons       =       256.00
     number of Kohn-Sham states=          128
     kinetic-energy cutoff     =      30.0000  Ry
     charge density cutoff     =     120.0000  Ry
     scf convergence threshold =      1.0E-06
     mixing beta               =       0.5000
     number of iterations used =            8  plain     mixing
     Exchange-correlation= PBE
                           (   1   4   3   4   0   0   0)

     GPU acceleration is ACTIVE.


     celldm(1)=  20.388065  celldm(2)=   0.000000  celldm(3)=   0.000000
     celldm(4)=   0.000000  celldm(5)=   0.000000  celldm(6)=   0.000000

     crystal axes: (cart. coord. in units of alat)
               a(1) = (   1.000000   0.000000   0.000000 )  
               a(2) = (   0.000000   1.030689   0.000000 )  
               a(3) = (   0.000000   0.000000   1.003540 )  

     reciprocal axes: (cart. coord. in units 2 pi/alat)
               b(1) = (  1.000000  0.000000  0.000000 )  
               b(2) = (  0.000000  0.970224  0.000000 )  
               b(3) = (  0.000000  0.000000  0.996472 )  


     PseudoPot. # 1 for Si read from file:
     ./Si_ONCV_PBE-1.0.upf
     MD5 check sum: 2de5a83d12544a9ea852f39b88f19b1f
     Pseudo is Norm-conserving, Zval =  4.0
     Generated using ONCVPSP code by D. R. Hamann
     Using radial grid of  602 points,  4 beta functions with: 
                l(1) =   0
                l(2) =   0
                l(3) =   1
                l(4) =   1

     atomic species   valence    mass     pseudopotential
        Si             4.00    28.08500     Si( 1.00)

     No symmetry found



   Cartesian axes

     site n.     atom                  positions (alat units)
         1           Si  tau(   1) = (   0.3749848   0.3907523   0.1209903  )
         2           Si  tau(   2) = (  -0.0033046   0.2588978   0.2460163  )
         3           Si  tau(   3) = (   0.3674831   0.1324602   0.3787580  )
         4           Si  tau(   4) = (  -0.0008710   0.0007985   0.0023953  )
         5           Si  tau(   5) = (   0.1221566   0.3954586   0.3792637  )
         6           Si  tau(   6) = (   0.2508105   0.2592141  -0.0024828  )
         7           Si  tau(   7) = (   0.1274844   0.1271160   0.1278142  )
         8           Si  tau(   8) = (   0.2444678   0.0019546   0.2505053  )
         9           Si  tau(   9) = (   0.3748511   0.3928806   0.6261313  )
        10           Si  tau(  10) = (  -0.0024789   0.2566832   0.7534776  )
        11           Si  tau(  11) = (   0.3675306   0.1278257   0.8721438  )
        12           Si  tau(  12) = (   0.0018270  -0.0040784   0.4978927  )
        13           Si  tau(  13) = (   0.1225672   0.3875276   0.8719234  )
        14           Si  tau(  14) = (   0.2456143   0.2650645   0.4961051  )
        15           Si  tau(  15) = (   0.1243551   0.1274388   0.6281042  )
        16           Si  tau(  16) = (   0.2442521   0.0025029   0.7528342  )
        17           Si  tau(  17) = (   0.3700327   0.9115308   0.1219997  )
        18           Si  tau(  18) = (  -0.0038310   0.7871462   0.2460805  )
        19           Si  tau(  19) = (   0.3743071   0.6552420   0.3775532  )
        20           Si  tau(  20) = (   0.0044394   0.5195901   0.0037040  )
        21           Si  tau(  21) = (   0.1261244   0.9145069   0.3712357  )
        22           Si  tau(  22) = (   0.2470820   0.7853135  -0.0031130  )
        23           Si  tau(  23) = (   0.1244496   0.6492634   0.1227583  )
        24           Si  tau(  24) = (   0.2499216   0.5217769   0.2471477  )
        25           Si  tau(  25) = (   0.3733672   0.9127280   0.6205771  )
        26           Si  tau(  26) = (   0.0030125   0.7871971   0.7495346  )
        27           Si  tau(  27) = (   0.3723979   0.6484549   0.8761449  )
        28           Si  tau(  28) = (  -0.0008601   0.5186919   0.4980345  )
        29           Si  tau(  29) = (   0.1277102   0.9157525   0.8721043  )
        30           Si  tau(  30) = (   0.2444231   0.7839288   0.4965419  )
        31           Si  tau(  31) = (   0.1280844   0.6573439   0.6206972  )
        32           Si  tau(  32) = (   0.2498736   0.5232513   0.7518520  )
        33           Si  tau(  33) = (   0.8668603   0.3885672   0.1290832  )
        34           Si  tau(  34) = (   0.4951323   0.2576787   0.2504417  )
        35           Si  tau(  35) = (   0.8630649   0.1325586   0.3730457  )
        36           Si  tau(  36) = (   0.4991830   0.0010274   0.0045503  )
        37           Si  tau(  37) = (   0.6202748   0.3929527   0.3789907  )
        38           Si  tau(  38) = (   0.7431942   0.2570492   0.0031410  )
        39           Si  tau(  39) = (   0.6187994   0.1260524   0.1285911  )
        40           Si  tau(  40) = (   0.7463025   0.0006953   0.2456991  )
        41           Si  tau(  41) = (   0.8643355   0.3910580   0.6290985  )
        42           Si  tau(  42) = (   0.4932931   0.2617379   0.7465409  )
        43           Si  tau(  43) = (   0.8650383   0.1292018   0.8776898  )
        44           Si  tau(  44) = (   0.4928304  -0.0024397   0.4989518  )
        45           Si  tau(  45) = (   0.6178467   0.3895119   0.8754066  )
        46           Si  tau(  46) = (   0.7457978   0.2630727   0.5030717  )
        47           Si  tau(  47) = (   0.6230138   0.1325576   0.6264437  )
        48           Si  tau(  48) = (   0.7475630  -0.0023947   0.7532539  )
        49           Si  tau(  49) = (   0.8649389   0.9109861   0.1221296  )
        50           Si  tau(  50) = (   0.4924893   0.7793773   0.2502568  )
        51           Si  tau(  51) = (   0.8689858   0.6576837   0.3749758  )
        52           Si  tau(  52) = (   0.4920994   0.5241064   0.0018589  )
        53           Si  tau(  53) = (   0.6184243   0.9172471   0.3766899  )
        54           Si  tau(  54) = (   0.7452999   0.7809717  -0.0040679  )
        55           Si  tau(  55) = (   0.6232217   0.6558421   0.1217473  )
        56           Si  tau(  56) = (   0.7445472   0.5182408   0.2467704  )
        57           Si  tau(  57) = (   0.8673134   0.9151777   0.6235857  )
        58           Si  tau(  58) = (   0.4981463   0.7840657   0.7498772  )
        59           Si  tau(  59) = (   0.8649546   0.6498832   0.8725096  )
        60           Si  tau(  60) = (   0.4909323   0.5210492   0.4967709  )
        61           Si  tau(  61) = (   0.6163166   0.9182862   0.8787097  )
        62           Si  tau(  62) = (   0.7418825   0.7877853   0.5004579  )
        63           Si  tau(  63) = (   0.6191831   0.6560921   0.6243386  )
        64           Si  tau(  64) = (   0.7421663   0.5216393   0.7461618  )

     number of k points=     1
                       cart. coord. in units 2pi/alat
        k(    1) = (   0.0000000   0.0000000   0.0000000), wk =   2.0000000

     Dense  grid:    97309 G-vectors     FFT dimensions: (  72,  75,  72)

     Estimated max dynamical RAM per process >     283.19 MB

     Initial potential from superposition of free atoms

     starting charge     253.0416, renormalised to     256.0000
     Starting wfcs are random

     total cpu time spent up to now is        1.5 secs

     Self-consistent Calculation

     iteration #  1     ecut=    30.00 Ry     beta= 0.50
     Davidson diagonalization with overlap
     ethr =  1.00E-02,  avg # of iterations = 12.0

     Threshold (ethr) on eigenvalues was too large:
     Diagonalizing with lowered threshold

     Davidson diagonalization with overlap
     ethr =  6.19E-04,  avg # of iterations =  5.0

     total cpu time spent up to now is        1.8 secs

     total energy              =    -503.64319828 Ry
     estimated scf accuracy    <       1.72367860 Ry

     iteration #  2     ecut=    30.00 Ry     beta= 0.50
     Davidson diagonalization with overlap
     ethr =  6.73E-04,  avg # of iterations =  1.0

     total cpu time spent up to now is        1.9 secs

     total energy              =    -503.64397116 Ry
     estimated scf accuracy    <       0.31662824 Ry

     iteration #  3     ecut=    30.00 Ry     beta= 0.50
     Davidson diagonalization with overlap
     ethr =  1.24E-04,  avg # of iterations = 19.0

     total cpu time spent up to now is        2.1 secs

     total energy              =    -503.73346936 Ry
     estimated scf accuracy    <       0.02048090 Ry

     iteration #  4     ecut=    30.00 Ry     beta= 0.50
     Davidson diagonalization with overlap
     ethr =  8.00E-06,  avg # of iterations =  6.0

     total cpu time spent up to now is        2.3 secs

     total energy              =    -503.73947229 Ry
     estimated scf accuracy    <       0.00326406 Ry

     iteration #  5     ecut=    30.00 Ry     beta= 0.50
     Davidson diagonalization with overlap
     ethr =  1.28E-06,  avg # of iterations =  4.0

     total cpu time spent up to now is        2.4 secs

     total energy              =    -503.74001876 Ry
     estimated scf accuracy    <       0.00137951 Ry

     iteration #  6     ecut=    30.00 Ry     beta= 0.50
     Davidson diagonalization with overlap
     ethr =  5.39E-07,  avg # of iterations =  4.0

     total cpu time spent up to now is        2.6 secs

     total energy              =    -503.74033160 Ry
     estimated scf accuracy    <       0.00032092 Ry

     iteration #  7     ecut=    30.00 Ry     beta= 0.50
     Davidson diagonalization with overlap
     ethr =  1.25E-07,  avg # of iterations =  8.0

     total cpu time spent up to now is        2.7 secs

     total energy              =    -503.74038264 Ry
     estimated scf accuracy    <       0.00004524 Ry

     iteration #  8     ecut=    30.00 Ry     beta= 0.50
     Davidson diagonalization with overlap
     ethr =  1.77E-08,  avg # of iterations =  4.0

     total cpu time spent up to now is        2.9 secs

     total energy              =    -503.74039510 Ry
     estimated scf accuracy    <       0.00000520 Ry

     iteration #  9     ecut=    30.00 Ry     beta= 0.50
     Davidson diagonalization with overlap
     ethr =  2.03E-09,  avg # of iterations =  6.0

     total cpu time spent up to now is        3.1 secs

     total energy              =    -503.74039632 Ry
     estimated scf accuracy    <       0.00000129 Ry

     iteration # 10     ecut=    30.00 Ry     beta= 0.50
     Davidson diagonalization with overlap
     ethr =  5.03E-10,  avg # of iterations =  4.0

     total cpu time spent up to now is        3.2 secs

     End of self-consistent calculation

          k = 0.0000 0.0000 0.0000 ( 12189 PWs)   bands (ev):

    -5.8049  -4.8208  -4.8045  -4.7303  -4.7170  -4.6427  -4.6122  -4.0020
    -3.8823  -3.8630  -3.8561  -3.7850  -3.7766  -3.7518  -3.7014  -3.6770
    -3.6566  -3.5967  -3.5525  -3.4745  -3.4017  -3.3852  -3.2570  -1.8912
    -1.8694  -1.7780  -1.7258  -1.6641  -1.6290  -1.5949  -1.5722  -1.5318
    -1.5095  -1.4869  -1.4705  -1.4201  -1.4105  -1.3729  -1.3512  -1.3427
    -1.2821  -0.8814  -0.8215  -0.7910  -0.6609   0.5034   0.5214   0.6052
     0.6343   0.6378   0.6599   0.7044   0.7090   0.7124   0.7247   0.7342
     0.7750   2.1091   2.1402   2.1658   2.1900   2.2150   2.2301   2.2512
     2.2686   2.2835   2.2927   2.3083   2.3249   2.3358   2.3510   2.3701
     2.4022   2.4216   2.4476   2.5035   2.5089   2.5354   2.5481   2.5670
     2.5811   2.6251   2.6712   2.7021   2.7299   2.7436   2.7964   3.2141
     3.2209   3.2653   3.2901   3.3415   3.4794   4.0996   4.1125   4.1485
     4.1736   4.2190   4.2557   4.2697   4.2916   4.3223   4.3457   4.4617
     4.4898   4.5101   4.6172   4.6369   4.6633   4.7053   4.7180   4.7278
     4.7612   4.7823   4.8397   4.8854   4.9259   4.9852   5.0031   5.0808
     5.1020   5.1409   5.1817   5.2406   5.3003   6.0162   6.1580   6.3282

     highest occupied level (ev):     6.3282

!    total energy              =    -503.74039651 Ry
     estimated scf accuracy    <       0.00000054 Ry

     The total energy is the sum of the following terms:
     one-electron contribution =     147.09886770 Ry
     hartree contribution      =      37.21741265 Ry
     xc contribution           =    -154.04470572 Ry
     ewald contribution        =    -534.01197114 Ry

     convergence has been achieved in  10 iterations

     Forces acting on atoms (cartesian axes, Ry/au):

     atom    1 type  1   force =    -0.01387019   -0.01129301    0.02024978
     atom    2 type  1   force =     0.00128894    0.00632438    0.03169214
     atom    3 type  1   force =     0.00936948   -0.00610142   -0.01895408
     atom    4 type  1   force =    -0.01106187    0.02856753   -0.01998432
     atom    5 type  1   force =    -0.00118672   -0.02112846   -0.05614218
     atom    6 type  1   force =    -0.01534266    0.00176328   -0.00392333
     atom    7 type  1   force =    -0.02499644    0.03387985   -0.02623144
     atom    8 type  1   force =     0.04724859    0.03264330   -0.00566884
     atom    9 type  1   force =    -0.03078856   -0.00019611   -0.01373631
     atom   10 type  1   force =    -0.02863233    0.00432314   -0.01312256
     atom   11 type  1   force =     0.03609469    0.01738228    0.02628688
     atom   12 type  1   force =    -0.03816963    0.06812185    0.00823310
     atom   13 type  1   force =     0.00849352    0.01361098    0.02488285
     atom   14 type  1   force =     0.00042119   -0.00737079    0.04499510
     atom   15 type  1   force =    -0.01512559    0.02775874   -0.02850438
     atom   16 type  1   force =     0.04372657    0.02209491   -0.04580943
     atom   17 type  1   force =    -0.00152624   -0.03236892    0.02285326
     atom   18 type  1   force =     0.00117859   -0.02617053    0.00496905
     atom   19 type  1   force =    -0.03231129   -0.01895626   -0.01954818
     atom   20 type  1   force =    -0.05519305   -0.01471774   -0.03453516
     atom   21 type  1   force =    -0.02845053   -0.06054997    0.00122684
     atom   22 type  1   force =    -0.00001947   -0.02746999   -0.01082384
     atom   23 type  1   force =     0.00122881    0.03399632    0.01136194
     atom   24 type  1   force =     0.00260585   -0.00073037    0.01903800
     atom   25 type  1   force =    -0.03693804   -0.04754739    0.04046220
     atom   26 type  1   force =    -0.03699319   -0.02428254   -0.00745086
     atom   27 type  1   force =    -0.00145531    0.03380403    0.00524092
     atom   28 type  1   force =    -0.03580297    0.03896006    0.03286305
     atom   29 type  1   force =    -0.04423146   -0.05041735    0.04635926
     atom   30 type  1   force =     0.02835112    0.00684390   -0.00378300
     atom   31 type  1   force =    -0.02859874   -0.03327120    0.02218258
     atom   32 type  1   force =    -0.01509181   -0.00779381   -0.01876487
     atom   33 type  1   force =     0.03288986    0.00077561   -0.03201999
     atom   34 type  1   force =     0.00350864    0.01506088    0.01263852
     atom   35 type  1   force =     0.04929661   -0.00539790    0.00589648
     atom   36 type  1   force =    -0.03859065    0.04636578   -0.02260232
     atom   37 type  1   force =    -0.00280021   -0.01161823   -0.02379213
     atom   38 type  1   force =    -0.01001997    0.01479296   -0.01389459
     atom   39 type  1   force =     0.00830808    0.03097687   -0.00597591
     atom   40 type  1   force =    -0.01625350    0.02812825    0.03058120
     atom   41 type  1   force =     0.05447857   -0.00442215   -0.01147821
     atom   42 type  1   force =     0.01252883   -0.01589214    0.02118372
     atom   43 type  1   force =     0.03633609    0.00480596    0.01702443
     atom   44 type  1   force =     0.01817458    0.08876705    0.00785740
     atom   45 type  1   force =     0.00098313    0.00803884    0.01343031
     atom   46 type  1   force =    -0.01064401   -0.00410108   -0.00961363
     atom   47 type  1   force =    -0.01099661   -0.01767358   -0.00228611
     atom   48 type  1   force =    -0.02067613    0.05693422   -0.00554018
     atom   49 type  1   force =     0.03637566   -0.03539853   -0.01291519
     atom   50 type  1   force =     0.02905215    0.02298100   -0.00727308
     atom   51 type  1   force =     0.00950016   -0.02205767   -0.00705067
     atom   52 type  1   force =     0.03740892   -0.00477663   -0.01860682
     atom   53 type  1   force =     0.00789918   -0.05731723   -0.03820465
     atom   54 type  1   force =    -0.00993873    0.01033588   -0.01571315
     atom   55 type  1   force =    -0.01534111   -0.02278117    0.01409088
     atom   56 type  1   force =    -0.00483692    0.03304832    0.02518467
     atom   57 type  1   force =     0.03822267   -0.05103285    0.00121787
     atom   58 type  1   force =    -0.01735350   -0.00456629    0.01129296
     atom   59 type  1   force =     0.05492187    0.00118898    0.01158958
     atom   60 type  1   force =     0.02902380    0.01577679    0.02533147
     atom   61 type  1   force =     0.02401831   -0.06909764   -0.00996309
     atom   62 type  1   force =     0.00641795   -0.01658755   -0.00296946
     atom   63 type  1   force =    -0.00173171   -0.01854135   -0.01333425
     atom   64 type  1   force =    -0.01438327    0.00357590    0.01999978

     Total force =     0.366480     Total SCF correction =     0.001317


     Computing stress (Cartesian axis) and pressure

          total   stress  (Ry/bohr**3)                   (kbar)     P=       21.54
   0.00021701  -0.00000241  -0.00006108           31.92       -0.35       -8.98
  -0.00000241   0.00001616   0.00001283           -0.35        2.38        1.89
  -0.00006108   0.00001283   0.00020620           -8.98        1.89       30.33

 
     init_run     :      0.99s CPU      1.43s WALL (       1 calls)
     electrons    :      1.65s CPU      1.72s WALL (       1 calls)
     forces       :      0.06s CPU      0.07s WALL (       1 calls)
     stress       :      0.23s CPU      0.24s WALL (       1 calls)

     Called by init_run:
     wfcinit      :      0.60s CPU      0.92s WALL (       1 calls)
                                        0.92s GPU  (       1 calls)
     potinit      :      0.24s CPU      0.29s WALL (       1 calls)
     hinit0       :      0.11s CPU      0.13s WALL (       1 calls)

     Called by electrons:
     c_bands      :      1.06s CPU      1.08s WALL (      11 calls)
     sum_band     :      0.23s CPU      0.24s WALL (      11 calls)
     v_of_rho     :      0.16s CPU      0.22s WALL (      11 calls)
     mix_rho      :      0.20s CPU      0.22s WALL (      11 calls)

     Called by c_bands:
     init_us_2    :      0.04s CPU      0.04s WALL (      23 calls)
     init_us_2:gp :      0.04s CPU      0.04s WALL (      23 calls)
     regterg      :      0.96s CPU      0.96s WALL (      11 calls)

     Called by *egterg:
     rdiaghg      :      0.38s CPU      0.43s WALL (      83 calls)
                                        0.42s GPU  (      83 calls)
     h_psi        :      0.99s CPU      1.26s WALL (      85 calls)
                                        1.26s GPU  (      85 calls)
     g_psi        :      0.00s CPU      0.00s WALL (      73 calls)
                                        0.00s GPU  (      73 calls)

     Called by h_psi:
     h_psi:calbec :      0.47s CPU      0.76s WALL (      85 calls)
                                        0.76s GPU  (      85 calls)
     vloc_psi     :      0.41s CPU      0.42s WALL (      85 calls)
                                        0.42s GPU  (      85 calls)
     add_vuspsi   :      0.04s CPU      0.07s WALL (      85 calls)
                                        0.07s GPU  (      85 calls)

     General routines
     calbec       :      0.47s CPU      0.73s WALL (      90 calls)
     fft          :      0.16s CPU      0.17s WALL (      95 calls)
                                        0.03s GPU  (      59 calls)
     ffts         :      0.04s CPU      0.04s WALL (      11 calls)
     fftw         :      0.03s CPU      0.47s WALL (    1076 calls)
                                        0.38s GPU  (    1076 calls)
 
     Parallel routines
 
     PWSCF        :      2.96s CPU      3.50s WALL

 
   This run was terminated on:  21:56:45   8Jul2023            

=------------------------------------------------------------------------------=
   JOB DONE.
=------------------------------------------------------------------------------=
