An instance of this daemon is already running
An instance of this daemon is already running

     Program PWSCF v.7.1 starts on 10May2023 at 11:14:49 

     This program is part of the open-source Quantum ESPRESSO suite
     for quantum simulation of materials; please cite
         "P. Giannozzi et al., J. Phys.:Condens. Matter 21 395502 (2009);
         "P. Giannozzi et al., J. Phys.:Condens. Matter 29 465901 (2017);
         "P. Giannozzi et al., J. Chem. Phys. 152 154105 (2020);
          URL http://www.quantum-espresso.org", 
     in publications or presentations arising from this work. More details at
     http://www.quantum-espresso.org/quote

     Parallel version (MPI & OpenMP), running on       4 processor cores
     Number of MPI processes:                 4
     Threads/MPI process:                     1

     MPI processes distributed on     1 nodes
     150151 MiB available memory on the printing compute node when the environment starts
 
     Reading input from pw-si-34.in
Warning: card &CELL ignored
Warning: card / ignored

     Current dimensions of program PWSCF are:
     Max number of different atomic species (ntypx) = 10
     Max number of k-points (npk) =  40000
     Max angular momentum in pseudopotentials (lmaxx) =  4

     IMPORTANT: XC functional enforced from input :
     Exchange-correlation= PBE
                           (   1   4   3   4   0   0   0)
     Any further DFT definition will be discarded
     Please, verify this is what you really want


     gamma-point specific algorithms are used
 
     K-points division:     npool     =       2
     R & G space division:  proc/nbgrp/npool/nimage =       2
     Subspace diagonalization in iterative solution of the eigenvalue problem:
     a serial algorithm will be used

     Message from routine divide_et_impera:
     suboptimal parallelization: some nodes have no k-points
 
     Parallelization info
     --------------------
     sticks:   dense  smooth     PW     G-vecs:    dense   smooth      PW
     Min        2085    2085    548               102285   102285   13868
     Max        2088    2088    549               102292   102292   13869
     Sum        4173    4173   1097               204577   204577   27737
 
     Using Slab Decomposition
 


     bravais-lattice index     =            0
     lattice parameter (alat)  =      20.9582  a.u.
     unit-cell volume          =    9213.7615 (a.u.)^3
     number of atoms/cell      =           64
     number of atomic types    =            1
     number of electrons       =       256.00
     number of Kohn-Sham states=          154
     kinetic-energy cutoff     =      30.0000  Ry
     charge density cutoff     =     120.0000  Ry
     scf convergence threshold =      1.0E-06
     mixing beta               =       0.5000
     number of iterations used =            8  plain     mixing
     Exchange-correlation= PBE
                           (   1   4   3   4   0   0   0)

     GPU acceleration is ACTIVE.
     GPU-aware MPI enabled

     Message from routine print_cuda_info:
     High GPU oversubscription detected. Are you sure this is what you want?

     celldm(1)=  20.958218  celldm(2)=   0.000000  celldm(3)=   0.000000
     celldm(4)=   0.000000  celldm(5)=   0.000000  celldm(6)=   0.000000

     crystal axes: (cart. coord. in units of alat)
               a(1) = (   1.000000   0.000000   0.000000 )  
               a(2) = (   0.000000   0.992597   0.000000 )  
               a(3) = (   0.000000   0.000000   1.008326 )  

     reciprocal axes: (cart. coord. in units 2 pi/alat)
               b(1) = (  1.000000  0.000000  0.000000 )  
               b(2) = (  0.000000  1.007458  0.000000 )  
               b(3) = (  0.000000  0.000000  0.991743 )  


     PseudoPot. # 1 for Si read from file:
     /home/ppiaggi/pseudos/Si_ONCV_PBE_sr.upf
     MD5 check sum: 8553c464762ac42b85b1eed164b4d029
     Pseudo is Norm-conserving, Zval =  4.0
     Generated using ONCVPSP code by D. R. Hamann
     Using radial grid of 1510 points,  4 beta functions with: 
                l(1) =   0
                l(2) =   0
                l(3) =   1
                l(4) =   1

     atomic species   valence    mass     pseudopotential
        Si             4.00    28.08500     Si( 1.00)

     No symmetry found



   Cartesian axes

     site n.     atom                  positions (alat units)
         1           Si  tau(   1) = (  -0.0037173   0.0004424   0.0005981  )
         2           Si  tau(   2) = (   0.0044939   0.2562877   0.2447255  )
         3           Si  tau(   3) = (   0.2553883   0.0010876   0.2449823  )
         4           Si  tau(   4) = (   0.2487906   0.2513286   0.0000866  )
         5           Si  tau(   5) = (   0.1226328   0.1256580   0.1261401  )
         6           Si  tau(   6) = (   0.5003656   0.0038082  -0.0001517  )
         7           Si  tau(   7) = (   0.5017524   0.2546162   0.2503896  )
         8           Si  tau(   8) = (   0.6315497   0.1217679   0.1244310  )
         9           Si  tau(   9) = (   0.7566243  -0.0002302   0.2521318  )
        10           Si  tau(  10) = (   0.7548710   0.2507136  -0.0040722  )
        11           Si  tau(  11) = (   0.0042566   0.5049403  -0.0001532  )
        12           Si  tau(  12) = (   0.2473971   0.5053689   0.2485438  )
        13           Si  tau(  13) = (   0.1291361   0.6308447   0.1208590  )
        14           Si  tau(  14) = (   0.3803622   0.3795564   0.1240200  )
        15           Si  tau(  15) = (   0.5049307   0.5023668  -0.0030175  )
        16           Si  tau(  16) = (   0.6300564   0.6337675   0.1289336  )
        17           Si  tau(  17) = (   0.8787344   0.3784305   0.1204636  )
        18           Si  tau(  18) = (   0.7512672   0.5020001   0.2532311  )
        19           Si  tau(  19) = (   0.0045153   0.7524605   0.2508048  )
        20           Si  tau(  20) = (   0.2531948   0.7533255   0.0040047  )
        21           Si  tau(  21) = (   0.3793952   0.8854644   0.1263937  )
        22           Si  tau(  22) = (   0.5001440   0.7559332   0.2498673  )
        23           Si  tau(  23) = (   0.7562746   0.7587909  -0.0038082  )
        24           Si  tau(  24) = (   0.8786269   0.8802195   0.1247732  )
        25           Si  tau(  25) = (   0.0025505  -0.0002905   0.5008343  )
        26           Si  tau(  26) = (   0.2516294   0.2472448   0.4956371  )
        27           Si  tau(  27) = (   0.1209749   0.1303829   0.6250975  )
        28           Si  tau(  28) = (   0.3722840   0.1268853   0.3715369  )
        29           Si  tau(  29) = (   0.4991225   0.0033605   0.4944506  )
        30           Si  tau(  30) = (   0.6241964   0.1239043   0.6240232  )
        31           Si  tau(  31) = (   0.8805973   0.1263311   0.3776126  )
        32           Si  tau(  32) = (   0.7563605   0.2479901   0.4939982  )
        33           Si  tau(  33) = (   0.1273512   0.3739220   0.3764052  )
        34           Si  tau(  34) = (   0.0026289   0.5005395   0.4980451  )
        35           Si  tau(  35) = (   0.1255792   0.6283564   0.6241679  )
        36           Si  tau(  36) = (   0.6262363   0.3739859   0.3721896  )
        37           Si  tau(  37) = (   0.3727320   0.6257665   0.3761051  )
        38           Si  tau(  38) = (   0.3781709   0.3793252   0.6231413  )
        39           Si  tau(  39) = (   0.4988364   0.5017651   0.5022392  )
        40           Si  tau(  40) = (   0.6298834   0.6279626   0.6257238  )
        41           Si  tau(  41) = (   0.8786231   0.6266003   0.3721100  )
        42           Si  tau(  42) = (   0.8790733   0.3773375   0.6262184  )
        43           Si  tau(  43) = (   0.1259540   0.8793926   0.3744953  )
        44           Si  tau(  44) = (   0.2550675   0.7512449   0.4972145  )
        45           Si  tau(  45) = (   0.6281183   0.8808776   0.3752966  )
        46           Si  tau(  46) = (   0.3806947   0.8772876   0.6191000  )
        47           Si  tau(  47) = (   0.7555589   0.7593182   0.4952639  )
        48           Si  tau(  48) = (   0.8786531   0.8837984   0.6227337  )
        49           Si  tau(  49) = (   0.0038582   0.2529684   0.7430666  )
        50           Si  tau(  50) = (   0.2512071   0.0040360   0.7483240  )
        51           Si  tau(  51) = (   0.3738786   0.1241712   0.8714764  )
        52           Si  tau(  52) = (   0.5008414   0.2487779   0.7468990  )
        53           Si  tau(  53) = (   0.7499174   0.0039831   0.7463475  )
        54           Si  tau(  54) = (   0.8789577   0.1243917   0.8733280  )
        55           Si  tau(  55) = (   0.1241976   0.3815032   0.8709200  )
        56           Si  tau(  56) = (   0.2531703   0.5065761   0.7499564  )
        57           Si  tau(  57) = (   0.6274573   0.3763634   0.8723378  )
        58           Si  tau(  58) = (   0.3750409   0.6325122   0.8690033  )
        59           Si  tau(  59) = (   0.7516546   0.5020786   0.7458928  )
        60           Si  tau(  60) = (   0.8798514   0.6339804   0.8742546  )
        61           Si  tau(  61) = (  -0.0007274   0.7516775   0.7451933  )
        62           Si  tau(  62) = (   0.1231161   0.8846901   0.8740975  )
        63           Si  tau(  63) = (   0.4985879   0.7512260   0.7502344  )
        64           Si  tau(  64) = (   0.6256059   0.8791800   0.8738620  )

     number of k points=     1  Fermi-Dirac smearing, width (Ry)=  0.0100
                       cart. coord. in units 2pi/alat
        k(    1) = (   0.0000000   0.0000000   0.0000000), wk =   2.0000000

     Dense  grid:   102289 G-vectors     FFT dimensions: (  75,  75,  75)

     Estimated max dynamical RAM per process >     163.99 MB

     Estimated total dynamical RAM >     630.98 MB

     Initial potential from superposition of free atoms

     starting charge     255.9608, renormalised to     256.0000
     Starting wfcs are  256 randomized atomic wfcs

     total cpu time spent up to now is        4.1 secs

     Self-consistent Calculation

     iteration #  1     ecut=    30.00 Ry     beta= 0.50
     Davidson diagonalization with overlap
     ethr =  1.00E-02,  avg # of iterations =  3.0

     Threshold (ethr) on eigenvalues was too large:
     Diagonalizing with lowered threshold

     Davidson diagonalization with overlap
     ethr =  6.17E-04,  avg # of iterations =  4.0

     total cpu time spent up to now is        4.3 secs

     total energy              =    -503.83558974 Ry
     estimated scf accuracy    <       1.75285984 Ry

     iteration #  2     ecut=    30.00 Ry     beta= 0.50
     Davidson diagonalization with overlap
     ethr =  6.85E-04,  avg # of iterations =  1.0

     total cpu time spent up to now is        4.4 secs

     total energy              =    -503.81993798 Ry
     estimated scf accuracy    <       0.33474050 Ry

     iteration #  3     ecut=    30.00 Ry     beta= 0.50
     Davidson diagonalization with overlap
     ethr =  1.31E-04,  avg # of iterations =  4.0

     total cpu time spent up to now is        4.5 secs

     total energy              =    -503.83853907 Ry
     estimated scf accuracy    <       0.01503339 Ry

     iteration #  4     ecut=    30.00 Ry     beta= 0.50
     Davidson diagonalization with overlap
     ethr =  5.87E-06,  avg # of iterations = 18.0

     total cpu time spent up to now is        4.7 secs

     total energy              =    -503.84214287 Ry
     estimated scf accuracy    <       0.00965918 Ry

     iteration #  5     ecut=    30.00 Ry     beta= 0.50
     Davidson diagonalization with overlap
     ethr =  3.77E-06,  avg # of iterations =  4.0

     total cpu time spent up to now is        4.8 secs

     total energy              =    -503.84390643 Ry
     estimated scf accuracy    <       0.00146216 Ry

     iteration #  6     ecut=    30.00 Ry     beta= 0.50
     Davidson diagonalization with overlap
     ethr =  5.71E-07,  avg # of iterations =  4.0

     total cpu time spent up to now is        5.0 secs

     total energy              =    -503.84402823 Ry
     estimated scf accuracy    <       0.00034659 Ry

     iteration #  7     ecut=    30.00 Ry     beta= 0.50
     Davidson diagonalization with overlap
     ethr =  1.35E-07,  avg # of iterations =  5.0

     total cpu time spent up to now is        5.1 secs

     total energy              =    -503.84407257 Ry
     estimated scf accuracy    <       0.00002411 Ry

     iteration #  8     ecut=    30.00 Ry     beta= 0.50
     Davidson diagonalization with overlap
     ethr =  9.42E-09,  avg # of iterations =  5.0

     total cpu time spent up to now is        5.2 secs

     total energy              =    -503.84408064 Ry
     estimated scf accuracy    <       0.00001168 Ry

     iteration #  9     ecut=    30.00 Ry     beta= 0.50
     Davidson diagonalization with overlap
     ethr =  4.56E-09,  avg # of iterations =  3.0

     total cpu time spent up to now is        5.3 secs

     End of self-consistent calculation

          k = 0.0000 0.0000 0.0000 ( 12771 PWs)   bands (ev):

    -5.9771  -5.0403  -5.0001  -4.9773  -4.9071  -4.8838  -4.8415  -4.2428
    -4.1586  -4.1197  -4.0816  -4.0482  -4.0339  -4.0225  -4.0081  -3.9639
    -3.9282  -3.8901  -3.8719  -3.7797  -3.7483  -3.6711  -3.5689  -2.2469
    -2.1505  -2.1176  -2.0642  -2.0154  -1.9851  -1.9639  -1.9510  -1.9281
    -1.9134  -1.8859  -1.8475  -1.8246  -1.8023  -1.7650  -1.7582  -1.7493
    -1.6632  -1.1672  -1.1032  -1.0620  -0.9728   0.1017   0.1283   0.1329
     0.1888   0.2165   0.2266   0.2366   0.2668   0.2892   0.3053   0.3417
     0.3564   1.7880   1.8067   1.8617   1.8745   1.9088   1.9182   1.9362
     1.9427   1.9517   1.9795   1.9879   2.0179   2.0359   2.0403   2.0555
     2.0624   2.0866   2.0916   2.1113   2.1258   2.1302   2.1499   2.1619
     2.1703   2.1786   2.2263   2.2481   2.2734   2.3199   2.3282   2.7913
     2.8736   2.9263   2.9396   2.9628   3.0007   3.6687   3.7520   3.7675
     3.7804   3.8018   3.8312   3.8541   3.8644   3.8896   3.9073   3.9456
     3.9589   4.0108   4.2455   4.2682   4.2944   4.3129   4.3409   4.3559
     4.3747   4.3809   4.4094   4.4200   4.4526   4.4719   4.4873   4.5111
     4.5431   4.5488   4.5625   4.6105   4.8708   5.5315   5.6742   5.7264
     6.2041   6.2961   6.3726   6.4227   6.4672   6.5252   6.7033   6.7242
     6.7607   6.8045   6.8185   6.8466   6.8728   6.8956   6.9100   6.9215
     7.7402   7.8693   7.8882   7.9140   7.9340   7.9473   7.9800   7.9889
     7.9962   8.0249

     the Fermi energy is     5.9474 ev

!    total energy              =    -503.84408162 Ry
     estimated scf accuracy    <       0.00000085 Ry
     smearing contrib. (-TS)   =      -0.04528144 Ry
     internal energy E=F+TS    =    -503.79880018 Ry

     The total energy is F=E-TS. E is the sum of the following terms:
     one-electron contribution =     135.36487951 Ry
     hartree contribution      =      38.39637839 Ry
     xc contribution           =    -152.28649751 Ry
     ewald contribution        =    -525.27356056 Ry

     convergence has been achieved in   9 iterations

     Forces acting on atoms (cartesian axes, Ry/au):

     atom    1 type  1   force =     0.02776590    0.04249610   -0.03142248
     atom    2 type  1   force =    -0.01556032   -0.01500755    0.02446420
     atom    3 type  1   force =    -0.04403518    0.03874303    0.02721391
     atom    4 type  1   force =     0.00603282    0.00659567   -0.02723988
     atom    5 type  1   force =     0.01546992    0.00194839   -0.01939929
     atom    6 type  1   force =     0.01705454    0.02617325   -0.03827697
     atom    7 type  1   force =     0.00212671   -0.02576446   -0.01781526
     atom    8 type  1   force =    -0.00951456    0.02916227    0.00216620
     atom    9 type  1   force =    -0.00635850    0.03568665   -0.00091770
     atom   10 type  1   force =    -0.00596666   -0.00119777   -0.01514097
     atom   11 type  1   force =    -0.00839074    0.00545093   -0.03530811
     atom   12 type  1   force =     0.01582580   -0.01974221    0.00124439
     atom   13 type  1   force =    -0.01213864   -0.00846667    0.01819722
     atom   14 type  1   force =    -0.02127291    0.00050783   -0.00579334
     atom   15 type  1   force =     0.00038617    0.01911833   -0.01660814
     atom   16 type  1   force =    -0.00340367   -0.01344563   -0.02748291
     atom   17 type  1   force =    -0.01262866    0.00766281    0.00738822
     atom   18 type  1   force =     0.00420422   -0.00211432   -0.02289892
     atom   19 type  1   force =    -0.00587342   -0.00032621   -0.01555416
     atom   20 type  1   force =     0.00791126    0.02649594   -0.05039473
     atom   21 type  1   force =     0.00369769   -0.06706633   -0.02020423
     atom   22 type  1   force =     0.00300383   -0.00687527    0.01308446
     atom   23 type  1   force =    -0.01561729   -0.01353325   -0.00553972
     atom   24 type  1   force =    -0.00552488   -0.04772169    0.01105011
     atom   25 type  1   force =     0.01145658    0.04728745   -0.00750304
     atom   26 type  1   force =    -0.00414354    0.02008838    0.02785042
     atom   27 type  1   force =     0.03885832   -0.02197944   -0.02043599
     atom   28 type  1   force =     0.02192748    0.00394158   -0.00884926
     atom   29 type  1   force =     0.00897860    0.02834247    0.00813631
     atom   30 type  1   force =     0.00744797    0.01949433   -0.02293385
     atom   31 type  1   force =     0.01248830    0.00209847   -0.03333982
     atom   32 type  1   force =    -0.02336709    0.01690384    0.03525901
     atom   33 type  1   force =     0.00152213    0.01583229   -0.01879456
     atom   34 type  1   force =    -0.00046594    0.00432773    0.00903452
     atom   35 type  1   force =     0.00987176   -0.00257714   -0.01102171
     atom   36 type  1   force =     0.00295218    0.01488934    0.02324758
     atom   37 type  1   force =     0.02038546    0.00132039   -0.01862301
     atom   38 type  1   force =    -0.01955619   -0.02030634    0.00854730
     atom   39 type  1   force =     0.02777943    0.00682663   -0.01759789
     atom   40 type  1   force =    -0.01192097    0.01300721   -0.01908708
     atom   41 type  1   force =    -0.00063904    0.00522593    0.01089703
     atom   42 type  1   force =    -0.01546887   -0.00080557   -0.02758187
     atom   43 type  1   force =     0.02512651   -0.03126418   -0.00662270
     atom   44 type  1   force =    -0.02434128    0.00935988    0.01282057
     atom   45 type  1   force =    -0.00905245   -0.03162289   -0.01315348
     atom   46 type  1   force =    -0.02203374   -0.02013094    0.02066667
     atom   47 type  1   force =    -0.00452361   -0.02701810    0.01878239
     atom   48 type  1   force =    -0.01760903   -0.04986390    0.01123299
     atom   49 type  1   force =    -0.01849195    0.00784293    0.04548764
     atom   50 type  1   force =    -0.00362897    0.00978785   -0.01706870
     atom   51 type  1   force =     0.00740755    0.02233822    0.03719552
     atom   52 type  1   force =    -0.00126027    0.01237894    0.01095246
     atom   53 type  1   force =     0.00359165    0.01492512    0.01682375
     atom   54 type  1   force =    -0.00560482    0.01736422    0.00776340
     atom   55 type  1   force =     0.01346565   -0.01087761    0.03013940
     atom   56 type  1   force =    -0.01074592   -0.01385148   -0.01044820
     atom   57 type  1   force =    -0.00055793   -0.00346234    0.01801137
     atom   58 type  1   force =     0.00120410   -0.01763617    0.06135797
     atom   59 type  1   force =     0.01320984    0.00415638    0.02797075
     atom   60 type  1   force =    -0.01570521   -0.02905257    0.01754906
     atom   61 type  1   force =     0.01491580    0.02478679    0.01190567
     atom   62 type  1   force =     0.00522778   -0.05448952    0.02219288
     atom   63 type  1   force =     0.02858704    0.01587468   -0.01544382
     atom   64 type  1   force =    -0.00448072   -0.02224271    0.01986845

     Total force =     0.285646     Total SCF correction =     0.001716


     Computing stress (Cartesian axis) and pressure

          total   stress  (Ry/bohr**3)                   (kbar)     P=      -23.31
  -0.00014803   0.00000719  -0.00005390          -21.78        1.06       -7.93
   0.00000719  -0.00012649  -0.00000009            1.06      -18.61       -0.01
  -0.00005390  -0.00000009  -0.00020084           -7.93       -0.01      -29.54

 
     init_run     :      0.76s CPU      4.01s WALL (       1 calls)
     electrons    :      1.11s CPU      1.27s WALL (       1 calls)
     forces       :      0.04s CPU      0.04s WALL (       1 calls)
     stress       :      0.15s CPU      0.16s WALL (       1 calls)

     Called by init_run:
     wfcinit      :      0.42s CPU      3.51s WALL (       1 calls)
                                        3.51s GPU  (       1 calls)
     potinit      :      0.15s CPU      0.22s WALL (       1 calls)
     hinit0       :      0.17s CPU      0.20s WALL (       1 calls)

     Called by electrons:
     c_bands      :      0.79s CPU      0.89s WALL (      10 calls)
     sum_band     :      0.18s CPU      0.22s WALL (      10 calls)
     v_of_rho     :      0.08s CPU      0.15s WALL (      10 calls)
     mix_rho      :      0.05s CPU      0.07s WALL (      10 calls)

     Called by c_bands:
     init_us_2    :      0.03s CPU      0.03s WALL (      21 calls)
     init_us_2:gp :      0.02s CPU      0.03s WALL (      21 calls)
     regterg      :      0.72s CPU      0.81s WALL (      10 calls)

     Called by *egterg:
     rdiaghg      :      0.28s CPU      0.93s WALL (      60 calls)
                                        0.92s GPU  (      60 calls)
     h_psi        :      0.74s CPU      3.23s WALL (      62 calls)
                                        3.23s GPU  (      62 calls)
     g_psi        :      0.00s CPU      0.00s WALL (      51 calls)
                                        0.00s GPU  (      51 calls)

     Called by h_psi:
     h_psi:calbec :      0.37s CPU      2.80s WALL (      62 calls)
                                        2.80s GPU  (      62 calls)
     vloc_psi     :      0.33s CPU      0.39s WALL (      62 calls)
                                        0.39s GPU  (      62 calls)
     add_vuspsi   :      0.02s CPU      0.03s WALL (      62 calls)
                                        0.03s GPU  (      62 calls)

     General routines
     calbec       :      0.38s CPU      2.81s WALL (      67 calls)
     fft          :      0.19s CPU      0.29s WALL (      87 calls)
                                        0.09s GPU  (      56 calls)
     ffts         :      0.02s CPU      0.02s WALL (      10 calls)
     fftw         :      0.37s CPU      0.48s WALL (    1102 calls)
                                        0.44s GPU  (    1102 calls)
 
     Parallel routines
 
     PWSCF        :      2.10s CPU      5.55s WALL

 
   This run was terminated on:  11:14:54  10May2023            

=------------------------------------------------------------------------------=
   JOB DONE.
=------------------------------------------------------------------------------=
