
     Program PWSCF v.7.0 starts on  8Jul2023 at 21:59:57 

     This program is part of the open-source Quantum ESPRESSO suite
     for quantum simulation of materials; please cite
         "P. Giannozzi et al., J. Phys.:Condens. Matter 21 395502 (2009);
         "P. Giannozzi et al., J. Phys.:Condens. Matter 29 465901 (2017);
         "P. Giannozzi et al., J. Chem. Phys. 152 154105 (2020);
          URL http://www.quantum-espresso.org", 
     in publications or presentations arising from this work. More details at
     http://www.quantum-espresso.org/quote

     Parallel version (MPI & OpenMP), running on       1 processor cores
     Number of MPI processes:                 1
     Threads/MPI process:                     1

     MPI processes distributed on     1 nodes
     109282 MiB available memory on the printing compute node when the environment starts
 
     Reading input from pw-si-67.in
Warning: card &CELL ignored
Warning: card / ignored

     Current dimensions of program PWSCF are:
     Max number of different atomic species (ntypx) = 10
     Max number of k-points (npk) =  40000
     Max angular momentum in pseudopotentials (lmaxx) =  4

     IMPORTANT: XC functional enforced from input :
     Exchange-correlation= PBE
                           (   1   4   3   4   0   0   0)
     Any further DFT definition will be discarded
     Please, verify this is what you really want


     gamma-point specific algorithms are used

     Subspace diagonalization in iterative solution of the eigenvalue problem:
     a serial algorithm will be used

 
     G-vector sticks info
     --------------------
     sticks:   dense  smooth     PW     G-vecs:    dense   smooth      PW
     Sum        4005    4005   1001               195145   195145   24381
 
     Using Slab Decomposition
 


     bravais-lattice index     =            0
     lattice parameter (alat)  =      20.4375  a.u.
     unit-cell volume          =    8792.4115 (a.u.)^3
     number of atoms/cell      =           64
     number of atomic types    =            1
     number of electrons       =       256.00
     number of Kohn-Sham states=          128
     kinetic-energy cutoff     =      30.0000  Ry
     charge density cutoff     =     120.0000  Ry
     scf convergence threshold =      1.0E-06
     mixing beta               =       0.5000
     number of iterations used =            8  plain     mixing
     Exchange-correlation= PBE
                           (   1   4   3   4   0   0   0)

     GPU acceleration is ACTIVE.


     celldm(1)=  20.437453  celldm(2)=   0.000000  celldm(3)=   0.000000
     celldm(4)=   0.000000  celldm(5)=   0.000000  celldm(6)=   0.000000

     crystal axes: (cart. coord. in units of alat)
               a(1) = (   1.000000   0.000000   0.000000 )  
               a(2) = (   0.000000   1.006372   0.000000 )  
               a(3) = (   0.000000   0.000000   1.023455 )  

     reciprocal axes: (cart. coord. in units 2 pi/alat)
               b(1) = (  1.000000  0.000000  0.000000 )  
               b(2) = (  0.000000  0.993668  0.000000 )  
               b(3) = (  0.000000  0.000000  0.977082 )  


     PseudoPot. # 1 for Si read from file:
     ./Si_ONCV_PBE-1.0.upf
     MD5 check sum: 2de5a83d12544a9ea852f39b88f19b1f
     Pseudo is Norm-conserving, Zval =  4.0
     Generated using ONCVPSP code by D. R. Hamann
     Using radial grid of  602 points,  4 beta functions with: 
                l(1) =   0
                l(2) =   0
                l(3) =   1
                l(4) =   1

     atomic species   valence    mass     pseudopotential
        Si             4.00    28.08500     Si( 1.00)

     No symmetry found



   Cartesian axes

     site n.     atom                  positions (alat units)
         1           Si  tau(   1) = (   0.3816284   0.3788745   0.1306221  )
         2           Si  tau(   2) = (  -0.0000413   0.2483954   0.2512684  )
         3           Si  tau(   3) = (   0.3851095   0.1223700   0.3859734  )
         4           Si  tau(   4) = (  -0.0011093  -0.0026060   0.0031068  )
         5           Si  tau(   5) = (   0.1246152   0.3758928   0.3836505  )
         6           Si  tau(   6) = (   0.2570714   0.2510118   0.0000926  )
         7           Si  tau(   7) = (   0.1243862   0.1284268   0.1276772  )
         8           Si  tau(   8) = (   0.2543430  -0.0022203   0.2586481  )
         9           Si  tau(   9) = (   0.3826081   0.3735532   0.6365131  )
        10           Si  tau(  10) = (  -0.0021551   0.2544922   0.7635459  )
        11           Si  tau(  11) = (   0.3824628   0.1224221   0.8996702  )
        12           Si  tau(  12) = (  -0.0005057  -0.0021810   0.5093850  )
        13           Si  tau(  13) = (   0.1263696   0.3752752   0.8970394  )
        14           Si  tau(  14) = (   0.2535578   0.2513274   0.5106710  )
        15           Si  tau(  15) = (   0.1289361   0.1287221   0.6431522  )
        16           Si  tau(  16) = (   0.2581583  -0.0044687   0.7639074  )
        17           Si  tau(  17) = (   0.3790127   0.8811038   0.1276355  )
        18           Si  tau(  18) = (   0.0033569   0.7496057   0.2546652  )
        19           Si  tau(  19) = (   0.3849462   0.6292452   0.3846181  )
        20           Si  tau(  20) = (   0.0015715   0.5027442   0.0031072  )
        21           Si  tau(  21) = (   0.1260628   0.8788189   0.3795488  )
        22           Si  tau(  22) = (   0.2546515   0.7551411   0.0038012  )
        23           Si  tau(  23) = (   0.1238908   0.6311671   0.1249478  )
        24           Si  tau(  24) = (   0.2490597   0.5053677   0.2533066  )
        25           Si  tau(  25) = (   0.3809581   0.8771186   0.6408917  )
        26           Si  tau(  26) = (   0.0037421   0.7503555   0.7717794  )
        27           Si  tau(  27) = (   0.3779525   0.6303921   0.8962070  )
        28           Si  tau(  28) = (   0.0010015   0.5024100   0.5103782  )
        29           Si  tau(  29) = (   0.1222940   0.8805049   0.8983262  )
        30           Si  tau(  30) = (   0.2494101   0.7525164   0.5129572  )
        31           Si  tau(  31) = (   0.1311468   0.6262814   0.6442167  )
        32           Si  tau(  32) = (   0.2566739   0.4995697   0.7700296  )
        33           Si  tau(  33) = (   0.8893094   0.3791143   0.1312061  )
        34           Si  tau(  34) = (   0.5038637   0.2475752   0.2595972  )
        35           Si  tau(  35) = (   0.8900546   0.1275772   0.3800810  )
        36           Si  tau(  36) = (   0.5069203   0.0030407   0.0018298  )
        37           Si  tau(  37) = (   0.6314438   0.3753707   0.3824436  )
        38           Si  tau(  38) = (   0.7613389   0.2540487  -0.0034978  )
        39           Si  tau(  39) = (   0.6367724   0.1276760   0.1305849  )
        40           Si  tau(  40) = (   0.7570366  -0.0022376   0.2582036  )
        41           Si  tau(  41) = (   0.8870886   0.3757772   0.6371237  )
        42           Si  tau(  42) = (   0.5091950   0.2497635   0.7694064  )
        43           Si  tau(  43) = (   0.8907640   0.1245106   0.8940372  )
        44           Si  tau(  44) = (   0.5091146   0.0031266   0.5122382  )
        45           Si  tau(  45) = (   0.6355228   0.3772377   0.8979523  )
        46           Si  tau(  46) = (   0.7622288   0.2531130   0.5145450  )
        47           Si  tau(  47) = (   0.6303682   0.1240086   0.6433259  )
        48           Si  tau(  48) = (   0.7588310   0.0002806   0.7664026  )
        49           Si  tau(  49) = (   0.8857589   0.8782665   0.1273684  )
        50           Si  tau(  50) = (   0.5114954   0.7548766   0.2555429  )
        51           Si  tau(  51) = (   0.8909782   0.6311913   0.3825027  )
        52           Si  tau(  52) = (   0.5084415   0.4983283   0.0041865  )
        53           Si  tau(  53) = (   0.6380680   0.8817140   0.3805783  )
        54           Si  tau(  54) = (   0.7613270   0.7539842  -0.0019691  )
        55           Si  tau(  55) = (   0.6372661   0.6265689   0.1314331  )
        56           Si  tau(  56) = (   0.7624713   0.5066963   0.2541217  )
        57           Si  tau(  57) = (   0.8842611   0.8828669   0.6382867  )
        58           Si  tau(  58) = (   0.5066236   0.7544277   0.7703087  )
        59           Si  tau(  59) = (   0.8910434   0.6305219   0.8927608  )
        60           Si  tau(  60) = (   0.5104977   0.5019922   0.5162368  )
        61           Si  tau(  61) = (   0.6315794   0.8753927   0.8958683  )
        62           Si  tau(  62) = (   0.7602019   0.7532676   0.5148933  )
        63           Si  tau(  63) = (   0.6308251   0.6266427   0.6414664  )
        64           Si  tau(  64) = (   0.7639232   0.4982789   0.7703939  )

     number of k points=     1
                       cart. coord. in units 2pi/alat
        k(    1) = (   0.0000000   0.0000000   0.0000000), wk =   2.0000000

     Dense  grid:    97573 G-vectors     FFT dimensions: (  72,  72,  75)

     Estimated max dynamical RAM per process >     283.95 MB

     Initial potential from superposition of free atoms

     starting charge     253.0416, renormalised to     256.0000
     Starting wfcs are random

     total cpu time spent up to now is        1.4 secs

     Self-consistent Calculation

     iteration #  1     ecut=    30.00 Ry     beta= 0.50
     Davidson diagonalization with overlap
     ethr =  1.00E-02,  avg # of iterations = 11.0

     Threshold (ethr) on eigenvalues was too large:
     Diagonalizing with lowered threshold

     Davidson diagonalization with overlap
     ethr =  6.19E-04,  avg # of iterations = 11.0

     total cpu time spent up to now is        1.8 secs

     total energy              =    -503.77119349 Ry
     estimated scf accuracy    <       1.86390393 Ry

     iteration #  2     ecut=    30.00 Ry     beta= 0.50
     Davidson diagonalization with overlap
     ethr =  7.28E-04,  avg # of iterations =  1.0

     total cpu time spent up to now is        1.9 secs

     total energy              =    -503.76587231 Ry
     estimated scf accuracy    <       0.34236509 Ry

     iteration #  3     ecut=    30.00 Ry     beta= 0.50
     Davidson diagonalization with overlap
     ethr =  1.34E-04,  avg # of iterations =  2.0

     total cpu time spent up to now is        2.0 secs

     total energy              =    -503.79123010 Ry
     estimated scf accuracy    <       0.00513871 Ry

     iteration #  4     ecut=    30.00 Ry     beta= 0.50
     Davidson diagonalization with overlap
     ethr =  2.01E-06,  avg # of iterations = 12.0

     total cpu time spent up to now is        2.2 secs

     total energy              =    -503.79940727 Ry
     estimated scf accuracy    <       0.00233538 Ry

     iteration #  5     ecut=    30.00 Ry     beta= 0.50
     Davidson diagonalization with overlap
     ethr =  9.12E-07,  avg # of iterations =  3.0

     total cpu time spent up to now is        2.4 secs

     total energy              =    -503.79989847 Ry
     estimated scf accuracy    <       0.00057978 Ry

     iteration #  6     ecut=    30.00 Ry     beta= 0.50
     Davidson diagonalization with overlap
     ethr =  2.26E-07,  avg # of iterations =  3.0

     total cpu time spent up to now is        2.5 secs

     total energy              =    -503.79994036 Ry
     estimated scf accuracy    <       0.00008784 Ry

     iteration #  7     ecut=    30.00 Ry     beta= 0.50
     Davidson diagonalization with overlap
     ethr =  3.43E-08,  avg # of iterations =  8.0

     total cpu time spent up to now is        2.7 secs

     total energy              =    -503.79996500 Ry
     estimated scf accuracy    <       0.00004807 Ry

     iteration #  8     ecut=    30.00 Ry     beta= 0.50
     Davidson diagonalization with overlap
     ethr =  1.88E-08,  avg # of iterations =  3.0

     total cpu time spent up to now is        2.8 secs

     total energy              =    -503.79997318 Ry
     estimated scf accuracy    <       0.00000324 Ry

     iteration #  9     ecut=    30.00 Ry     beta= 0.50
     Davidson diagonalization with overlap
     ethr =  1.26E-09,  avg # of iterations = 11.0

     total cpu time spent up to now is        3.0 secs

     total energy              =    -503.79997320 Ry
     estimated scf accuracy    <       0.00000838 Ry

     iteration # 10     ecut=    30.00 Ry     beta= 0.50
     Davidson diagonalization with overlap
     ethr =  1.26E-09,  avg # of iterations =  3.0

     total cpu time spent up to now is        3.1 secs

     End of self-consistent calculation

          k = 0.0000 0.0000 0.0000 ( 12191 PWs)   bands (ev):

    -5.7960  -4.8273  -4.7751  -4.7535  -4.7078  -4.6795  -4.5704  -4.0097
    -3.9160  -3.8780  -3.8433  -3.7951  -3.7632  -3.7304  -3.6927  -3.6805
    -3.6574  -3.6051  -3.5666  -3.5044  -3.4542  -3.3935  -3.3658  -1.9733
    -1.8428  -1.7023  -1.6706  -1.6509  -1.6133  -1.5904  -1.5732  -1.5482
    -1.5340  -1.5167  -1.4976  -1.4737  -1.4493  -1.4325  -1.4171  -1.4145
    -1.3647  -0.8722  -0.8283  -0.8105  -0.6779   0.4788   0.5210   0.5759
     0.5840   0.5986   0.6214   0.6444   0.6761   0.6999   0.7294   0.7457
     0.7663   2.0940   2.1188   2.1433   2.1772   2.2265   2.2385   2.2678
     2.2891   2.3103   2.3130   2.3303   2.3359   2.3760   2.3873   2.3977
     2.4028   2.4317   2.4425   2.4596   2.4777   2.4845   2.4900   2.5162
     2.5219   2.5471   2.5756   2.6199   2.6496   2.6758   2.6976   3.1198
     3.2213   3.2609   3.2804   3.4017   3.4122   4.0026   4.1121   4.1587
     4.1927   4.2159   4.2417   4.2537   4.2801   4.2932   4.3180   4.3636
     4.3637   4.3860   4.6676   4.7061   4.7226   4.7710   4.7887   4.7993
     4.8196   4.8458   4.8532   4.8820   4.9087   4.9156   4.9430   4.9702
     4.9869   5.0060   5.0407   5.0878   5.1305   6.0021   6.1770   6.1892

     highest occupied level (ev):     6.1892

!    total energy              =    -503.79997462 Ry
     estimated scf accuracy    <       0.00000022 Ry

     The total energy is the sum of the following terms:
     one-electron contribution =     146.94802444 Ry
     hartree contribution      =      37.02411366 Ry
     xc contribution           =    -153.94339204 Ry
     ewald contribution        =    -533.82872068 Ry

     convergence has been achieved in  10 iterations

     Forces acting on atoms (cartesian axes, Ry/au):

     atom    1 type  1   force =    -0.01527009   -0.01649426    0.00562697
     atom    2 type  1   force =     0.04865314    0.02386017    0.01922156
     atom    3 type  1   force =    -0.03641897    0.00587207    0.00116249
     atom    4 type  1   force =     0.04448031    0.01921618   -0.00749570
     atom    5 type  1   force =     0.01134496   -0.00195175   -0.01291587
     atom    6 type  1   force =    -0.01000913    0.00102833    0.00532922
     atom    7 type  1   force =     0.03430017   -0.02594702   -0.00641555
     atom    8 type  1   force =    -0.00133583    0.01691578   -0.01289462
     atom    9 type  1   force =    -0.00191250    0.00656684    0.02143004
     atom   10 type  1   force =     0.06209048   -0.01741158    0.02737843
     atom   11 type  1   force =    -0.00967256    0.00929846   -0.02898981
     atom   12 type  1   force =     0.05572632    0.01862214    0.00218964
     atom   13 type  1   force =     0.00610411    0.00282142   -0.00358057
     atom   14 type  1   force =     0.00491011   -0.00741101   -0.00506069
     atom   15 type  1   force =     0.00009051   -0.02243662   -0.02016148
     atom   16 type  1   force =    -0.02379999    0.01791952    0.03466515
     atom   17 type  1   force =     0.01893205    0.00021972    0.01104949
     atom   18 type  1   force =     0.02809688    0.03781004   -0.01360528
     atom   19 type  1   force =    -0.01865404   -0.00527190    0.00247629
     atom   20 type  1   force =     0.03566686    0.00420197   -0.02465256
     atom   21 type  1   force =     0.00318425   -0.00504291    0.02239655
     atom   22 type  1   force =    -0.01369154    0.00650046   -0.02089187
     atom   23 type  1   force =     0.02665276   -0.01354494    0.00494481
     atom   24 type  1   force =     0.01922509   -0.00067237    0.01626624
     atom   25 type  1   force =     0.00774391    0.00133346   -0.02603301
     atom   26 type  1   force =     0.03603900    0.04411118   -0.04834117
     atom   27 type  1   force =     0.01712180   -0.01774545    0.01619810
     atom   28 type  1   force =     0.04672816    0.00769749    0.01264713
     atom   29 type  1   force =     0.03898692   -0.00178115   -0.00687174
     atom   30 type  1   force =     0.02464301    0.00478603   -0.01056512
     atom   31 type  1   force =    -0.01113660   -0.00883945   -0.01063355
     atom   32 type  1   force =     0.00096572   -0.00527833   -0.00545025
     atom   33 type  1   force =    -0.06001541   -0.00347001   -0.02008476
     atom   34 type  1   force =     0.01474711    0.01609126   -0.01970554
     atom   35 type  1   force =    -0.06495071   -0.01786813    0.02405141
     atom   36 type  1   force =     0.01773201   -0.02297180    0.00899980
     atom   37 type  1   force =     0.01832755    0.01187286    0.00928188
     atom   38 type  1   force =     0.01403957   -0.01469831    0.02414577
     atom   39 type  1   force =    -0.01139312    0.00046404   -0.01079777
     atom   40 type  1   force =     0.03489534    0.02078443   -0.02195561
     atom   41 type  1   force =    -0.04522345    0.02320834   -0.00183491
     atom   42 type  1   force =    -0.01515166    0.00647321    0.00821722
     atom   43 type  1   force =    -0.05682945    0.00346734    0.00022307
     atom   44 type  1   force =     0.00262191   -0.03866504    0.00555249
     atom   45 type  1   force =    -0.01279723   -0.00132977   -0.01153138
     atom   46 type  1   force =    -0.02330616   -0.02265905   -0.02216024
     atom   47 type  1   force =     0.02457357    0.01508736   -0.01411076
     atom   48 type  1   force =    -0.00329249   -0.01041175    0.01815775
     atom   49 type  1   force =    -0.04625868   -0.00529619    0.01986177
     atom   50 type  1   force =    -0.01442513    0.00528820   -0.00191267
     atom   51 type  1   force =    -0.06393325   -0.01446598    0.02240546
     atom   52 type  1   force =    -0.00037067    0.03112602   -0.01289093
     atom   53 type  1   force =    -0.02689824   -0.01632084    0.03854996
     atom   54 type  1   force =    -0.00624346   -0.01204403    0.00365751
     atom   55 type  1   force =    -0.01288990    0.01351793   -0.02926955
     atom   56 type  1   force =    -0.00131596   -0.02466735    0.02981538
     atom   57 type  1   force =    -0.02005991   -0.02708162    0.02283291
     atom   58 type  1   force =    -0.00747391   -0.01301417   -0.01059392
     atom   59 type  1   force =    -0.06405441   -0.03615246    0.03386975
     atom   60 type  1   force =    -0.01560623   -0.00589804   -0.02778007
     atom   61 type  1   force =     0.00832496    0.03325037    0.00707210
     atom   62 type  1   force =    -0.00501886    0.00141132   -0.01647304
     atom   63 type  1   force =     0.02560825    0.00316072    0.01815923
     atom   64 type  1   force =    -0.01314722    0.02285864   -0.01217559

     Total force =     0.310806     Total SCF correction =     0.000801


     Computing stress (Cartesian axis) and pressure

          total   stress  (Ry/bohr**3)                   (kbar)     P=       17.51
   0.00016313   0.00001204  -0.00001839           24.00        1.77       -2.70
   0.00001204   0.00015181  -0.00005474            1.77       22.33       -8.05
  -0.00001839  -0.00005474   0.00004220           -2.70       -8.05        6.21

 
     init_run     :      0.95s CPU      1.38s WALL (       1 calls)
     electrons    :      1.68s CPU      1.72s WALL (       1 calls)
     forces       :      0.06s CPU      0.06s WALL (       1 calls)
     stress       :      0.23s CPU      0.23s WALL (       1 calls)

     Called by init_run:
     wfcinit      :      0.57s CPU      0.89s WALL (       1 calls)
                                        0.89s GPU  (       1 calls)
     potinit      :      0.22s CPU      0.27s WALL (       1 calls)
     hinit0       :      0.11s CPU      0.12s WALL (       1 calls)

     Called by electrons:
     c_bands      :      1.07s CPU      1.08s WALL (      11 calls)
     sum_band     :      0.23s CPU      0.24s WALL (      11 calls)
     v_of_rho     :      0.16s CPU      0.22s WALL (      11 calls)
     mix_rho      :      0.21s CPU      0.22s WALL (      11 calls)

     Called by c_bands:
     init_us_2    :      0.04s CPU      0.04s WALL (      23 calls)
     init_us_2:gp :      0.04s CPU      0.04s WALL (      23 calls)
     regterg      :      0.95s CPU      0.96s WALL (      11 calls)

     Called by *egterg:
     rdiaghg      :      0.34s CPU      0.40s WALL (      78 calls)
                                        0.39s GPU  (      78 calls)
     h_psi        :      0.99s CPU      1.26s WALL (      80 calls)
                                        1.25s GPU  (      80 calls)
     g_psi        :      0.00s CPU      0.00s WALL (      68 calls)
                                        0.00s GPU  (      68 calls)

     Called by h_psi:
     h_psi:calbec :      0.45s CPU      0.74s WALL (      80 calls)
                                        0.74s GPU  (      80 calls)
     vloc_psi     :      0.44s CPU      0.44s WALL (      80 calls)
                                        0.44s GPU  (      80 calls)
     add_vuspsi   :      0.04s CPU      0.07s WALL (      80 calls)
                                        0.07s GPU  (      80 calls)

     General routines
     calbec       :      0.45s CPU      0.71s WALL (      85 calls)
     fft          :      0.16s CPU      0.17s WALL (      95 calls)
                                        0.03s GPU  (      59 calls)
     ffts         :      0.04s CPU      0.04s WALL (      11 calls)
     fftw         :      0.03s CPU      0.49s WALL (    1084 calls)
                                        0.40s GPU  (    1084 calls)
 
     Parallel routines
 
     PWSCF        :      2.95s CPU      3.45s WALL

 
   This run was terminated on:  22: 0: 0   8Jul2023            

=------------------------------------------------------------------------------=
   JOB DONE.
=------------------------------------------------------------------------------=
