
     Program PWSCF v.7.0 starts on  8Jul2023 at 22: 2: 0 

     This program is part of the open-source Quantum ESPRESSO suite
     for quantum simulation of materials; please cite
         "P. Giannozzi et al., J. Phys.:Condens. Matter 21 395502 (2009);
         "P. Giannozzi et al., J. Phys.:Condens. Matter 29 465901 (2017);
         "P. Giannozzi et al., J. Chem. Phys. 152 154105 (2020);
          URL http://www.quantum-espresso.org", 
     in publications or presentations arising from this work. More details at
     http://www.quantum-espresso.org/quote

     Parallel version (MPI & OpenMP), running on       1 processor cores
     Number of MPI processes:                 1
     Threads/MPI process:                     1

     MPI processes distributed on     1 nodes
     109265 MiB available memory on the printing compute node when the environment starts
 
     Reading input from pw-si-95.in
Warning: card &CELL ignored
Warning: card / ignored

     Current dimensions of program PWSCF are:
     Max number of different atomic species (ntypx) = 10
     Max number of k-points (npk) =  40000
     Max angular momentum in pseudopotentials (lmaxx) =  4

     IMPORTANT: XC functional enforced from input :
     Exchange-correlation= PBE
                           (   1   4   3   4   0   0   0)
     Any further DFT definition will be discarded
     Please, verify this is what you really want


     gamma-point specific algorithms are used

     Subspace diagonalization in iterative solution of the eigenvalue problem:
     a serial algorithm will be used

 
     G-vector sticks info
     --------------------
     sticks:   dense  smooth     PW     G-vecs:    dense   smooth      PW
     Sum        4075    4075   1019               199295   199295   24943
 
     Using Slab Decomposition
 


     bravais-lattice index     =            0
     lattice parameter (alat)  =      20.7728  a.u.
     unit-cell volume          =    8976.8670 (a.u.)^3
     number of atoms/cell      =           64
     number of atomic types    =            1
     number of electrons       =       256.00
     number of Kohn-Sham states=          128
     kinetic-energy cutoff     =      30.0000  Ry
     charge density cutoff     =     120.0000  Ry
     scf convergence threshold =      1.0E-06
     mixing beta               =       0.5000
     number of iterations used =            8  plain     mixing
     Exchange-correlation= PBE
                           (   1   4   3   4   0   0   0)

     GPU acceleration is ACTIVE.


     celldm(1)=  20.772819  celldm(2)=   0.000000  celldm(3)=   0.000000
     celldm(4)=   0.000000  celldm(5)=   0.000000  celldm(6)=   0.000000

     crystal axes: (cart. coord. in units of alat)
               a(1) = (   1.000000   0.000000   0.000000 )  
               a(2) = (   0.000000   0.991446   0.000000 )  
               a(3) = (   0.000000   0.000000   1.010112 )  

     reciprocal axes: (cart. coord. in units 2 pi/alat)
               b(1) = (  1.000000  0.000000  0.000000 )  
               b(2) = (  0.000000  1.008628  0.000000 )  
               b(3) = (  0.000000  0.000000  0.989990 )  


     PseudoPot. # 1 for Si read from file:
     ./Si_ONCV_PBE-1.0.upf
     MD5 check sum: 2de5a83d12544a9ea852f39b88f19b1f
     Pseudo is Norm-conserving, Zval =  4.0
     Generated using ONCVPSP code by D. R. Hamann
     Using radial grid of  602 points,  4 beta functions with: 
                l(1) =   0
                l(2) =   0
                l(3) =   1
                l(4) =   1

     atomic species   valence    mass     pseudopotential
        Si             4.00    28.08500     Si( 1.00)

     No symmetry found



   Cartesian axes

     site n.     atom                  positions (alat units)
         1           Si  tau(   1) = (   0.3763785   0.3706807   0.1284881  )
         2           Si  tau(   2) = (   0.0036676   0.2531068   0.2493423  )
         3           Si  tau(   3) = (   0.3807727   0.1280906   0.3750608  )
         4           Si  tau(   4) = (  -0.0044489   0.0044137   0.0041558  )
         5           Si  tau(   5) = (   0.1223979   0.3775725   0.3695759  )
         6           Si  tau(   6) = (   0.2540158   0.2457120  -0.0001787  )
         7           Si  tau(   7) = (   0.1212946   0.1207498   0.1258260  )
         8           Si  tau(   8) = (   0.2528538   0.0028572   0.2472810  )
         9           Si  tau(   9) = (   0.3811050   0.3788371   0.6170003  )
        10           Si  tau(  10) = (  -0.0013489   0.2483304   0.7410769  )
        11           Si  tau(  11) = (   0.3733093   0.1281860   0.8721408  )
        12           Si  tau(  12) = (   0.0012992  -0.0018485   0.4950027  )
        13           Si  tau(  13) = (   0.1264449   0.3770083   0.8715757  )
        14           Si  tau(  14) = (   0.2499813   0.2458323   0.4948565  )
        15           Si  tau(  15) = (   0.1284756   0.1209298   0.6226563  )
        16           Si  tau(  16) = (   0.2475833  -0.0040798   0.7439886  )
        17           Si  tau(  17) = (   0.3729251   0.8724875   0.1261325  )
        18           Si  tau(  18) = (  -0.0018372   0.7484513   0.2465540  )
        19           Si  tau(  19) = (   0.3730879   0.6286603   0.3679905  )
        20           Si  tau(  20) = (  -0.0029602   0.5040290  -0.0019147  )
        21           Si  tau(  21) = (   0.1267542   0.8788558   0.3700461  )
        22           Si  tau(  22) = (   0.2510082   0.7544456   0.0038315  )
        23           Si  tau(  23) = (   0.1228154   0.6292844   0.1199304  )
        24           Si  tau(  24) = (   0.2477135   0.4962725   0.2498522  )
        25           Si  tau(  25) = (   0.3754142   0.8728769   0.6208872  )
        26           Si  tau(  26) = (  -0.0045179   0.7461443   0.7400731  )
        27           Si  tau(  27) = (   0.3763756   0.6270551   0.8650152  )
        28           Si  tau(  28) = (   0.0042400   0.4957628   0.4942269  )
        29           Si  tau(  29) = (   0.1231020   0.8776710   0.8713113  )
        30           Si  tau(  30) = (   0.2500441   0.7496793   0.4976354  )
        31           Si  tau(  31) = (   0.1270895   0.6229946   0.6173266  )
        32           Si  tau(  32) = (   0.2503007   0.4957805   0.7399705  )
        33           Si  tau(  33) = (   0.8809431   0.3739320   0.1234046  )
        34           Si  tau(  34) = (   0.5043601   0.2475867   0.2487743  )
        35           Si  tau(  35) = (   0.8768387   0.1285221   0.3690261  )
        36           Si  tau(  36) = (   0.5039893   0.0011690  -0.0040904  )
        37           Si  tau(  37) = (   0.6269271   0.3747726   0.3745108  )
        38           Si  tau(  38) = (   0.7565937   0.2535702  -0.0039027  )
        39           Si  tau(  39) = (   0.6271540   0.1285860   0.1197986  )
        40           Si  tau(  40) = (   0.7557325  -0.0007634   0.2511156  )
        41           Si  tau(  41) = (   0.8779657   0.3740465   0.6242420  )
        42           Si  tau(  42) = (   0.5003245   0.2479461   0.7443905  )
        43           Si  tau(  43) = (   0.8753576   0.1206689   0.8654070  )
        44           Si  tau(  44) = (   0.5026366  -0.0006891   0.4914161  )
        45           Si  tau(  45) = (   0.6242803   0.3778750   0.8699156  )
        46           Si  tau(  46) = (   0.7514274   0.2481347   0.4976015  )
        47           Si  tau(  47) = (   0.6280143   0.1247675   0.6221500  )
        48           Si  tau(  48) = (   0.7503275  -0.0018730   0.7429397  )
        49           Si  tau(  49) = (   0.8784135   0.8718027   0.1278543  )
        50           Si  tau(  50) = (   0.5014516   0.7527363   0.2437845  )
        51           Si  tau(  51) = (   0.8771199   0.6292480   0.3752238  )
        52           Si  tau(  52) = (   0.5016074   0.4995288   0.0018531  )
        53           Si  tau(  53) = (   0.6324076   0.8712015   0.3684702  )
        54           Si  tau(  54) = (   0.7525593   0.7519944   0.0008359  )
        55           Si  tau(  55) = (   0.6254656   0.6219390   0.1228127  )
        56           Si  tau(  56) = (   0.7500354   0.4970500   0.2459682  )
        57           Si  tau(  57) = (   0.8826906   0.8772009   0.6219497  )
        58           Si  tau(  58) = (   0.5065479   0.7511153   0.7394493  )
        59           Si  tau(  59) = (   0.8837608   0.6254392   0.8657261  )
        60           Si  tau(  60) = (   0.5031996   0.4958614   0.4950885  )
        61           Si  tau(  61) = (   0.6242667   0.8712996   0.8694541  )
        62           Si  tau(  62) = (   0.7497729   0.7501846   0.4923444  )
        63           Si  tau(  63) = (   0.6257535   0.6219188   0.6173253  )
        64           Si  tau(  64) = (   0.7503638   0.4986887   0.7446959  )

     number of k points=     1
                       cart. coord. in units 2pi/alat
        k(    1) = (   0.0000000   0.0000000   0.0000000), wk =   2.0000000

     Dense  grid:    99648 G-vectors     FFT dimensions: (  75,  72,  75)

     Estimated max dynamical RAM per process >     290.41 MB

     Initial potential from superposition of free atoms

     starting charge     253.0416, renormalised to     256.0000
     Starting wfcs are random

     total cpu time spent up to now is        1.4 secs

     Self-consistent Calculation

     iteration #  1     ecut=    30.00 Ry     beta= 0.50
     Davidson diagonalization with overlap
     ethr =  1.00E-02,  avg # of iterations = 12.0

     Threshold (ethr) on eigenvalues was too large:
     Diagonalizing with lowered threshold

     Davidson diagonalization with overlap
     ethr =  6.20E-04,  avg # of iterations = 10.0

     total cpu time spent up to now is        1.9 secs

     total energy              =    -503.72981925 Ry
     estimated scf accuracy    <       1.79661678 Ry

     iteration #  2     ecut=    30.00 Ry     beta= 0.50
     Davidson diagonalization with overlap
     ethr =  7.02E-04,  avg # of iterations =  1.0

     total cpu time spent up to now is        2.0 secs

     total energy              =    -503.72642874 Ry
     estimated scf accuracy    <       0.33409199 Ry

     iteration #  3     ecut=    30.00 Ry     beta= 0.50
     Davidson diagonalization with overlap
     ethr =  1.31E-04,  avg # of iterations =  2.0

     total cpu time spent up to now is        2.1 secs

     total energy              =    -503.75064511 Ry
     estimated scf accuracy    <       0.00531575 Ry

     iteration #  4     ecut=    30.00 Ry     beta= 0.50
     Davidson diagonalization with overlap
     ethr =  2.08E-06,  avg # of iterations = 13.0

     total cpu time spent up to now is        2.3 secs

     total energy              =    -503.75861239 Ry
     estimated scf accuracy    <       0.00401641 Ry

     iteration #  5     ecut=    30.00 Ry     beta= 0.50
     Davidson diagonalization with overlap
     ethr =  1.57E-06,  avg # of iterations =  3.0

     total cpu time spent up to now is        2.5 secs

     total energy              =    -503.75953239 Ry
     estimated scf accuracy    <       0.00086048 Ry

     iteration #  6     ecut=    30.00 Ry     beta= 0.50
     Davidson diagonalization with overlap
     ethr =  3.36E-07,  avg # of iterations =  2.0

     total cpu time spent up to now is        2.6 secs

     total energy              =    -503.75952466 Ry
     estimated scf accuracy    <       0.00021742 Ry

     iteration #  7     ecut=    30.00 Ry     beta= 0.50
     Davidson diagonalization with overlap
     ethr =  8.49E-08,  avg # of iterations =  6.0

     total cpu time spent up to now is        2.8 secs

     total energy              =    -503.75958335 Ry
     estimated scf accuracy    <       0.00011573 Ry

     iteration #  8     ecut=    30.00 Ry     beta= 0.50
     Davidson diagonalization with overlap
     ethr =  4.52E-08,  avg # of iterations =  3.0

     total cpu time spent up to now is        3.0 secs

     total energy              =    -503.75960652 Ry
     estimated scf accuracy    <       0.00000293 Ry

     iteration #  9     ecut=    30.00 Ry     beta= 0.50
     Davidson diagonalization with overlap
     ethr =  1.14E-09,  avg # of iterations =  9.0

     total cpu time spent up to now is        3.2 secs

     total energy              =    -503.75960565 Ry
     estimated scf accuracy    <       0.00001569 Ry

     iteration # 10     ecut=    30.00 Ry     beta= 0.50
     Davidson diagonalization with overlap
     ethr =  1.14E-09,  avg # of iterations =  3.0

     total cpu time spent up to now is        3.3 secs

     End of self-consistent calculation

          k = 0.0000 0.0000 0.0000 ( 12472 PWs)   bands (ev):

    -5.8913  -4.9602  -4.8881  -4.8662  -4.8207  -4.7531  -4.6825  -4.0906
    -4.0627  -4.0191  -3.9868  -3.9637  -3.9216  -3.8837  -3.8328  -3.7875
    -3.7692  -3.7265  -3.6819  -3.6704  -3.5796  -3.5188  -3.2783  -2.0255
    -1.9736  -1.9531  -1.8994  -1.8244  -1.8050  -1.7711  -1.7587  -1.7510
    -1.7341  -1.7308  -1.6926  -1.6664  -1.6290  -1.5665  -1.4972  -1.4409
    -1.3749  -1.0669  -0.9422  -0.8687  -0.8118   0.3027   0.3472   0.3809
     0.3987   0.4122   0.4269   0.4705   0.4957   0.5060   0.5445   0.5597
     0.6373   1.9965   2.0069   2.0140   2.0387   2.0552   2.0682   2.1008
     2.1136   2.1329   2.1378   2.1443   2.1585   2.1722   2.2074   2.2162
     2.2296   2.2426   2.2655   2.2869   2.3027   2.3152   2.3381   2.3554
     2.3691   2.3890   2.4184   2.5277   2.5600   2.5885   2.6656   3.0120
     3.0460   3.1400   3.1536   3.1817   3.1906   3.8862   3.9504   3.9644
     3.9752   4.0083   4.0303   4.0687   4.1081   4.1268   4.1524   4.1924
     4.2952   4.3346   4.4243   4.4826   4.5122   4.5416   4.5569   4.5760
     4.5890   4.6083   4.6284   4.6410   4.6995   4.7038   4.7269   4.7464
     4.7623   4.8030   4.8330   4.8965   5.3732   5.7565   5.9558   6.0717

     highest occupied level (ev):     6.0717

!    total energy              =    -503.75960663 Ry
     estimated scf accuracy    <       0.00000081 Ry

     The total energy is the sum of the following terms:
     one-electron contribution =     140.96851781 Ry
     hartree contribution      =      38.08561629 Ry
     xc contribution           =    -153.26207288 Ry
     ewald contribution        =    -529.55166786 Ry

     convergence has been achieved in  10 iterations

     Forces acting on atoms (cartesian axes, Ry/au):

     atom    1 type  1   force =     0.00047428    0.00939433   -0.01725190
     atom    2 type  1   force =    -0.00606817   -0.01430189   -0.01516141
     atom    3 type  1   force =    -0.01584768   -0.01231219   -0.02342936
     atom    4 type  1   force =     0.00560479   -0.00280627   -0.07144847
     atom    5 type  1   force =     0.02758994   -0.03002625    0.01896648
     atom    6 type  1   force =    -0.02660439    0.01588489   -0.02468278
     atom    7 type  1   force =     0.02753624    0.03204381   -0.00883377
     atom    8 type  1   force =     0.00275852    0.02818748    0.01425531
     atom    9 type  1   force =    -0.02705779   -0.04233342    0.00947408
     atom   10 type  1   force =     0.03048700   -0.00508557    0.03556833
     atom   11 type  1   force =     0.00797090   -0.02604012    0.01601654
     atom   12 type  1   force =     0.00871299    0.05536288   -0.00599803
     atom   13 type  1   force =    -0.00806004   -0.01890520    0.03252600
     atom   14 type  1   force =     0.00454181    0.03201910    0.01097026
     atom   15 type  1   force =    -0.01817536    0.01277299   -0.01862740
     atom   16 type  1   force =     0.02607970    0.03891685    0.02538087
     atom   17 type  1   force =     0.03063499    0.01280680   -0.02414314
     atom   18 type  1   force =     0.03052920    0.00397502    0.01882313
     atom   19 type  1   force =     0.01635164   -0.02021094    0.01414551
     atom   20 type  1   force =     0.02623047   -0.00806189   -0.04426278
     atom   21 type  1   force =     0.00022360   -0.05137147   -0.00046909
     atom   22 type  1   force =    -0.00868691   -0.01800518   -0.07937430
     atom   23 type  1   force =     0.01100968   -0.02614551    0.01235066
     atom   24 type  1   force =     0.00661895    0.03018225   -0.02807949
     atom   25 type  1   force =     0.01350887   -0.01327032   -0.01287966
     atom   26 type  1   force =     0.05764576    0.01579171    0.01549918
     atom   27 type  1   force =    -0.00174006   -0.00577927    0.05029766
     atom   28 type  1   force =    -0.02897037    0.02625661    0.01828521
     atom   29 type  1   force =    -0.01953222   -0.04017190    0.04954216
     atom   30 type  1   force =    -0.00053693    0.00646058   -0.01508497
     atom   31 type  1   force =    -0.00839882   -0.00510210    0.00711985
     atom   32 type  1   force =     0.00879643    0.02059165    0.02334375
     atom   33 type  1   force =    -0.01683313    0.01063975   -0.00709493
     atom   34 type  1   force =     0.00138219    0.01308358    0.00267167
     atom   35 type  1   force =     0.00475082   -0.00637460    0.02300493
     atom   36 type  1   force =    -0.02400411    0.01357826   -0.02739696
     atom   37 type  1   force =     0.00954901   -0.01480016   -0.01516236
     atom   38 type  1   force =    -0.01526904   -0.01002655   -0.04504961
     atom   39 type  1   force =     0.02276461   -0.01666005    0.00349080
     atom   40 type  1   force =    -0.01389459    0.04210228   -0.03183831
     atom   41 type  1   force =    -0.01462686    0.00392527   -0.02806955
     atom   42 type  1   force =     0.00165866    0.01745866    0.01037320
     atom   43 type  1   force =    -0.00138469    0.02312441    0.05367956
     atom   44 type  1   force =     0.00800722    0.01115119    0.02507285
     atom   45 type  1   force =     0.00332737   -0.01333662    0.04296820
     atom   46 type  1   force =     0.00800206    0.01365800    0.00351760
     atom   47 type  1   force =    -0.01436525   -0.00813096   -0.01329106
     atom   48 type  1   force =     0.00001547    0.01296399    0.01632429
     atom   49 type  1   force =    -0.01886804   -0.00707008   -0.02085246
     atom   50 type  1   force =     0.00730461   -0.02213476    0.01062009
     atom   51 type  1   force =    -0.00540262   -0.04041925   -0.01979163
     atom   52 type  1   force =    -0.02199960   -0.00437514   -0.05623811
     atom   53 type  1   force =    -0.03606023   -0.00628637    0.00373933
     atom   54 type  1   force =    -0.00063344   -0.01984709   -0.05006963
     atom   55 type  1   force =     0.00839096    0.01474464   -0.00480835
     atom   56 type  1   force =     0.01742398    0.01298917    0.01625147
     atom   57 type  1   force =    -0.04971672   -0.03948606   -0.01871635
     atom   58 type  1   force =    -0.02298879   -0.01791781    0.01821138
     atom   59 type  1   force =    -0.05667092   -0.01257826    0.05656497
     atom   60 type  1   force =    -0.01385440    0.04129889   -0.02105959
     atom   61 type  1   force =     0.01776702   -0.00794174    0.04105726
     atom   62 type  1   force =     0.01882346   -0.00163074    0.04075212
     atom   63 type  1   force =     0.01449995    0.00407397   -0.00212626
     atom   64 type  1   force =     0.00927801    0.01350672    0.01042701

     Total force =     0.334661     Total SCF correction =     0.001768


     Computing stress (Cartesian axis) and pressure

          total   stress  (Ry/bohr**3)                   (kbar)     P=        0.05
   0.00001277   0.00001899  -0.00004653            1.88        2.79       -6.84
   0.00001899   0.00005715  -0.00001523            2.79        8.41       -2.24
  -0.00004653  -0.00001523  -0.00006891           -6.84       -2.24      -10.14

 
     init_run     :      0.95s CPU      1.38s WALL (       1 calls)
     electrons    :      1.83s CPU      1.91s WALL (       1 calls)
     forces       :      0.07s CPU      0.07s WALL (       1 calls)
     stress       :      0.24s CPU      0.24s WALL (       1 calls)

     Called by init_run:
     wfcinit      :      0.57s CPU      0.87s WALL (       1 calls)
                                        0.87s GPU  (       1 calls)
     potinit      :      0.22s CPU      0.28s WALL (       1 calls)
     hinit0       :      0.12s CPU      0.12s WALL (       1 calls)

     Called by electrons:
     c_bands      :      1.18s CPU      1.21s WALL (      11 calls)
     sum_band     :      0.24s CPU      0.26s WALL (      11 calls)
     v_of_rho     :      0.17s CPU      0.23s WALL (      11 calls)
     mix_rho      :      0.22s CPU      0.24s WALL (      11 calls)

     Called by c_bands:
     init_us_2    :      0.04s CPU      0.04s WALL (      23 calls)
     init_us_2:gp :      0.04s CPU      0.04s WALL (      23 calls)
     regterg      :      1.07s CPU      1.09s WALL (      11 calls)

     Called by *egterg:
     rdiaghg      :      0.34s CPU      0.39s WALL (      74 calls)
                                        0.39s GPU  (      74 calls)
     h_psi        :      1.09s CPU      1.34s WALL (      76 calls)
                                        1.34s GPU  (      76 calls)
     g_psi        :      0.00s CPU      0.00s WALL (      64 calls)
                                        0.00s GPU  (      64 calls)

     Called by h_psi:
     h_psi:calbec :      0.45s CPU      0.71s WALL (      76 calls)
                                        0.71s GPU  (      76 calls)
     vloc_psi     :      0.54s CPU      0.55s WALL (      76 calls)
                                        0.55s GPU  (      76 calls)
     add_vuspsi   :      0.04s CPU      0.07s WALL (      76 calls)
                                        0.07s GPU  (      76 calls)

     General routines
     calbec       :      0.44s CPU      0.68s WALL (      81 calls)
     fft          :      0.17s CPU      0.18s WALL (      95 calls)
                                        0.03s GPU  (      59 calls)
     ffts         :      0.05s CPU      0.05s WALL (      11 calls)
     fftw         :      0.04s CPU      0.61s WALL (    1076 calls)
                                        0.52s GPU  (    1076 calls)
 
     Parallel routines
 
     PWSCF        :      3.11s CPU      3.66s WALL

 
   This run was terminated on:  22: 2: 4   8Jul2023            

=------------------------------------------------------------------------------=
   JOB DONE.
=------------------------------------------------------------------------------=
