
     Program PWSCF v.7.0 starts on  8Jul2023 at 22: 1:16 

     This program is part of the open-source Quantum ESPRESSO suite
     for quantum simulation of materials; please cite
         "P. Giannozzi et al., J. Phys.:Condens. Matter 21 395502 (2009);
         "P. Giannozzi et al., J. Phys.:Condens. Matter 29 465901 (2017);
         "P. Giannozzi et al., J. Chem. Phys. 152 154105 (2020);
          URL http://www.quantum-espresso.org", 
     in publications or presentations arising from this work. More details at
     http://www.quantum-espresso.org/quote

     Parallel version (MPI & OpenMP), running on       1 processor cores
     Number of MPI processes:                 1
     Threads/MPI process:                     1

     MPI processes distributed on     1 nodes
     109271 MiB available memory on the printing compute node when the environment starts
 
     Reading input from pw-si-85.in
Warning: card &CELL ignored
Warning: card / ignored

     Current dimensions of program PWSCF are:
     Max number of different atomic species (ntypx) = 10
     Max number of k-points (npk) =  40000
     Max angular momentum in pseudopotentials (lmaxx) =  4

     IMPORTANT: XC functional enforced from input :
     Exchange-correlation= PBE
                           (   1   4   3   4   0   0   0)
     Any further DFT definition will be discarded
     Please, verify this is what you really want


     gamma-point specific algorithms are used

     Subspace diagonalization in iterative solution of the eigenvalue problem:
     a serial algorithm will be used

 
     G-vector sticks info
     --------------------
     sticks:   dense  smooth     PW     G-vecs:    dense   smooth      PW
     Sum        4123    4123   1027               196249   196249   24505
 
     Using Slab Decomposition
 


     bravais-lattice index     =            0
     lattice parameter (alat)  =      20.5374  a.u.
     unit-cell volume          =    8845.8557 (a.u.)^3
     number of atoms/cell      =           64
     number of atomic types    =            1
     number of electrons       =       256.00
     number of Kohn-Sham states=          128
     kinetic-energy cutoff     =      30.0000  Ry
     charge density cutoff     =     120.0000  Ry
     scf convergence threshold =      1.0E-06
     mixing beta               =       0.5000
     number of iterations used =            8  plain     mixing
     Exchange-correlation= PBE
                           (   1   4   3   4   0   0   0)

     GPU acceleration is ACTIVE.


     celldm(1)=  20.537425  celldm(2)=   0.000000  celldm(3)=   0.000000
     celldm(4)=   0.000000  celldm(5)=   0.000000  celldm(6)=   0.000000

     crystal axes: (cart. coord. in units of alat)
               a(1) = (   1.000000   0.000000   0.000000 )  
               a(2) = (   0.000000   1.021785   0.000000 )  
               a(3) = (   0.000000   0.000000   0.999407 )  

     reciprocal axes: (cart. coord. in units 2 pi/alat)
               b(1) = (  1.000000  0.000000  0.000000 )  
               b(2) = (  0.000000  0.978679  0.000000 )  
               b(3) = (  0.000000  0.000000  1.000594 )  


     PseudoPot. # 1 for Si read from file:
     ./Si_ONCV_PBE-1.0.upf
     MD5 check sum: 2de5a83d12544a9ea852f39b88f19b1f
     Pseudo is Norm-conserving, Zval =  4.0
     Generated using ONCVPSP code by D. R. Hamann
     Using radial grid of  602 points,  4 beta functions with: 
                l(1) =   0
                l(2) =   0
                l(3) =   1
                l(4) =   1

     atomic species   valence    mass     pseudopotential
        Si             4.00    28.08500     Si( 1.00)

     No symmetry found



   Cartesian axes

     site n.     atom                  positions (alat units)
         1           Si  tau(   1) = (   0.3741082   0.3911682   0.1215967  )
         2           Si  tau(   2) = (   0.0000904   0.2623895   0.2540412  )
         3           Si  tau(   3) = (   0.3771268   0.1306466   0.3771912  )
         4           Si  tau(   4) = (  -0.0001922   0.0016397   0.0028080  )
         5           Si  tau(   5) = (   0.1272100   0.3913549   0.3729826  )
         6           Si  tau(   6) = (   0.2444428   0.2624657   0.0006442  )
         7           Si  tau(   7) = (   0.1213266   0.1326172   0.1203296  )
         8           Si  tau(   8) = (   0.2513105   0.0030360   0.2502095  )
         9           Si  tau(   9) = (   0.3739878   0.3912836   0.6273301  )
        10           Si  tau(  10) = (   0.0022251   0.2642424   0.7461956  )
        11           Si  tau(  11) = (   0.3734262   0.1291866   0.8715863  )
        12           Si  tau(  12) = (  -0.0013022  -0.0001274   0.5009474  )
        13           Si  tau(  13) = (   0.1197625   0.3956367   0.8778838  )
        14           Si  tau(  14) = (   0.2487362   0.2650440   0.4959158  )
        15           Si  tau(  15) = (   0.1210404   0.1322572   0.6205197  )
        16           Si  tau(  16) = (   0.2508086  -0.0027028   0.7520323  )
        17           Si  tau(  17) = (   0.3721477   0.9081598   0.1253781  )
        18           Si  tau(  18) = (  -0.0012428   0.7831634   0.2460950  )
        19           Si  tau(  19) = (   0.3684569   0.6546426   0.3740960  )
        20           Si  tau(  20) = (  -0.0014231   0.5243700   0.0019910  )
        21           Si  tau(  21) = (   0.1272856   0.9086284   0.3755744  )
        22           Si  tau(  22) = (   0.2483840   0.7771630   0.0027760  )
        23           Si  tau(  23) = (   0.1255629   0.6486584   0.1282449  )
        24           Si  tau(  24) = (   0.2483859   0.5217982   0.2531454  )
        25           Si  tau(  25) = (   0.3758449   0.9122831   0.6249486  )
        26           Si  tau(  26) = (  -0.0029066   0.7772173   0.7454505  )
        27           Si  tau(  27) = (   0.3744243   0.6504146   0.8760763  )
        28           Si  tau(  28) = (  -0.0045196   0.5250982   0.4982186  )
        29           Si  tau(  29) = (   0.1285958   0.9123337   0.8755349  )
        30           Si  tau(  30) = (   0.2477972   0.7822973   0.5023828  )
        31           Si  tau(  31) = (   0.1202631   0.6552940   0.6228714  )
        32           Si  tau(  32) = (   0.2515932   0.5164909   0.7514257  )
        33           Si  tau(  33) = (   0.8726485   0.3920371   0.1280137  )
        34           Si  tau(  34) = (   0.4961580   0.2609114   0.2480081  )
        35           Si  tau(  35) = (   0.8711946   0.1339519   0.3772162  )
        36           Si  tau(  36) = (   0.5001787  -0.0036113  -0.0014378  )
        37           Si  tau(  37) = (   0.6173053   0.3921698   0.3719043  )
        38           Si  tau(  38) = (   0.7456203   0.2645984   0.0042901  )
        39           Si  tau(  39) = (   0.6204870   0.1262809   0.1269890  )
        40           Si  tau(  40) = (   0.7496127  -0.0012539   0.2537951  )
        41           Si  tau(  41) = (   0.8676741   0.3946088   0.6205339  )
        42           Si  tau(  42) = (   0.4961742   0.2630514   0.7472736  )
        43           Si  tau(  43) = (   0.8707130   0.1284880   0.8761890  )
        44           Si  tau(  44) = (   0.4990126  -0.0034503   0.4983410  )
        45           Si  tau(  45) = (   0.6212168   0.3952543   0.8726955  )
        46           Si  tau(  46) = (   0.7450944   0.2635421   0.4993474  )
        47           Si  tau(  47) = (   0.6257926   0.1290621   0.6281726  )
        48           Si  tau(  48) = (   0.7446695  -0.0020585   0.7489520  )
        49           Si  tau(  49) = (   0.8690195   0.9153915   0.1258068  )
        50           Si  tau(  50) = (   0.4999583   0.7811765   0.2507382  )
        51           Si  tau(  51) = (   0.8661309   0.6543452   0.3712389  )
        52           Si  tau(  52) = (   0.4978713   0.5235155  -0.0023695  )
        53           Si  tau(  53) = (   0.6229135   0.9076298   0.3765057  )
        54           Si  tau(  54) = (   0.7447892   0.7835188   0.0029126  )
        55           Si  tau(  55) = (   0.6197549   0.6518339   0.1255756  )
        56           Si  tau(  56) = (   0.7478201   0.5246100   0.2534440  )
        57           Si  tau(  57) = (   0.8671100   0.9156703   0.6270839  )
        58           Si  tau(  58) = (   0.5006447   0.7853829   0.7500671  )
        59           Si  tau(  59) = (   0.8659854   0.6473134   0.8772666  )
        60           Si  tau(  60) = (   0.4940964   0.5210534   0.4951976  )
        61           Si  tau(  61) = (   0.6243278   0.9120027   0.8742207  )
        62           Si  tau(  62) = (   0.7494457   0.7770949   0.4972450  )
        63           Si  tau(  63) = (   0.6209384   0.6558067   0.6233935  )
        64           Si  tau(  64) = (   0.7500470   0.5165594   0.7520096  )

     number of k points=     1
                       cart. coord. in units 2pi/alat
        k(    1) = (   0.0000000   0.0000000   0.0000000), wk =   2.0000000

     Dense  grid:    98125 G-vectors     FFT dimensions: (  72,  75,  72)

     Estimated max dynamical RAM per process >     285.49 MB

     Initial potential from superposition of free atoms

     starting charge     253.0416, renormalised to     256.0000
     Starting wfcs are random

     total cpu time spent up to now is        1.4 secs

     Self-consistent Calculation

     iteration #  1     ecut=    30.00 Ry     beta= 0.50
     Davidson diagonalization with overlap
     ethr =  1.00E-02,  avg # of iterations = 14.0

     Threshold (ethr) on eigenvalues was too large:
     Diagonalizing with lowered threshold

     Davidson diagonalization with overlap
     ethr =  6.27E-04,  avg # of iterations =  8.0

     total cpu time spent up to now is        1.8 secs

     total energy              =    -503.70372074 Ry
     estimated scf accuracy    <       1.84164628 Ry

     iteration #  2     ecut=    30.00 Ry     beta= 0.50
     Davidson diagonalization with overlap
     ethr =  7.19E-04,  avg # of iterations =  1.0

     total cpu time spent up to now is        1.9 secs

     total energy              =    -503.70251875 Ry
     estimated scf accuracy    <       0.34079734 Ry

     iteration #  3     ecut=    30.00 Ry     beta= 0.50
     Davidson diagonalization with overlap
     ethr =  1.33E-04,  avg # of iterations =  2.0

     total cpu time spent up to now is        2.0 secs

     total energy              =    -503.73165804 Ry
     estimated scf accuracy    <       0.00526307 Ry

     iteration #  4     ecut=    30.00 Ry     beta= 0.50
     Davidson diagonalization with overlap
     ethr =  2.06E-06,  avg # of iterations = 13.0

     total cpu time spent up to now is        2.3 secs

     total energy              =    -503.73894552 Ry
     estimated scf accuracy    <       0.00228131 Ry

     iteration #  5     ecut=    30.00 Ry     beta= 0.50
     Davidson diagonalization with overlap
     ethr =  8.91E-07,  avg # of iterations =  3.0

     total cpu time spent up to now is        2.4 secs

     total energy              =    -503.73942579 Ry
     estimated scf accuracy    <       0.00048425 Ry

     iteration #  6     ecut=    30.00 Ry     beta= 0.50
     Davidson diagonalization with overlap
     ethr =  1.89E-07,  avg # of iterations =  5.0

     total cpu time spent up to now is        2.5 secs

     total energy              =    -503.73948244 Ry
     estimated scf accuracy    <       0.00006221 Ry

     iteration #  7     ecut=    30.00 Ry     beta= 0.50
     Davidson diagonalization with overlap
     ethr =  2.43E-08,  avg # of iterations =  5.0

     total cpu time spent up to now is        2.7 secs

     total energy              =    -503.73950025 Ry
     estimated scf accuracy    <       0.00001621 Ry

     iteration #  8     ecut=    30.00 Ry     beta= 0.50
     Davidson diagonalization with overlap
     ethr =  6.33E-09,  avg # of iterations =  7.0

     total cpu time spent up to now is        2.9 secs

     total energy              =    -503.73950275 Ry
     estimated scf accuracy    <       0.00000290 Ry

     iteration #  9     ecut=    30.00 Ry     beta= 0.50
     Davidson diagonalization with overlap
     ethr =  1.13E-09,  avg # of iterations =  3.0

     total cpu time spent up to now is        3.0 secs

     total energy              =    -503.73950362 Ry
     estimated scf accuracy    <       0.00000137 Ry

     iteration # 10     ecut=    30.00 Ry     beta= 0.50
     Davidson diagonalization with overlap
     ethr =  5.34E-10,  avg # of iterations =  3.0

     total cpu time spent up to now is        3.1 secs

     End of self-consistent calculation

          k = 0.0000 0.0000 0.0000 ( 12253 PWs)   bands (ev):

    -5.8505  -4.9154  -4.7993  -4.7885  -4.7784  -4.7242  -4.6055  -4.1452
    -3.9584  -3.9346  -3.9101  -3.8642  -3.8147  -3.7652  -3.7099  -3.6736
    -3.6667  -3.6405  -3.6124  -3.5287  -3.4400  -3.4213  -3.3216  -2.0037
    -1.9554  -1.8848  -1.7456  -1.7038  -1.6775  -1.6558  -1.6135  -1.6047
    -1.5747  -1.5641  -1.5353  -1.5077  -1.4849  -1.4522  -1.4097  -1.3789
    -1.3497  -0.9540  -0.8855  -0.8721  -0.6498   0.4370   0.4618   0.5176
     0.5290   0.5514   0.5570   0.5923   0.6006   0.6145   0.6168   0.7111
     0.7367   2.0041   2.0184   2.0356   2.0699   2.1514   2.1911   2.2208
     2.2276   2.2491   2.2685   2.2728   2.2917   2.3095   2.3158   2.3259
     2.3534   2.3942   2.4210   2.4420   2.4556   2.4595   2.4865   2.4932
     2.5109   2.5261   2.5640   2.6109   2.6513   2.6744   2.6822   3.1402
     3.1661   3.1743   3.2361   3.2569   3.3653   4.0239   4.0832   4.0954
     4.1091   4.1286   4.1406   4.1603   4.1741   4.2253   4.2374   4.2601
     4.4282   4.4521   4.5811   4.6077   4.6179   4.6438   4.6942   4.7250
     4.7395   4.7556   4.7870   4.7993   4.8545   4.8970   4.9088   4.9674
     4.9818   5.0093   5.0821   5.1164   5.1860   5.9208   6.0299   6.2687

     highest occupied level (ev):     6.2687

!    total energy              =    -503.73950362 Ry
     estimated scf accuracy    <       0.00000024 Ry

     The total energy is the sum of the following terms:
     one-electron contribution =     144.82069018 Ry
     hartree contribution      =      37.51550053 Ry
     xc contribution           =    -153.74548975 Ry
     ewald contribution        =    -532.33020458 Ry

     convergence has been achieved in  10 iterations

     Forces acting on atoms (cartesian axes, Ry/au):

     atom    1 type  1   force =    -0.01051245    0.00645504    0.01080523
     atom    2 type  1   force =    -0.00885945   -0.00700787   -0.02028715
     atom    3 type  1   force =    -0.01204359    0.01388687   -0.00796142
     atom    4 type  1   force =    -0.01022812    0.04936286   -0.02448270
     atom    5 type  1   force =    -0.02566660    0.01512932    0.01434444
     atom    6 type  1   force =     0.01505734   -0.00187842   -0.01882057
     atom    7 type  1   force =     0.00858052    0.00523661    0.04047630
     atom    8 type  1   force =    -0.01328129    0.06197035   -0.00375296
     atom    9 type  1   force =    -0.00580407    0.00003389   -0.03037295
     atom   10 type  1   force =    -0.03494024   -0.00405552    0.00970867
     atom   11 type  1   force =     0.00061438    0.01973337    0.02007293
     atom   12 type  1   force =    -0.01161198    0.05854355   -0.01012707
     atom   13 type  1   force =     0.01211759   -0.01501475   -0.01431398
     atom   14 type  1   force =     0.00989855   -0.02145617    0.02363753
     atom   15 type  1   force =     0.02665902    0.00095478    0.01493940
     atom   16 type  1   force =    -0.00527470    0.09247982   -0.03254160
     atom   17 type  1   force =     0.01157324   -0.05341253   -0.00217652
     atom   18 type  1   force =    -0.00805771   -0.00830026    0.01245387
     atom   19 type  1   force =     0.01621775   -0.00496329    0.00611148
     atom   20 type  1   force =    -0.01746333   -0.00506085    0.00735147
     atom   21 type  1   force =    -0.01789312   -0.04160276   -0.00669453
     atom   22 type  1   force =     0.00034557    0.00158433   -0.00713138
     atom   23 type  1   force =    -0.01271897    0.00694419   -0.00680663
     atom   24 type  1   force =     0.01246902   -0.00735778   -0.02121988
     atom   25 type  1   force =    -0.01208384   -0.07125723    0.00442590
     atom   26 type  1   force =    -0.02010539    0.02558384    0.03796197
     atom   27 type  1   force =    -0.00418260    0.01174688   -0.01797036
     atom   28 type  1   force =     0.00135570   -0.00579517   -0.01411311
     atom   29 type  1   force =    -0.03988284   -0.09132915    0.01298502
     atom   30 type  1   force =     0.00605253   -0.00431173    0.00063013
     atom   31 type  1   force =     0.02199261   -0.03832466    0.00555107
     atom   32 type  1   force =    -0.02530256    0.03338621   -0.00104557
     atom   33 type  1   force =     0.00843971    0.00752265    0.00514245
     atom   34 type  1   force =     0.00298347   -0.00735913   -0.00319380
     atom   35 type  1   force =     0.01356242   -0.00336633    0.00041215
     atom   36 type  1   force =    -0.02616892    0.07820846    0.01204414
     atom   37 type  1   force =     0.01669690   -0.00255254    0.00432767
     atom   38 type  1   force =    -0.00446979   -0.01790265   -0.01243478
     atom   39 type  1   force =     0.01300394    0.01790552   -0.00246438
     atom   40 type  1   force =    -0.02230258    0.08331995    0.01043679
     atom   41 type  1   force =     0.03382663   -0.01379568    0.00948225
     atom   42 type  1   force =     0.01620365   -0.01613921    0.01465347
     atom   43 type  1   force =     0.01199969    0.02932681   -0.00915141
     atom   44 type  1   force =     0.01002179    0.08862436    0.01281731
     atom   45 type  1   force =     0.00126074   -0.02636014    0.01184075
     atom   46 type  1   force =    -0.01107004   -0.00466513   -0.00145269
     atom   47 type  1   force =    -0.02149514    0.01699408   -0.02275678
     atom   48 type  1   force =     0.00720954    0.09315281    0.02658001
     atom   49 type  1   force =     0.03035360   -0.07900974   -0.01337960
     atom   50 type  1   force =    -0.01910218   -0.00625289   -0.00097042
     atom   51 type  1   force =     0.05228642   -0.00321504    0.00287515
     atom   52 type  1   force =     0.00316614   -0.00726256    0.00987696
     atom   53 type  1   force =     0.01528056   -0.06356522   -0.00864464
     atom   54 type  1   force =     0.00440784   -0.01461595   -0.00636492
     atom   55 type  1   force =     0.01285599   -0.00641049    0.00231225
     atom   56 type  1   force =    -0.02112734   -0.02067778   -0.02545710
     atom   57 type  1   force =     0.04143378   -0.10065723   -0.03436325
     atom   58 type  1   force =    -0.01249444   -0.02300163    0.00327904
     atom   59 type  1   force =     0.03024488    0.02304967   -0.00196855
     atom   60 type  1   force =     0.00118625    0.01517539    0.02208527
     atom   61 type  1   force =    -0.00198236   -0.07797316    0.00505471
     atom   62 type  1   force =    -0.01487541    0.02713012    0.02544217
     atom   63 type  1   force =     0.01023660   -0.03744198    0.00401994
     atom   64 type  1   force =    -0.02859333    0.02991090   -0.02171716

     Total force =     0.379236     Total SCF correction =     0.000917


     Computing stress (Cartesian axis) and pressure

          total   stress  (Ry/bohr**3)                   (kbar)     P=       13.22
   0.00014690   0.00000008  -0.00009295           21.61        0.01      -13.67
   0.00000008  -0.00003083   0.00003136            0.01       -4.53        4.61
  -0.00009295   0.00003136   0.00015354          -13.67        4.61       22.59

 
     init_run     :      0.98s CPU      1.38s WALL (       1 calls)
     electrons    :      1.64s CPU      1.72s WALL (       1 calls)
     forces       :      0.06s CPU      0.07s WALL (       1 calls)
     stress       :      0.25s CPU      0.25s WALL (       1 calls)

     Called by init_run:
     wfcinit      :      0.60s CPU      0.87s WALL (       1 calls)
                                        0.87s GPU  (       1 calls)
     potinit      :      0.24s CPU      0.28s WALL (       1 calls)
     hinit0       :      0.12s CPU      0.12s WALL (       1 calls)

     Called by electrons:
     c_bands      :      1.04s CPU      1.06s WALL (      11 calls)
     sum_band     :      0.24s CPU      0.25s WALL (      11 calls)
     v_of_rho     :      0.16s CPU      0.22s WALL (      11 calls)
     mix_rho      :      0.20s CPU      0.22s WALL (      11 calls)

     Called by c_bands:
     init_us_2    :      0.03s CPU      0.04s WALL (      23 calls)
     init_us_2:gp :      0.03s CPU      0.04s WALL (      23 calls)
     regterg      :      0.93s CPU      0.95s WALL (      11 calls)

     Called by *egterg:
     rdiaghg      :      0.37s CPU      0.41s WALL (      74 calls)
                                        0.40s GPU  (      74 calls)
     h_psi        :      0.98s CPU      1.23s WALL (      76 calls)
                                        1.23s GPU  (      76 calls)
     g_psi        :      0.00s CPU      0.00s WALL (      64 calls)
                                        0.00s GPU  (      64 calls)

     Called by h_psi:
     h_psi:calbec :      0.46s CPU      0.72s WALL (      76 calls)
                                        0.72s GPU  (      76 calls)
     vloc_psi     :      0.42s CPU      0.43s WALL (      76 calls)
                                        0.43s GPU  (      76 calls)
     add_vuspsi   :      0.03s CPU      0.07s WALL (      76 calls)
                                        0.06s GPU  (      76 calls)

     General routines
     calbec       :      0.46s CPU      0.69s WALL (      81 calls)
     fft          :      0.16s CPU      0.17s WALL (      95 calls)
                                        0.03s GPU  (      59 calls)
     ffts         :      0.04s CPU      0.04s WALL (      11 calls)
     fftw         :      0.03s CPU      0.48s WALL (    1068 calls)
                                        0.39s GPU  (    1068 calls)
 
     Parallel routines
 
     PWSCF        :      2.95s CPU      3.46s WALL

 
   This run was terminated on:  22: 1:19   8Jul2023            

=------------------------------------------------------------------------------=
   JOB DONE.
=------------------------------------------------------------------------------=
