
     Program PWSCF v.7.0 starts on  8Jul2023 at 22: 0:41 

     This program is part of the open-source Quantum ESPRESSO suite
     for quantum simulation of materials; please cite
         "P. Giannozzi et al., J. Phys.:Condens. Matter 21 395502 (2009);
         "P. Giannozzi et al., J. Phys.:Condens. Matter 29 465901 (2017);
         "P. Giannozzi et al., J. Chem. Phys. 152 154105 (2020);
          URL http://www.quantum-espresso.org", 
     in publications or presentations arising from this work. More details at
     http://www.quantum-espresso.org/quote

     Parallel version (MPI & OpenMP), running on       1 processor cores
     Number of MPI processes:                 1
     Threads/MPI process:                     1

     MPI processes distributed on     1 nodes
     109275 MiB available memory on the printing compute node when the environment starts
 
     Reading input from pw-si-77.in
Warning: card &CELL ignored
Warning: card / ignored

     Current dimensions of program PWSCF are:
     Max number of different atomic species (ntypx) = 10
     Max number of k-points (npk) =  40000
     Max angular momentum in pseudopotentials (lmaxx) =  4

     IMPORTANT: XC functional enforced from input :
     Exchange-correlation= PBE
                           (   1   4   3   4   0   0   0)
     Any further DFT definition will be discarded
     Please, verify this is what you really want


     gamma-point specific algorithms are used

     Subspace diagonalization in iterative solution of the eigenvalue problem:
     a serial algorithm will be used

 
     G-vector sticks info
     --------------------
     sticks:   dense  smooth     PW     G-vecs:    dense   smooth      PW
     Sum        3985    3985    989               192817   192817   24065
 
     Using Slab Decomposition
 


     bravais-lattice index     =            0
     lattice parameter (alat)  =      20.4176  a.u.
     unit-cell volume          =    8682.4324 (a.u.)^3
     number of atoms/cell      =           64
     number of atomic types    =            1
     number of electrons       =       256.00
     number of Kohn-Sham states=          128
     kinetic-energy cutoff     =      30.0000  Ry
     charge density cutoff     =     120.0000  Ry
     scf convergence threshold =      1.0E-06
     mixing beta               =       0.5000
     number of iterations used =            8  plain     mixing
     Exchange-correlation= PBE
                           (   1   4   3   4   0   0   0)

     GPU acceleration is ACTIVE.


     celldm(1)=  20.417551  celldm(2)=   0.000000  celldm(3)=   0.000000
     celldm(4)=   0.000000  celldm(5)=   0.000000  celldm(6)=   0.000000

     crystal axes: (cart. coord. in units of alat)
               a(1) = (   1.000000   0.000000   0.000000 )  
               a(2) = (   0.000000   0.999847   0.000000 )  
               a(3) = (   0.000000   0.000000   1.020228 )  

     reciprocal axes: (cart. coord. in units 2 pi/alat)
               b(1) = (  1.000000  0.000000  0.000000 )  
               b(2) = (  0.000000  1.000154  0.000000 )  
               b(3) = (  0.000000  0.000000  0.980173 )  


     PseudoPot. # 1 for Si read from file:
     ./Si_ONCV_PBE-1.0.upf
     MD5 check sum: 2de5a83d12544a9ea852f39b88f19b1f
     Pseudo is Norm-conserving, Zval =  4.0
     Generated using ONCVPSP code by D. R. Hamann
     Using radial grid of  602 points,  4 beta functions with: 
                l(1) =   0
                l(2) =   0
                l(3) =   1
                l(4) =   1

     atomic species   valence    mass     pseudopotential
        Si             4.00    28.08500     Si( 1.00)

     No symmetry found



   Cartesian axes

     site n.     atom                  positions (alat units)
         1           Si  tau(   1) = (   0.3726751   0.3730677   0.1222355  )
         2           Si  tau(   2) = (   0.0043400   0.2544671   0.2505863  )
         3           Si  tau(   3) = (   0.3747405   0.1263657   0.3802303  )
         4           Si  tau(   4) = (  -0.0041499  -0.0012201   0.0031744  )
         5           Si  tau(   5) = (   0.1209829   0.3779026   0.3783670  )
         6           Si  tau(   6) = (   0.2500856   0.2495713  -0.0000387  )
         7           Si  tau(   7) = (   0.1281458   0.1297607   0.1303433  )
         8           Si  tau(   8) = (   0.2469502   0.0021568   0.2569019  )
         9           Si  tau(   9) = (   0.3752202   0.3746902   0.6277416  )
        10           Si  tau(  10) = (  -0.0016873   0.2556012   0.7545997  )
        11           Si  tau(  11) = (   0.3703436   0.1261458   0.8851376  )
        12           Si  tau(  12) = (   0.0020601   0.0003659   0.5082251  )
        13           Si  tau(  13) = (   0.1285513   0.3808062   0.8872126  )
        14           Si  tau(  14) = (   0.2464986   0.2482443   0.5032467  )
        15           Si  tau(  15) = (   0.1225039   0.1271834   0.6302707  )
        16           Si  tau(  16) = (   0.2472067  -0.0037782   0.7559386  )
        17           Si  tau(  17) = (   0.3698196   0.8811910   0.1265532  )
        18           Si  tau(  18) = (   0.0006534   0.7560964   0.2508444  )
        19           Si  tau(  19) = (   0.3714119   0.6275358   0.3765801  )
        20           Si  tau(  20) = (  -0.0023283   0.5007453  -0.0036264  )
        21           Si  tau(  21) = (   0.1251402   0.8772965   0.3761990  )
        22           Si  tau(  22) = (   0.2447937   0.7534544  -0.0020623  )
        23           Si  tau(  23) = (   0.1210851   0.6323675   0.1274594  )
        24           Si  tau(  24) = (   0.2511159   0.4997717   0.2487371  )
        25           Si  tau(  25) = (   0.3690029   0.8783594   0.6352037  )
        26           Si  tau(  26) = (  -0.0007312   0.7578357   0.7618207  )
        27           Si  tau(  27) = (   0.3719198   0.6250271   0.8809222  )
        28           Si  tau(  28) = (   0.0036950   0.5069613   0.5074732  )
        29           Si  tau(  29) = (   0.1240814   0.8827029   0.8864878  )
        30           Si  tau(  30) = (   0.2457375   0.7573654   0.5042432  )
        31           Si  tau(  31) = (   0.1209811   0.6293949   0.6346574  )
        32           Si  tau(  32) = (   0.2471204   0.5053127   0.7570178  )
        33           Si  tau(  33) = (   0.8655521   0.3734155   0.1240193  )
        34           Si  tau(  34) = (   0.4976121   0.2476231   0.2537190  )
        35           Si  tau(  35) = (   0.8713854   0.1254040   0.3767319  )
        36           Si  tau(  36) = (   0.4967842  -0.0025240   0.0019081  )
        37           Si  tau(  37) = (   0.6202782   0.3800107   0.3745353  )
        38           Si  tau(  38) = (   0.7443634   0.2513310  -0.0045860  )
        39           Si  tau(  39) = (   0.6226852   0.1241272   0.1234277  )
        40           Si  tau(  40) = (   0.7420410   0.0028538   0.2567731  )
        41           Si  tau(  41) = (   0.8704973   0.3793212   0.6316632  )
        42           Si  tau(  42) = (   0.4997715   0.2558883   0.7591070  )
        43           Si  tau(  43) = (   0.8708665   0.1241757   0.8791069  )
        44           Si  tau(  44) = (   0.4923216   0.0026697   0.5047860  )
        45           Si  tau(  45) = (   0.6166288   0.3740777   0.8870171  )
        46           Si  tau(  46) = (   0.7483363   0.2551910   0.5071658  )
        47           Si  tau(  47) = (   0.6203455   0.1218203   0.6347641  )
        48           Si  tau(  48) = (   0.7466590   0.0012749   0.7549180  )
        49           Si  tau(  49) = (   0.8705797   0.8801984   0.1300378  )
        50           Si  tau(  50) = (   0.4936404   0.7498512   0.2480847  )
        51           Si  tau(  51) = (   0.8674010   0.6296682   0.3769409  )
        52           Si  tau(  52) = (   0.5001776   0.5013245  -0.0013830  )
        53           Si  tau(  53) = (   0.6185761   0.8756490   0.3781539  )
        54           Si  tau(  54) = (   0.7451711   0.7578019   0.0021481  )
        55           Si  tau(  55) = (   0.6175430   0.6269208   0.1286648  )
        56           Si  tau(  56) = (   0.7422846   0.5042409   0.2566965  )
        57           Si  tau(  57) = (   0.8658192   0.8756336   0.6323728  )
        58           Si  tau(  58) = (   0.4931691   0.7513692   0.7619478  )
        59           Si  tau(  59) = (   0.8679862   0.6295100   0.8812157  )
        60           Si  tau(  60) = (   0.4991854   0.4994741   0.5088662  )
        61           Si  tau(  61) = (   0.6217462   0.8756796   0.8841949  )
        62           Si  tau(  62) = (   0.7487427   0.7571600   0.5087103  )
        63           Si  tau(  63) = (   0.6166340   0.6250937   0.6276024  )
        64           Si  tau(  64) = (   0.7429433   0.5054515   0.7604760  )

     number of k points=     1
                       cart. coord. in units 2pi/alat
        k(    1) = (   0.0000000   0.0000000   0.0000000), wk =   2.0000000

     Dense  grid:    96409 G-vectors     FFT dimensions: (  72,  72,  75)

     Estimated max dynamical RAM per process >     280.78 MB

     Initial potential from superposition of free atoms

     starting charge     253.0416, renormalised to     256.0000
     Starting wfcs are random

     total cpu time spent up to now is        1.4 secs

     Self-consistent Calculation

     iteration #  1     ecut=    30.00 Ry     beta= 0.50
     Davidson diagonalization with overlap
     ethr =  1.00E-02,  avg # of iterations = 12.0

     Threshold (ethr) on eigenvalues was too large:
     Diagonalizing with lowered threshold

     Davidson diagonalization with overlap
     ethr =  6.18E-04,  avg # of iterations =  8.0

     total cpu time spent up to now is        1.8 secs

     total energy              =    -503.75827681 Ry
     estimated scf accuracy    <       1.89898942 Ry

     iteration #  2     ecut=    30.00 Ry     beta= 0.50
     Davidson diagonalization with overlap
     ethr =  7.42E-04,  avg # of iterations =  1.0

     total cpu time spent up to now is        1.9 secs

     total energy              =    -503.75436982 Ry
     estimated scf accuracy    <       0.34734458 Ry

     iteration #  3     ecut=    30.00 Ry     beta= 0.50
     Davidson diagonalization with overlap
     ethr =  1.36E-04,  avg # of iterations =  2.0

     total cpu time spent up to now is        2.0 secs

     total energy              =    -503.78364671 Ry
     estimated scf accuracy    <       0.00527456 Ry

     iteration #  4     ecut=    30.00 Ry     beta= 0.50
     Davidson diagonalization with overlap
     ethr =  2.06E-06,  avg # of iterations = 12.0

     total cpu time spent up to now is        2.2 secs

     total energy              =    -503.79106151 Ry
     estimated scf accuracy    <       0.00149786 Ry

     iteration #  5     ecut=    30.00 Ry     beta= 0.50
     Davidson diagonalization with overlap
     ethr =  5.85E-07,  avg # of iterations =  4.0

     total cpu time spent up to now is        2.4 secs

     total energy              =    -503.79136779 Ry
     estimated scf accuracy    <       0.00036347 Ry

     iteration #  6     ecut=    30.00 Ry     beta= 0.50
     Davidson diagonalization with overlap
     ethr =  1.42E-07,  avg # of iterations =  4.0

     total cpu time spent up to now is        2.5 secs

     total energy              =    -503.79142178 Ry
     estimated scf accuracy    <       0.00005007 Ry

     iteration #  7     ecut=    30.00 Ry     beta= 0.50
     Davidson diagonalization with overlap
     ethr =  1.96E-08,  avg # of iterations =  9.0

     total cpu time spent up to now is        2.7 secs

     total energy              =    -503.79143417 Ry
     estimated scf accuracy    <       0.00001403 Ry

     iteration #  8     ecut=    30.00 Ry     beta= 0.50
     Davidson diagonalization with overlap
     ethr =  5.48E-09,  avg # of iterations =  5.0

     total cpu time spent up to now is        2.8 secs

     total energy              =    -503.79143695 Ry
     estimated scf accuracy    <       0.00000173 Ry

     iteration #  9     ecut=    30.00 Ry     beta= 0.50
     Davidson diagonalization with overlap
     ethr =  6.75E-10,  avg # of iterations =  7.0

     total cpu time spent up to now is        3.0 secs

     total energy              =    -503.79143739 Ry
     estimated scf accuracy    <       0.00000125 Ry

     iteration # 10     ecut=    30.00 Ry     beta= 0.50
     Davidson diagonalization with overlap
     ethr =  4.86E-10,  avg # of iterations =  3.0

     total cpu time spent up to now is        3.1 secs

     End of self-consistent calculation

          k = 0.0000 0.0000 0.0000 ( 12033 PWs)   bands (ev):

    -5.7390  -4.7630  -4.7309  -4.6681  -4.6172  -4.5930  -4.5734  -3.8575
    -3.8253  -3.7973  -3.7530  -3.7228  -3.7168  -3.6935  -3.6623  -3.6227
    -3.6073  -3.5363  -3.5075  -3.4545  -3.4060  -3.3799  -3.1969  -1.7595
    -1.6731  -1.6619  -1.6448  -1.5865  -1.5550  -1.5408  -1.5058  -1.4867
    -1.4695  -1.4419  -1.4090  -1.3711  -1.3391  -1.3275  -1.2932  -1.2742
    -1.2285  -0.8584  -0.7023  -0.6953  -0.6396   0.5746   0.6320   0.6815
     0.7094   0.7432   0.7614   0.7634   0.7858   0.7946   0.8068   0.8354
     0.8810   2.2347   2.2721   2.2765   2.2949   2.3164   2.3233   2.3339
     2.3448   2.3673   2.3715   2.3835   2.4109   2.4173   2.4326   2.4618
     2.4879   2.4906   2.4982   2.5345   2.5520   2.5607   2.5671   2.5978
     2.6192   2.6511   2.6702   2.7759   2.7876   2.8123   2.8361   3.2970
     3.3199   3.3586   3.3769   3.4531   3.5137   4.1821   4.2382   4.2551
     4.2665   4.3176   4.3261   4.3330   4.3639   4.3872   4.4165   4.4695
     4.5957   4.7153   4.7665   4.7872   4.8096   4.8464   4.8649   4.8927
     4.9064   4.9200   4.9359   4.9513   4.9706   4.9858   5.0570   5.0727
     5.0782   5.1229   5.1679   5.2065   5.4473   6.1085   6.2529   6.4117

     highest occupied level (ev):     6.4117

!    total energy              =    -503.79143750 Ry
     estimated scf accuracy    <       0.00000016 Ry

     The total energy is the sum of the following terms:
     one-electron contribution =     150.19238759 Ry
     hartree contribution      =      36.57852616 Ry
     xc contribution           =    -154.36753413 Ry
     ewald contribution        =    -536.19481711 Ry

     convergence has been achieved in  10 iterations

     Forces acting on atoms (cartesian axes, Ry/au):

     atom    1 type  1   force =     0.01965092    0.00819267    0.01145155
     atom    2 type  1   force =    -0.05425620   -0.00766530    0.00286222
     atom    3 type  1   force =    -0.01910891    0.00261091   -0.00708261
     atom    4 type  1   force =     0.01062616    0.03948122   -0.03031924
     atom    5 type  1   force =     0.02522814    0.01268083    0.00595830
     atom    6 type  1   force =    -0.01012921    0.00340567   -0.03779670
     atom    7 type  1   force =    -0.01956368   -0.02081348   -0.02567014
     atom    8 type  1   force =     0.01726311    0.01296896   -0.01448470
     atom    9 type  1   force =    -0.02852514    0.00262503    0.02144894
     atom   10 type  1   force =     0.00536230   -0.00335620    0.02477830
     atom   11 type  1   force =     0.01674896   -0.00845556    0.01231715
     atom   12 type  1   force =    -0.03858048   -0.00416128   -0.02115221
     atom   13 type  1   force =    -0.02016757   -0.02247617    0.01246219
     atom   14 type  1   force =     0.00456287    0.01905052   -0.00149912
     atom   15 type  1   force =     0.00717302   -0.00303715    0.01847566
     atom   16 type  1   force =    -0.01242117    0.05633375    0.02010646
     atom   17 type  1   force =    -0.00910898   -0.02656069   -0.00286513
     atom   18 type  1   force =    -0.03196399   -0.00984224    0.01341262
     atom   19 type  1   force =     0.00227762   -0.00980174    0.02295734
     atom   20 type  1   force =    -0.01890016    0.01526901   -0.00656161
     atom   21 type  1   force =    -0.02052643    0.00500686    0.02148132
     atom   22 type  1   force =     0.01587631    0.00043057   -0.02449317
     atom   23 type  1   force =     0.00749615   -0.03709520   -0.02064465
     atom   24 type  1   force =    -0.02263003    0.00869618    0.00547314
     atom   25 type  1   force =     0.02370944   -0.02134343   -0.02411089
     atom   26 type  1   force =    -0.02221435   -0.01114396   -0.00574914
     atom   27 type  1   force =    -0.00398089    0.00483135    0.06081005
     atom   28 type  1   force =    -0.04763068   -0.01332705   -0.01663418
     atom   29 type  1   force =    -0.01347985   -0.02011486    0.03447124
     atom   30 type  1   force =     0.00997215   -0.03274513    0.00742689
     atom   31 type  1   force =     0.01417363    0.02652625   -0.00338085
     atom   32 type  1   force =     0.01213846   -0.02491249   -0.01383817
     atom   33 type  1   force =     0.02933165    0.02281657    0.00772775
     atom   34 type  1   force =     0.00473562    0.01673480   -0.02230043
     atom   35 type  1   force =     0.02536221    0.01718722    0.01873818
     atom   36 type  1   force =     0.00125989    0.02095071   -0.04808076
     atom   37 type  1   force =    -0.00065740   -0.02838974    0.03581633
     atom   38 type  1   force =     0.00254857   -0.01942062   -0.02562614
     atom   39 type  1   force =    -0.00328051    0.00683411    0.00409581
     atom   40 type  1   force =     0.01146784   -0.00167101   -0.01511530
     atom   41 type  1   force =     0.01165197    0.02283551    0.00468551
     atom   42 type  1   force =    -0.02761758   -0.03912837   -0.00631814
     atom   43 type  1   force =     0.01905228    0.01555147    0.04285001
     atom   44 type  1   force =     0.01980090   -0.01730808    0.01788069
     atom   45 type  1   force =     0.03691348    0.02923685    0.02032509
     atom   46 type  1   force =    -0.01729335   -0.02145145   -0.01766224
     atom   47 type  1   force =     0.00128712    0.03713634   -0.02364043
     atom   48 type  1   force =    -0.01274212   -0.01011979    0.02386124
     atom   49 type  1   force =    -0.00600207   -0.00583691    0.00015092
     atom   50 type  1   force =    -0.00466637    0.02116518    0.01930649
     atom   51 type  1   force =     0.03972634    0.00794554    0.01828469
     atom   52 type  1   force =    -0.02573361   -0.00075941   -0.02167936
     atom   53 type  1   force =    -0.00565519   -0.00514638    0.00987042
     atom   54 type  1   force =     0.00284610   -0.02873080   -0.02530183
     atom   55 type  1   force =     0.02758998    0.00482526   -0.02471413
     atom   56 type  1   force =     0.01791969   -0.00549225   -0.03748318
     atom   57 type  1   force =     0.06072727    0.01865370    0.01075054
     atom   58 type  1   force =     0.01852686    0.00237409   -0.02625702
     atom   59 type  1   force =     0.02014285    0.00897452    0.05135887
     atom   60 type  1   force =    -0.02423172    0.00682944   -0.04980476
     atom   61 type  1   force =    -0.00105731    0.00839105    0.02801741
     atom   62 type  1   force =    -0.03971468   -0.03797802   -0.03109846
     atom   63 type  1   force =     0.02751863    0.03274307    0.03363569
     atom   64 type  1   force =    -0.00882885   -0.02101044   -0.01188433

     Total force =     0.306231     Total SCF correction =     0.000656


     Computing stress (Cartesian axis) and pressure

          total   stress  (Ry/bohr**3)                   (kbar)     P=       29.63
   0.00024329   0.00005345   0.00001186           35.79        7.86        1.75
   0.00005345   0.00024718   0.00003994            7.86       36.36        5.88
   0.00001186   0.00003994   0.00011379            1.75        5.88       16.74

 
     init_run     :      0.95s CPU      1.38s WALL (       1 calls)
     electrons    :      1.62s CPU      1.69s WALL (       1 calls)
     forces       :      0.06s CPU      0.06s WALL (       1 calls)
     stress       :      0.23s CPU      0.23s WALL (       1 calls)

     Called by init_run:
     wfcinit      :      0.58s CPU      0.89s WALL (       1 calls)
                                        0.89s GPU  (       1 calls)
     potinit      :      0.23s CPU      0.28s WALL (       1 calls)
     hinit0       :      0.11s CPU      0.12s WALL (       1 calls)

     Called by electrons:
     c_bands      :      1.04s CPU      1.05s WALL (      11 calls)
     sum_band     :      0.23s CPU      0.24s WALL (      11 calls)
     v_of_rho     :      0.15s CPU      0.22s WALL (      11 calls)
     mix_rho      :      0.20s CPU      0.22s WALL (      11 calls)

     Called by c_bands:
     init_us_2    :      0.03s CPU      0.03s WALL (      23 calls)
     init_us_2:gp :      0.03s CPU      0.03s WALL (      23 calls)
     regterg      :      0.94s CPU      0.95s WALL (      11 calls)

     Called by *egterg:
     rdiaghg      :      0.36s CPU      0.41s WALL (      77 calls)
                                        0.40s GPU  (      77 calls)
     h_psi        :      0.98s CPU      1.24s WALL (      79 calls)
                                        1.24s GPU  (      79 calls)
     g_psi        :      0.00s CPU      0.00s WALL (      67 calls)
                                        0.00s GPU  (      67 calls)

     Called by h_psi:
     h_psi:calbec :      0.45s CPU      0.74s WALL (      79 calls)
                                        0.74s GPU  (      79 calls)
     vloc_psi     :      0.43s CPU      0.43s WALL (      79 calls)
                                        0.43s GPU  (      79 calls)
     add_vuspsi   :      0.03s CPU      0.06s WALL (      79 calls)
                                        0.06s GPU  (      79 calls)

     General routines
     calbec       :      0.45s CPU      0.71s WALL (      84 calls)
     fft          :      0.16s CPU      0.17s WALL (      95 calls)
                                        0.03s GPU  (      59 calls)
     ffts         :      0.04s CPU      0.04s WALL (      11 calls)
     fftw         :      0.03s CPU      0.48s WALL (    1074 calls)
                                        0.39s GPU  (    1074 calls)
 
     Parallel routines
 
     PWSCF        :      2.89s CPU      3.42s WALL

 
   This run was terminated on:  22: 0:44   8Jul2023            

=------------------------------------------------------------------------------=
   JOB DONE.
=------------------------------------------------------------------------------=
