
     Program PWSCF v.7.0 starts on  8Jul2023 at 21:56:33 

     This program is part of the open-source Quantum ESPRESSO suite
     for quantum simulation of materials; please cite
         "P. Giannozzi et al., J. Phys.:Condens. Matter 21 395502 (2009);
         "P. Giannozzi et al., J. Phys.:Condens. Matter 29 465901 (2017);
         "P. Giannozzi et al., J. Chem. Phys. 152 154105 (2020);
          URL http://www.quantum-espresso.org", 
     in publications or presentations arising from this work. More details at
     http://www.quantum-espresso.org/quote

     Parallel version (MPI & OpenMP), running on       1 processor cores
     Number of MPI processes:                 1
     Threads/MPI process:                     1

     MPI processes distributed on     1 nodes
     109271 MiB available memory on the printing compute node when the environment starts
 
     Reading input from pw-si-21.in
Warning: card &CELL ignored
Warning: card / ignored

     Current dimensions of program PWSCF are:
     Max number of different atomic species (ntypx) = 10
     Max number of k-points (npk) =  40000
     Max angular momentum in pseudopotentials (lmaxx) =  4

     IMPORTANT: XC functional enforced from input :
     Exchange-correlation= PBE
                           (   1   4   3   4   0   0   0)
     Any further DFT definition will be discarded
     Please, verify this is what you really want


     gamma-point specific algorithms are used

     Subspace diagonalization in iterative solution of the eigenvalue problem:
     a serial algorithm will be used

 
     G-vector sticks info
     --------------------
     sticks:   dense  smooth     PW     G-vecs:    dense   smooth      PW
     Sum        4067    4067   1023               192465   192465   24041
 
     Using Slab Decomposition
 


     bravais-lattice index     =            0
     lattice parameter (alat)  =      20.4546  a.u.
     unit-cell volume          =    8671.6158 (a.u.)^3
     number of atoms/cell      =           64
     number of atomic types    =            1
     number of electrons       =       256.00
     number of Kohn-Sham states=          128
     kinetic-energy cutoff     =      30.0000  Ry
     charge density cutoff     =     120.0000  Ry
     scf convergence threshold =      1.0E-06
     mixing beta               =       0.5000
     number of iterations used =            8  plain     mixing
     Exchange-correlation= PBE
                           (   1   4   3   4   0   0   0)

     GPU acceleration is ACTIVE.


     celldm(1)=  20.454570  celldm(2)=   0.000000  celldm(3)=   0.000000
     celldm(4)=   0.000000  celldm(5)=   0.000000  celldm(6)=   0.000000

     crystal axes: (cart. coord. in units of alat)
               a(1) = (   1.000000   0.000000   0.000000 )  
               a(2) = (   0.000000   1.020741   0.000000 )  
               a(3) = (   0.000000   0.000000   0.992690 )  

     reciprocal axes: (cart. coord. in units 2 pi/alat)
               b(1) = (  1.000000  0.000000  0.000000 )  
               b(2) = (  0.000000  0.979681  0.000000 )  
               b(3) = (  0.000000  0.000000  1.007364 )  


     PseudoPot. # 1 for Si read from file:
     ./Si_ONCV_PBE-1.0.upf
     MD5 check sum: 2de5a83d12544a9ea852f39b88f19b1f
     Pseudo is Norm-conserving, Zval =  4.0
     Generated using ONCVPSP code by D. R. Hamann
     Using radial grid of  602 points,  4 beta functions with: 
                l(1) =   0
                l(2) =   0
                l(3) =   1
                l(4) =   1

     atomic species   valence    mass     pseudopotential
        Si             4.00    28.08500     Si( 1.00)

     No symmetry found



   Cartesian axes

     site n.     atom                  positions (alat units)
         1           Si  tau(   1) = (   0.3738097   0.3831682   0.1247118  )
         2           Si  tau(   2) = (  -0.0042252   0.2558431   0.2518419  )
         3           Si  tau(   3) = (   0.3694114   0.1249485   0.3781505  )
         4           Si  tau(   4) = (  -0.0016137  -0.0003409   0.0045337  )
         5           Si  tau(   5) = (   0.1216025   0.3840813   0.3819053  )
         6           Si  tau(   6) = (   0.2428914   0.2570630   0.0026915  )
         7           Si  tau(   7) = (   0.1222784   0.1255399   0.1251886  )
         8           Si  tau(   8) = (   0.2425887  -0.0005674   0.2536587  )
         9           Si  tau(   9) = (   0.3738184   0.3829859   0.6270004  )
        10           Si  tau(  10) = (  -0.0024646   0.2588521   0.7596056  )
        11           Si  tau(  11) = (   0.3726553   0.1257836   0.8857433  )
        12           Si  tau(  12) = (   0.0005911  -0.0037997   0.5044862  )
        13           Si  tau(  13) = (   0.1256906   0.3802618   0.8796236  )
        14           Si  tau(  14) = (   0.2458890   0.2521495   0.5055435  )
        15           Si  tau(  15) = (   0.1277570   0.1236533   0.6323155  )
        16           Si  tau(  16) = (   0.2464486   0.0015327   0.7564291  )
        17           Si  tau(  17) = (   0.3664030   0.8874325   0.1265653  )
        18           Si  tau(  18) = (  -0.0018570   0.7614809   0.2507023  )
        19           Si  tau(  19) = (   0.3717602   0.6345407   0.3744374  )
        20           Si  tau(  20) = (  -0.0016054   0.5104013  -0.0002255  )
        21           Si  tau(  21) = (   0.1239884   0.8912315   0.3746080  )
        22           Si  tau(  22) = (   0.2483313   0.7640259   0.0022337  )
        23           Si  tau(  23) = (   0.1252805   0.6363824   0.1281739  )
        24           Si  tau(  24) = (   0.2492883   0.5101397   0.2508683  )
        25           Si  tau(  25) = (   0.3675630   0.8904795   0.6292026  )
        26           Si  tau(  26) = (  -0.0032623   0.7675522   0.7531109  )
        27           Si  tau(  27) = (   0.3686068   0.6376024   0.8853683  )
        28           Si  tau(  28) = (  -0.0021251   0.5091030   0.5023705  )
        29           Si  tau(  29) = (   0.1229827   0.8872315   0.8805091  )
        30           Si  tau(  30) = (   0.2444975   0.7614106   0.5062992  )
        31           Si  tau(  31) = (   0.1277996   0.6411645   0.6296820  )
        32           Si  tau(  32) = (   0.2451053   0.5120095   0.7568399  )
        33           Si  tau(  33) = (   0.8612320   0.3786084   0.1277227  )
        34           Si  tau(  34) = (   0.4913543   0.2517322   0.2519975  )
        35           Si  tau(  35) = (   0.8608178   0.1280394   0.3753122  )
        36           Si  tau(  36) = (   0.4948345   0.0035829  -0.0014433  )
        37           Si  tau(  37) = (   0.6214433   0.3821157   0.3793113  )
        38           Si  tau(  38) = (   0.7411271   0.2525537   0.0000786  )
        39           Si  tau(  39) = (   0.6193206   0.1308758   0.1307093  )
        40           Si  tau(  40) = (   0.7385135   0.0038521   0.2560019  )
        41           Si  tau(  41) = (   0.8601758   0.3796720   0.6272327  )
        42           Si  tau(  42) = (   0.4904922   0.2523784   0.7556193  )
        43           Si  tau(  43) = (   0.8675367   0.1285762   0.8822501  )
        44           Si  tau(  44) = (   0.4979368  -0.0019643   0.5067025  )
        45           Si  tau(  45) = (   0.6131527   0.3813005   0.8790837  )
        46           Si  tau(  46) = (   0.7436051   0.2552698   0.5071049  )
        47           Si  tau(  47) = (   0.6194604   0.1317595   0.6350146  )
        48           Si  tau(  48) = (   0.7413454  -0.0022216   0.7597051  )
        49           Si  tau(  49) = (   0.8668929   0.8915416   0.1278628  )
        50           Si  tau(  50) = (   0.4967732   0.7657475   0.2494415  )
        51           Si  tau(  51) = (   0.8623261   0.6374567   0.3738111  )
        52           Si  tau(  52) = (   0.4918487   0.5133984  -0.0029560  )
        53           Si  tau(  53) = (   0.6128795   0.8935791   0.3825638  )
        54           Si  tau(  54) = (   0.7413605   0.7621914  -0.0017023  )
        55           Si  tau(  55) = (   0.6182249   0.6334054   0.1221284  )
        56           Si  tau(  56) = (   0.7389236   0.5089757   0.2549434  )
        57           Si  tau(  57) = (   0.8622616   0.8926464   0.6281976  )
        58           Si  tau(  58) = (   0.4977951   0.7688512   0.7561309  )
        59           Si  tau(  59) = (   0.8624068   0.6375278   0.8829334  )
        60           Si  tau(  60) = (   0.4911844   0.5093674   0.5056861  )
        61           Si  tau(  61) = (   0.6195400   0.8964615   0.8872287  )
        62           Si  tau(  62) = (   0.7397292   0.7679615   0.5044060  )
        63           Si  tau(  63) = (   0.6147079   0.6391503   0.6289278  )
        64           Si  tau(  64) = (   0.7439294   0.5086542   0.7593308  )

     number of k points=     1
                       cart. coord. in units 2pi/alat
        k(    1) = (   0.0000000   0.0000000   0.0000000), wk =   2.0000000

     Dense  grid:    96233 G-vectors     FFT dimensions: (  72,  75,  72)

     Estimated max dynamical RAM per process >     280.44 MB

     Initial potential from superposition of free atoms

     starting charge     253.0416, renormalised to     256.0000
     Starting wfcs are random

     total cpu time spent up to now is        1.4 secs

     Self-consistent Calculation

     iteration #  1     ecut=    30.00 Ry     beta= 0.50
     Davidson diagonalization with overlap
     ethr =  1.00E-02,  avg # of iterations = 12.0

     Threshold (ethr) on eigenvalues was too large:
     Diagonalizing with lowered threshold

     Davidson diagonalization with overlap
     ethr =  6.31E-04,  avg # of iterations = 10.0

     total cpu time spent up to now is        1.8 secs

     total energy              =    -503.69829049 Ry
     estimated scf accuracy    <       1.90506717 Ry

     iteration #  2     ecut=    30.00 Ry     beta= 0.50
     Davidson diagonalization with overlap
     ethr =  7.44E-04,  avg # of iterations =  1.0

     total cpu time spent up to now is        1.9 secs

     total energy              =    -503.69313665 Ry
     estimated scf accuracy    <       0.34660455 Ry

     iteration #  3     ecut=    30.00 Ry     beta= 0.50
     Davidson diagonalization with overlap
     ethr =  1.35E-04,  avg # of iterations =  2.0

     total cpu time spent up to now is        2.0 secs

     total energy              =    -503.71910380 Ry
     estimated scf accuracy    <       0.00531793 Ry

     iteration #  4     ecut=    30.00 Ry     beta= 0.50
     Davidson diagonalization with overlap
     ethr =  2.08E-06,  avg # of iterations = 12.0

     total cpu time spent up to now is        2.2 secs

     total energy              =    -503.72639415 Ry
     estimated scf accuracy    <       0.00205845 Ry

     iteration #  5     ecut=    30.00 Ry     beta= 0.50
     Davidson diagonalization with overlap
     ethr =  8.04E-07,  avg # of iterations =  3.0

     total cpu time spent up to now is        2.3 secs

     total energy              =    -503.72681939 Ry
     estimated scf accuracy    <       0.00053110 Ry

     iteration #  6     ecut=    30.00 Ry     beta= 0.50
     Davidson diagonalization with overlap
     ethr =  2.07E-07,  avg # of iterations =  7.0

     total cpu time spent up to now is        2.5 secs

     total energy              =    -503.72688632 Ry
     estimated scf accuracy    <       0.00007091 Ry

     iteration #  7     ecut=    30.00 Ry     beta= 0.50
     Davidson diagonalization with overlap
     ethr =  2.77E-08,  avg # of iterations =  4.0

     total cpu time spent up to now is        2.6 secs

     total energy              =    -503.72690241 Ry
     estimated scf accuracy    <       0.00002259 Ry

     iteration #  8     ecut=    30.00 Ry     beta= 0.50
     Davidson diagonalization with overlap
     ethr =  8.83E-09,  avg # of iterations =  6.0

     total cpu time spent up to now is        2.8 secs

     total energy              =    -503.72690774 Ry
     estimated scf accuracy    <       0.00000266 Ry

     iteration #  9     ecut=    30.00 Ry     beta= 0.50
     Davidson diagonalization with overlap
     ethr =  1.04E-09,  avg # of iterations =  5.0

     total cpu time spent up to now is        2.9 secs

     total energy              =    -503.72690792 Ry
     estimated scf accuracy    <       0.00000255 Ry

     iteration # 10     ecut=    30.00 Ry     beta= 0.50
     Davidson diagonalization with overlap
     ethr =  9.95E-10,  avg # of iterations =  3.0

     total cpu time spent up to now is        3.0 secs

     End of self-consistent calculation

          k = 0.0000 0.0000 0.0000 ( 12021 PWs)   bands (ev):

    -5.7671  -4.7760  -4.7337  -4.7183  -4.6949  -4.5716  -4.5355  -3.9650
    -3.8476  -3.8200  -3.8016  -3.7373  -3.6846  -3.6769  -3.6450  -3.5971
    -3.5817  -3.5461  -3.4595  -3.4415  -3.3725  -3.3090  -3.1815  -1.8647
    -1.8249  -1.6510  -1.5907  -1.5640  -1.5345  -1.5023  -1.4837  -1.4551
    -1.4079  -1.4012  -1.3793  -1.3703  -1.3499  -1.3202  -1.3042  -1.2614
    -1.2026  -0.8087  -0.7577  -0.7195  -0.5984   0.6161   0.6475   0.6581
     0.6686   0.7180   0.7514   0.7734   0.7856   0.8077   0.8411   0.8667
     0.8809   2.1236   2.1748   2.2176   2.2245   2.2535   2.2971   2.3391
     2.3457   2.3675   2.3721   2.4058   2.4245   2.4596   2.4706   2.4979
     2.5093   2.5110   2.5408   2.5511   2.5557   2.5872   2.6018   2.6208
     2.6656   2.7420   2.7525   2.7655   2.8319   2.8745   2.9009   3.2014
     3.3112   3.3435   3.3564   3.5266   3.5566   4.1381   4.1864   4.2223
     4.2373   4.3012   4.3396   4.3866   4.4086   4.4451   4.4687   4.4755
     4.4816   4.5522   4.7540   4.8148   4.8306   4.8559   4.8688   4.8869
     4.9218   4.9648   4.9683   5.0073   5.0400   5.0552   5.1104   5.1177
     5.1848   5.1916   5.2182   5.2384   5.4205   6.1600   6.2911   6.3828

     highest occupied level (ev):     6.3828

!    total energy              =    -503.72690825 Ry
     estimated scf accuracy    <       0.00000018 Ry

     The total energy is the sum of the following terms:
     one-electron contribution =     149.67265654 Ry
     hartree contribution      =      36.92871473 Ry
     xc contribution           =    -154.40362089 Ry
     ewald contribution        =    -535.92465863 Ry

     convergence has been achieved in  10 iterations

     Forces acting on atoms (cartesian axes, Ry/au):

     atom    1 type  1   force =    -0.01565455   -0.00198434    0.00675461
     atom    2 type  1   force =    -0.01370959   -0.00489855    0.00616884
     atom    3 type  1   force =     0.00275754   -0.00508310    0.01063107
     atom    4 type  1   force =    -0.02187257   -0.01579085    0.01458048
     atom    5 type  1   force =     0.00719609   -0.01666998   -0.02400863
     atom    6 type  1   force =     0.03573356   -0.02380978    0.04664140
     atom    7 type  1   force =    -0.01110843    0.01616209    0.02250187
     atom    8 type  1   force =     0.02266906   -0.00367180   -0.01397572
     atom    9 type  1   force =    -0.03656757   -0.01040628    0.02166845
     atom   10 type  1   force =    -0.01994417   -0.02519990   -0.03797166
     atom   11 type  1   force =    -0.04480403    0.03055542   -0.06640093
     atom   12 type  1   force =    -0.03539490    0.01489597   -0.01002286
     atom   13 type  1   force =    -0.03007671    0.03335464   -0.03852279
     atom   14 type  1   force =     0.00611929    0.01207053   -0.00733720
     atom   15 type  1   force =    -0.04549838    0.02315638   -0.00363585
     atom   16 type  1   force =     0.01543940   -0.02942385    0.01605369
     atom   17 type  1   force =     0.02132606    0.04410533    0.00650998
     atom   18 type  1   force =    -0.02218166    0.01060494    0.00558704
     atom   19 type  1   force =    -0.00107034    0.02019520    0.01666624
     atom   20 type  1   force =    -0.02496119   -0.00796745    0.05012754
     atom   21 type  1   force =    -0.02031411   -0.01699476    0.02474382
     atom   22 type  1   force =    -0.02570218   -0.00474261    0.04312697
     atom   23 type  1   force =    -0.01469115   -0.00318761   -0.01007914
     atom   24 type  1   force =    -0.01021567   -0.02023211    0.00946495
     atom   25 type  1   force =     0.01145956    0.01326195    0.00634566
     atom   26 type  1   force =    -0.02921011   -0.01723128   -0.00139128
     atom   27 type  1   force =     0.00501875    0.01911605   -0.08745992
     atom   28 type  1   force =    -0.03443823    0.01996682    0.01709742
     atom   29 type  1   force =    -0.01314813    0.03542965   -0.03453278
     atom   30 type  1   force =     0.02859587    0.02065596   -0.04516770
     atom   31 type  1   force =    -0.05421463   -0.02999884    0.01071537
     atom   32 type  1   force =     0.02164885   -0.01152713   -0.01349342
     atom   33 type  1   force =     0.03826707    0.02175364   -0.00414423
     atom   34 type  1   force =     0.01247388    0.02386151    0.01498609
     atom   35 type  1   force =     0.06136651    0.00295581    0.02995646
     atom   36 type  1   force =     0.00762516   -0.02653928    0.10210072
     atom   37 type  1   force =    -0.03321814   -0.01077408    0.01209417
     atom   38 type  1   force =    -0.01341054    0.01715200    0.04126372
     atom   39 type  1   force =    -0.01068438   -0.01727219   -0.01886863
     atom   40 type  1   force =     0.00102995   -0.04083808   -0.01093776
     atom   41 type  1   force =     0.06683123    0.02948375    0.02723248
     atom   42 type  1   force =     0.00146511    0.01440749   -0.00024918
     atom   43 type  1   force =     0.03104131   -0.01733250   -0.04077346
     atom   44 type  1   force =    -0.02970372    0.02345138    0.01395702
     atom   45 type  1   force =     0.01765924   -0.00399739   -0.03383648
     atom   46 type  1   force =    -0.01838673   -0.01861306   -0.02465248
     atom   47 type  1   force =     0.00126233   -0.02896388   -0.01242516
     atom   48 type  1   force =     0.01377729    0.01764987   -0.01443265
     atom   49 type  1   force =     0.00556858    0.00445783    0.00695581
     atom   50 type  1   force =    -0.00518428   -0.01190462    0.00740086
     atom   51 type  1   force =     0.03571602    0.00764208    0.02548560
     atom   52 type  1   force =     0.01799572   -0.03284152    0.05755583
     atom   53 type  1   force =     0.02706375   -0.00358111   -0.02809727
     atom   54 type  1   force =    -0.00072377    0.02373313    0.07407927
     atom   55 type  1   force =     0.00241989    0.01421272    0.02207798
     atom   56 type  1   force =     0.00892456   -0.00281601   -0.02530420
     atom   57 type  1   force =     0.03839780    0.00960188    0.00744879
     atom   58 type  1   force =    -0.02055626   -0.00523226    0.01109152
     atom   59 type  1   force =     0.06717005   -0.01148724   -0.06162321
     atom   60 type  1   force =     0.02824216    0.00683606   -0.02488614
     atom   61 type  1   force =    -0.00341917   -0.01800798   -0.06440023
     atom   62 type  1   force =     0.00094122   -0.02237579   -0.01257333
     atom   63 type  1   force =     0.02203077   -0.01147760    0.01239771
     atom   64 type  1   force =    -0.02516834    0.00214477   -0.03026513

     Total force =     0.372542     Total SCF correction =     0.000692


     Computing stress (Cartesian axis) and pressure

          total   stress  (Ry/bohr**3)                   (kbar)     P=       31.95
   0.00024813  -0.00004802   0.00001819           36.50       -7.06        2.68
  -0.00004802   0.00012949   0.00001680           -7.06       19.05        2.47
   0.00001819   0.00001680   0.00027398            2.68        2.47       40.30

 
     init_run     :      0.89s CPU      1.34s WALL (       1 calls)
     electrons    :      1.61s CPU      1.67s WALL (       1 calls)
     forces       :      0.07s CPU      0.07s WALL (       1 calls)
     stress       :      0.22s CPU      0.25s WALL (       1 calls)

     Called by init_run:
     wfcinit      :      0.53s CPU      0.86s WALL (       1 calls)
                                        0.86s GPU  (       1 calls)
     potinit      :      0.21s CPU      0.27s WALL (       1 calls)
     hinit0       :      0.11s CPU      0.12s WALL (       1 calls)

     Called by electrons:
     c_bands      :      1.02s CPU      1.04s WALL (      11 calls)
     sum_band     :      0.23s CPU      0.24s WALL (      11 calls)
     v_of_rho     :      0.15s CPU      0.21s WALL (      11 calls)
     mix_rho      :      0.21s CPU      0.21s WALL (      11 calls)

     Called by c_bands:
     init_us_2    :      0.03s CPU      0.03s WALL (      23 calls)
     init_us_2:gp :      0.03s CPU      0.03s WALL (      23 calls)
     regterg      :      0.92s CPU      0.93s WALL (      11 calls)

     Called by *egterg:
     rdiaghg      :      0.36s CPU      0.40s WALL (      75 calls)
                                        0.39s GPU  (      75 calls)
     h_psi        :      0.91s CPU      1.21s WALL (      77 calls)
                                        1.20s GPU  (      77 calls)
     g_psi        :      0.00s CPU      0.00s WALL (      65 calls)
                                        0.00s GPU  (      65 calls)

     Called by h_psi:
     h_psi:calbec :      0.40s CPU      0.71s WALL (      77 calls)
                                        0.71s GPU  (      77 calls)
     vloc_psi     :      0.41s CPU      0.43s WALL (      77 calls)
                                        0.42s GPU  (      77 calls)
     add_vuspsi   :      0.03s CPU      0.06s WALL (      77 calls)
                                        0.06s GPU  (      77 calls)

     General routines
     calbec       :      0.40s CPU      0.68s WALL (      82 calls)
     fft          :      0.16s CPU      0.17s WALL (      95 calls)
                                        0.03s GPU  (      59 calls)
     ffts         :      0.04s CPU      0.04s WALL (      11 calls)
     fftw         :      0.03s CPU      0.48s WALL (    1066 calls)
                                        0.39s GPU  (    1066 calls)
 
     Parallel routines
 
     PWSCF        :      2.81s CPU      3.37s WALL

 
   This run was terminated on:  21:56:36   8Jul2023            

=------------------------------------------------------------------------------=
   JOB DONE.
=------------------------------------------------------------------------------=
