An instance of this daemon is already running

     Program PWSCF v.7.1 starts on 10May2023 at 11:20:40 

     This program is part of the open-source Quantum ESPRESSO suite
     for quantum simulation of materials; please cite
         "P. Giannozzi et al., J. Phys.:Condens. Matter 21 395502 (2009);
         "P. Giannozzi et al., J. Phys.:Condens. Matter 29 465901 (2017);
         "P. Giannozzi et al., J. Chem. Phys. 152 154105 (2020);
          URL http://www.quantum-espresso.org", 
     in publications or presentations arising from this work. More details at
     http://www.quantum-espresso.org/quote

     Parallel version (MPI & OpenMP), running on       4 processor cores
     Number of MPI processes:                 4
     Threads/MPI process:                     1

     MPI processes distributed on     1 nodes
     150327 MiB available memory on the printing compute node when the environment starts
 
     Reading input from pw-si-76.in
Warning: card &CELL ignored
Warning: card / ignored

     Current dimensions of program PWSCF are:
     Max number of different atomic species (ntypx) = 10
     Max number of k-points (npk) =  40000
     Max angular momentum in pseudopotentials (lmaxx) =  4

     IMPORTANT: XC functional enforced from input :
     Exchange-correlation= PBE
                           (   1   4   3   4   0   0   0)
     Any further DFT definition will be discarded
     Please, verify this is what you really want


     gamma-point specific algorithms are used
 
     K-points division:     npool     =       2
     R & G space division:  proc/nbgrp/npool/nimage =       2
     Subspace diagonalization in iterative solution of the eigenvalue problem:
     a serial algorithm will be used

     Message from routine divide_et_impera:
     suboptimal parallelization: some nodes have no k-points
 
     Parallelization info
     --------------------
     sticks:   dense  smooth     PW     G-vecs:    dense   smooth      PW
     Min        2068    2068    545                99760    99760   13561
     Max        2069    2069    548                99761    99761   13564
     Sum        4137    4137   1093               199521   199521   27125
 
     Using Slab Decomposition
 


     bravais-lattice index     =            0
     lattice parameter (alat)  =      20.7570  a.u.
     unit-cell volume          =    8989.3189 (a.u.)^3
     number of atoms/cell      =           64
     number of atomic types    =            1
     number of electrons       =       256.00
     number of Kohn-Sham states=          154
     kinetic-energy cutoff     =      30.0000  Ry
     charge density cutoff     =     120.0000  Ry
     scf convergence threshold =      1.0E-06
     mixing beta               =       0.5000
     number of iterations used =            8  plain     mixing
     Exchange-correlation= PBE
                           (   1   4   3   4   0   0   0)

     GPU acceleration is ACTIVE.
     GPU-aware MPI enabled

     Message from routine print_cuda_info:
     High GPU oversubscription detected. Are you sure this is what you want?

     celldm(1)=  20.756984  celldm(2)=   0.000000  celldm(3)=   0.000000
     celldm(4)=   0.000000  celldm(5)=   0.000000  celldm(6)=   0.000000

     crystal axes: (cart. coord. in units of alat)
               a(1) = (   1.000000   0.000000   0.000000 )  
               a(2) = (   0.000000   1.004217   0.000000 )  
               a(3) = (   0.000000   0.000000   1.000936 )  

     reciprocal axes: (cart. coord. in units 2 pi/alat)
               b(1) = (  1.000000  0.000000  0.000000 )  
               b(2) = (  0.000000  0.995800  0.000000 )  
               b(3) = (  0.000000  0.000000  0.999065 )  


     PseudoPot. # 1 for Si read from file:
     /home/ppiaggi/pseudos/Si_ONCV_PBE_sr.upf
     MD5 check sum: 8553c464762ac42b85b1eed164b4d029
     Pseudo is Norm-conserving, Zval =  4.0
     Generated using ONCVPSP code by D. R. Hamann
     Using radial grid of 1510 points,  4 beta functions with: 
                l(1) =   0
                l(2) =   0
                l(3) =   1
                l(4) =   1

     atomic species   valence    mass     pseudopotential
        Si             4.00    28.08500     Si( 1.00)

     No symmetry found



   Cartesian axes

     site n.     atom                  positions (alat units)
         1           Si  tau(   1) = (   0.0008791  -0.0015554   0.0038985  )
         2           Si  tau(   2) = (   0.0026846   0.2516691   0.2486562  )
         3           Si  tau(   3) = (   0.2540438   0.0011266   0.2460875  )
         4           Si  tau(   4) = (   0.2493632   0.2471477   0.0039755  )
         5           Si  tau(   5) = (   0.1270855   0.1254955   0.1261201  )
         6           Si  tau(   6) = (   0.5002570  -0.0014631   0.0033049  )
         7           Si  tau(   7) = (   0.4983030   0.2525878   0.2511895  )
         8           Si  tau(   8) = (   0.6272276   0.1236945   0.1273349  )
         9           Si  tau(   9) = (   0.7499122   0.0024679   0.2499640  )
        10           Si  tau(  10) = (   0.7533952   0.2478976   0.0042132  )
        11           Si  tau(  11) = (   0.0017507   0.5059483   0.0004131  )
        12           Si  tau(  12) = (   0.2518739   0.4996326   0.2502214  )
        13           Si  tau(  13) = (   0.1250113   0.6276174   0.1242047  )
        14           Si  tau(  14) = (   0.3756734   0.3757225   0.1275725  )
        15           Si  tau(  15) = (   0.5045169   0.5058256  -0.0013824  )
        16           Si  tau(  16) = (   0.6287176   0.6274550   0.1266704  )
        17           Si  tau(  17) = (   0.8819377   0.3778875   0.1267089  )
        18           Si  tau(  18) = (   0.7568053   0.5013604   0.2464702  )
        19           Si  tau(  19) = (   0.0023109   0.7536625   0.2480753  )
        20           Si  tau(  20) = (   0.2505475   0.7521530  -0.0001158  )
        21           Si  tau(  21) = (   0.3756012   0.8776195   0.1275819  )
        22           Si  tau(  22) = (   0.5001133   0.7503458   0.2466917  )
        23           Si  tau(  23) = (   0.7556350   0.7507620  -0.0000327  )
        24           Si  tau(  24) = (   0.8812957   0.8779013   0.1192836  )
        25           Si  tau(  25) = (  -0.0042852   0.0002673   0.4924450  )
        26           Si  tau(  26) = (   0.2533029   0.2504944   0.4915307  )
        27           Si  tau(  27) = (   0.1256408   0.1222857   0.6204815  )
        28           Si  tau(  28) = (   0.3739815   0.1224073   0.3684377  )
        29           Si  tau(  29) = (   0.5047456  -0.0040676   0.4942268  )
        30           Si  tau(  30) = (   0.6312864   0.1222526   0.6137245  )
        31           Si  tau(  31) = (   0.8816339   0.1249094   0.3732211  )
        32           Si  tau(  32) = (   0.7494941   0.2519442   0.4933089  )
        33           Si  tau(  33) = (   0.1213175   0.3806424   0.3745303  )
        34           Si  tau(  34) = (   0.0028502   0.5015129   0.4897732  )
        35           Si  tau(  35) = (   0.1219992   0.6232730   0.6153910  )
        36           Si  tau(  36) = (   0.6258507   0.3770834   0.3742241  )
        37           Si  tau(  37) = (   0.3723500   0.6242627   0.3733123  )
        38           Si  tau(  38) = (   0.3772831   0.3794311   0.6204228  )
        39           Si  tau(  39) = (   0.5051626   0.5050966   0.4918035  )
        40           Si  tau(  40) = (   0.6312094   0.6304523   0.6156398  )
        41           Si  tau(  41) = (   0.8741141   0.6315009   0.3711032  )
        42           Si  tau(  42) = (   0.8771329   0.3803226   0.6214917  )
        43           Si  tau(  43) = (   0.1234256   0.8776600   0.3698665  )
        44           Si  tau(  44) = (   0.2471547   0.7551194   0.4928066  )
        45           Si  tau(  45) = (   0.6286641   0.8795079   0.3671275  )
        46           Si  tau(  46) = (   0.3741705   0.8811168   0.6169928  )
        47           Si  tau(  47) = (   0.7565180   0.7485595   0.4948177  )
        48           Si  tau(  48) = (   0.8824158   0.8803254   0.6183449  )
        49           Si  tau(  49) = (  -0.0020034   0.2464694   0.7390474  )
        50           Si  tau(  50) = (   0.2533333   0.0036459   0.7369676  )
        51           Si  tau(  51) = (   0.3772894   0.1247100   0.8629267  )
        52           Si  tau(  52) = (   0.5026656   0.2535131   0.7409079  )
        53           Si  tau(  53) = (   0.7492525  -0.0043823   0.7442794  )
        54           Si  tau(  54) = (   0.8814851   0.1284678   0.8648060  )
        55           Si  tau(  55) = (   0.1226474   0.3805964   0.8632378  )
        56           Si  tau(  56) = (   0.2476217   0.5007751   0.7399508  )
        57           Si  tau(  57) = (   0.6287406   0.3750141   0.8612607  )
        58           Si  tau(  58) = (   0.3767569   0.6263114   0.8605401  )
        59           Si  tau(  59) = (   0.7568288   0.5025891   0.7372040  )
        60           Si  tau(  60) = (   0.8767909   0.6311546   0.8670864  )
        61           Si  tau(  61) = (  -0.0010363   0.7556891   0.7415689  )
        62           Si  tau(  62) = (   0.1213240   0.8762647   0.8600843  )
        63           Si  tau(  63) = (   0.5016011   0.7495860   0.7428937  )
        64           Si  tau(  64) = (   0.6258175   0.8765504   0.8654095  )

     number of k points=     1  Fermi-Dirac smearing, width (Ry)=  0.0100
                       cart. coord. in units 2pi/alat
        k(    1) = (   0.0000000   0.0000000   0.0000000), wk =   2.0000000

     Dense  grid:    99761 G-vectors     FFT dimensions: (  75,  75,  75)

     Estimated max dynamical RAM per process >     160.43 MB

     Estimated total dynamical RAM >     617.36 MB

     Initial potential from superposition of free atoms

     starting charge     255.9608, renormalised to     256.0000
     Starting wfcs are  256 randomized atomic wfcs

     total cpu time spent up to now is        4.0 secs

     Self-consistent Calculation

     iteration #  1     ecut=    30.00 Ry     beta= 0.50
     Davidson diagonalization with overlap
     ethr =  1.00E-02,  avg # of iterations =  3.0

     Threshold (ethr) on eigenvalues was too large:
     Diagonalizing with lowered threshold

     Davidson diagonalization with overlap
     ethr =  6.44E-04,  avg # of iterations =  3.0

     total cpu time spent up to now is        4.2 secs

     total energy              =    -503.84761237 Ry
     estimated scf accuracy    <       1.82420351 Ry

     iteration #  2     ecut=    30.00 Ry     beta= 0.50
     Davidson diagonalization with overlap
     ethr =  7.13E-04,  avg # of iterations =  1.0

     total cpu time spent up to now is        4.3 secs

     total energy              =    -503.83105472 Ry
     estimated scf accuracy    <       0.34311121 Ry

     iteration #  3     ecut=    30.00 Ry     beta= 0.50
     Davidson diagonalization with overlap
     ethr =  1.34E-04,  avg # of iterations =  5.0

     total cpu time spent up to now is        4.4 secs

     total energy              =    -503.85070146 Ry
     estimated scf accuracy    <       0.02031809 Ry

     iteration #  4     ecut=    30.00 Ry     beta= 0.50
     Davidson diagonalization with overlap
     c_bands:  1 eigenvalues not converged
     ethr =  7.94E-06,  avg # of iterations = 20.0

     total cpu time spent up to now is        4.6 secs

     total energy              =    -503.85527743 Ry
     estimated scf accuracy    <       0.00932201 Ry

     iteration #  5     ecut=    30.00 Ry     beta= 0.50
     Davidson diagonalization with overlap
     ethr =  3.64E-06,  avg # of iterations =  5.0

     total cpu time spent up to now is        4.8 secs

     total energy              =    -503.85699081 Ry
     estimated scf accuracy    <       0.00168343 Ry

     iteration #  6     ecut=    30.00 Ry     beta= 0.50
     Davidson diagonalization with overlap
     ethr =  6.58E-07,  avg # of iterations =  3.0

     total cpu time spent up to now is        4.9 secs

     total energy              =    -503.85710766 Ry
     estimated scf accuracy    <       0.00038244 Ry

     iteration #  7     ecut=    30.00 Ry     beta= 0.50
     Davidson diagonalization with overlap
     ethr =  1.49E-07,  avg # of iterations =  5.0

     total cpu time spent up to now is        5.0 secs

     total energy              =    -503.85716190 Ry
     estimated scf accuracy    <       0.00002106 Ry

     iteration #  8     ecut=    30.00 Ry     beta= 0.50
     Davidson diagonalization with overlap
     ethr =  8.23E-09,  avg # of iterations =  5.0

     total cpu time spent up to now is        5.1 secs

     total energy              =    -503.85716915 Ry
     estimated scf accuracy    <       0.00001742 Ry

     iteration #  9     ecut=    30.00 Ry     beta= 0.50
     Davidson diagonalization with overlap
     ethr =  6.80E-09,  avg # of iterations =  3.0

     total cpu time spent up to now is        5.2 secs

     total energy              =    -503.85717100 Ry
     estimated scf accuracy    <       0.00000124 Ry

     iteration # 10     ecut=    30.00 Ry     beta= 0.50
     Davidson diagonalization with overlap
     ethr =  4.85E-10,  avg # of iterations =  5.0

     total cpu time spent up to now is        5.3 secs

     End of self-consistent calculation

          k = 0.0000 0.0000 0.0000 ( 12471 PWs)   bands (ev):

    -5.8894  -4.9293  -4.8784  -4.8558  -4.8243  -4.7995  -4.7103  -4.0493
    -4.0045  -3.9961  -3.9829  -3.9675  -3.9459  -3.9097  -3.8703  -3.8203
    -3.7937  -3.7782  -3.7188  -3.6863  -3.6426  -3.5802  -3.3596  -1.9960
    -1.9813  -1.9550  -1.9184  -1.8913  -1.8315  -1.7967  -1.7666  -1.7538
    -1.7301  -1.7183  -1.7071  -1.6521  -1.6330  -1.5712  -1.5693  -1.5455
    -1.4896  -1.0461  -0.9201  -0.8995  -0.8764   0.2931   0.3187   0.3748
     0.3969   0.4190   0.4281   0.4439   0.4616   0.4997   0.5128   0.5474
     0.5601   2.0121   2.0185   2.0251   2.0466   2.0524   2.0677   2.0843
     2.1001   2.1244   2.1414   2.1519   2.1669   2.1888   2.1909   2.2003
     2.2109   2.2231   2.2382   2.2558   2.2695   2.2820   2.2911   2.2999
     2.3490   2.3807   2.3905   2.4735   2.5206   2.5255   2.5572   3.0546
     3.0634   3.0659   3.0929   3.1541   3.1815   3.8912   3.9119   3.9727
     3.9858   4.0059   4.0190   4.0310   4.0647   4.0964   4.1172   4.1308
     4.2166   4.4067   4.4212   4.4522   4.4724   4.5024   4.5200   4.5654
     4.5721   4.5821   4.6188   4.6217   4.6599   4.6663   4.7089   4.7265
     4.7520   4.7593   4.7859   4.8203   5.2047   5.8087   5.8864   5.9940
     6.4634   6.5027   6.5576   6.5896   6.6786   6.7146   6.9285   6.9761
     6.9839   7.0182   7.0352   7.1069   7.1988   7.2042   7.2126   7.2574
     8.1102   8.1262   8.1464   8.1716   8.1813   8.2085   8.2251   8.2325
     8.2585   8.2746

     the Fermi energy is     6.1813 ev

!    total energy              =    -503.85717122 Ry
     estimated scf accuracy    <       0.00000036 Ry
     smearing contrib. (-TS)   =      -0.04929439 Ry
     internal energy E=F+TS    =    -503.80787682 Ry

     The total energy is F=E-TS. E is the sum of the following terms:
     one-electron contribution =     141.11208600 Ry
     hartree contribution      =      37.72175650 Ry
     xc contribution           =    -153.09287638 Ry
     ewald contribution        =    -529.54884295 Ry

     convergence has been achieved in  10 iterations

     Forces acting on atoms (cartesian axes, Ry/au):

     atom    1 type  1   force =     0.02182801    0.01909178   -0.06316384
     atom    2 type  1   force =     0.00743161   -0.00265224    0.00678050
     atom    3 type  1   force =    -0.02637075   -0.01726012    0.00826250
     atom    4 type  1   force =     0.01094662    0.02455063   -0.05597786
     atom    5 type  1   force =    -0.00846411   -0.00965654   -0.00396869
     atom    6 type  1   force =     0.00500067    0.00074485   -0.04162870
     atom    7 type  1   force =     0.01701283   -0.01144348   -0.00725682
     atom    8 type  1   force =    -0.01773093    0.01584950   -0.00860855
     atom    9 type  1   force =     0.03630854   -0.01309680   -0.01498909
     atom   10 type  1   force =     0.00542435    0.01696042   -0.04225343
     atom   11 type  1   force =    -0.00329381   -0.00883080   -0.03654279
     atom   12 type  1   force =    -0.01965510    0.00635673   -0.00929357
     atom   13 type  1   force =     0.01836087   -0.00220774    0.00464781
     atom   14 type  1   force =     0.00692977    0.00710735   -0.02947346
     atom   15 type  1   force =    -0.01101954   -0.02286124   -0.02844456
     atom   16 type  1   force =     0.00420320   -0.00140080   -0.01726181
     atom   17 type  1   force =    -0.01374100   -0.00914850   -0.02478091
     atom   18 type  1   force =    -0.02245874   -0.00107086    0.01609032
     atom   19 type  1   force =    -0.00900097   -0.00399244   -0.01046878
     atom   20 type  1   force =     0.00038857    0.00429373   -0.04022434
     atom   21 type  1   force =     0.00105256   -0.00611420   -0.02582922
     atom   22 type  1   force =     0.00103649    0.00101622    0.01617389
     atom   23 type  1   force =    -0.01996039    0.01137769   -0.02587497
     atom   24 type  1   force =    -0.03339138    0.00028526    0.03176404
     atom   25 type  1   force =     0.04842674   -0.00751144    0.01775697
     atom   26 type  1   force =    -0.01598831    0.00556104    0.02409745
     atom   27 type  1   force =    -0.00306493    0.01893642   -0.03741647
     atom   28 type  1   force =     0.02417410    0.00632805    0.01984433
     atom   29 type  1   force =    -0.01318674    0.01270279   -0.00885151
     atom   30 type  1   force =    -0.02159821    0.00709768    0.02371653
     atom   31 type  1   force =    -0.04077864    0.02383264   -0.02155022
     atom   32 type  1   force =     0.02929530    0.00157891    0.01254293
     atom   33 type  1   force =     0.04034702   -0.03721961   -0.02801131
     atom   34 type  1   force =    -0.04201386    0.01813084    0.02843587
     atom   35 type  1   force =     0.01075639    0.02844093    0.00905471
     atom   36 type  1   force =     0.00775813    0.00237881   -0.02928168
     atom   37 type  1   force =     0.01439874    0.02176336   -0.00823666
     atom   38 type  1   force =     0.00369904   -0.00686858   -0.02420339
     atom   39 type  1   force =    -0.01527393   -0.00173579    0.02848211
     atom   40 type  1   force =    -0.01546957   -0.01544843    0.01098650
     atom   41 type  1   force =     0.02721915   -0.02768468   -0.01759576
     atom   42 type  1   force =     0.01087719   -0.02927909   -0.04162161
     atom   43 type  1   force =     0.00895271    0.02337990   -0.00407852
     atom   44 type  1   force =     0.00599051   -0.01344281    0.01667966
     atom   45 type  1   force =    -0.00429280   -0.02869488    0.01697230
     atom   46 type  1   force =     0.01628786   -0.02275835   -0.00104839
     atom   47 type  1   force =    -0.01466194    0.05359817    0.00471327
     atom   48 type  1   force =    -0.04391468   -0.00831761   -0.00061037
     atom   49 type  1   force =     0.02542559    0.03428335    0.00680575
     atom   50 type  1   force =    -0.01233230   -0.02490167    0.03376978
     atom   51 type  1   force =     0.00196866    0.00837261    0.04749220
     atom   52 type  1   force =     0.00404282   -0.02381764   -0.00693245
     atom   53 type  1   force =     0.02642141    0.02054317   -0.00506666
     atom   54 type  1   force =    -0.03714705   -0.03495902    0.05137529
     atom   55 type  1   force =    -0.00047016   -0.03044918    0.04317039
     atom   56 type  1   force =     0.00939898    0.00876878    0.00411516
     atom   57 type  1   force =     0.01111883    0.01242952    0.05081249
     atom   58 type  1   force =    -0.01167201   -0.00507731    0.05328327
     atom   59 type  1   force =    -0.02483836    0.01781660    0.03786905
     atom   60 type  1   force =    -0.00103768   -0.01590561    0.01824150
     atom   61 type  1   force =     0.00861291   -0.03176938   -0.00832623
     atom   62 type  1   force =     0.03723343    0.02721090    0.05458547
     atom   63 type  1   force =     0.00051816    0.02105932   -0.01829009
     atom   64 type  1   force =    -0.00601986   -0.00627111    0.04864066

     Total force =     0.316039     Total SCF correction =     0.001146


     Computing stress (Cartesian axis) and pressure

          total   stress  (Ry/bohr**3)                   (kbar)     P=       -2.85
  -0.00000836   0.00002180  -0.00001498           -1.23        3.21       -2.20
   0.00002180  -0.00002620  -0.00000262            3.21       -3.85       -0.39
  -0.00001498  -0.00000262  -0.00002350           -2.20       -0.39       -3.46

 
     init_run     :      0.77s CPU      3.95s WALL (       1 calls)
     electrons    :      1.25s CPU      1.34s WALL (       1 calls)
     forces       :      0.03s CPU      0.04s WALL (       1 calls)
     stress       :      0.16s CPU      0.16s WALL (       1 calls)

     Called by init_run:
     wfcinit      :      0.43s CPU      3.47s WALL (       1 calls)
                                        3.47s GPU  (       1 calls)
     potinit      :      0.14s CPU      0.21s WALL (       1 calls)
     hinit0       :      0.18s CPU      0.20s WALL (       1 calls)

     Called by electrons:
     c_bands      :      0.89s CPU      0.92s WALL (      11 calls)
     sum_band     :      0.20s CPU      0.23s WALL (      11 calls)
     v_of_rho     :      0.08s CPU      0.15s WALL (      11 calls)
     mix_rho      :      0.07s CPU      0.08s WALL (      11 calls)

     Called by c_bands:
     init_us_2    :      0.03s CPU      0.03s WALL (      23 calls)
     init_us_2:gp :      0.03s CPU      0.03s WALL (      23 calls)
     regterg      :      0.80s CPU      0.83s WALL (      11 calls)

     Called by *egterg:
     rdiaghg      :      0.30s CPU      0.92s WALL (      68 calls)
                                        0.90s GPU  (      68 calls)
     h_psi        :      0.81s CPU      3.23s WALL (      70 calls)
                                        3.23s GPU  (      70 calls)
     g_psi        :      0.00s CPU      0.00s WALL (      58 calls)
                                        0.00s GPU  (      58 calls)

     Called by h_psi:
     h_psi:calbec :      0.40s CPU      2.77s WALL (      70 calls)
                                        2.77s GPU  (      70 calls)
     vloc_psi     :      0.37s CPU      0.42s WALL (      70 calls)
                                        0.42s GPU  (      70 calls)
     add_vuspsi   :      0.02s CPU      0.04s WALL (      70 calls)
                                        0.03s GPU  (      70 calls)

     General routines
     calbec       :      0.41s CPU      2.77s WALL (      75 calls)
     fft          :      0.19s CPU      0.29s WALL (      95 calls)
                                        0.09s GPU  (      61 calls)
     ffts         :      0.02s CPU      0.03s WALL (      11 calls)
     fftw         :      0.40s CPU      0.52s WALL (    1213 calls)
                                        0.48s GPU  (    1213 calls)
 
     Parallel routines
 
     PWSCF        :      2.24s CPU      5.54s WALL

 
   This run was terminated on:  11:20:45  10May2023            

=------------------------------------------------------------------------------=
   JOB DONE.
=------------------------------------------------------------------------------=
