
     Program PWSCF v.7.0 starts on  8Jul2023 at 21:55:30 

     This program is part of the open-source Quantum ESPRESSO suite
     for quantum simulation of materials; please cite
         "P. Giannozzi et al., J. Phys.:Condens. Matter 21 395502 (2009);
         "P. Giannozzi et al., J. Phys.:Condens. Matter 29 465901 (2017);
         "P. Giannozzi et al., J. Chem. Phys. 152 154105 (2020);
          URL http://www.quantum-espresso.org", 
     in publications or presentations arising from this work. More details at
     http://www.quantum-espresso.org/quote

     Parallel version (MPI & OpenMP), running on       1 processor cores
     Number of MPI processes:                 1
     Threads/MPI process:                     1

     MPI processes distributed on     1 nodes
     109290 MiB available memory on the printing compute node when the environment starts
 
     Reading input from pw-si-7.in
Warning: card &CELL ignored
Warning: card / ignored

     Current dimensions of program PWSCF are:
     Max number of different atomic species (ntypx) = 10
     Max number of k-points (npk) =  40000
     Max angular momentum in pseudopotentials (lmaxx) =  4

     IMPORTANT: XC functional enforced from input :
     Exchange-correlation= PBE
                           (   1   4   3   4   0   0   0)
     Any further DFT definition will be discarded
     Please, verify this is what you really want


     gamma-point specific algorithms are used

     Subspace diagonalization in iterative solution of the eigenvalue problem:
     a serial algorithm will be used

 
     G-vector sticks info
     --------------------
     sticks:   dense  smooth     PW     G-vecs:    dense   smooth      PW
     Sum        4131    4131   1027               201487   201487   25203
 
     Using Slab Decomposition
 


     bravais-lattice index     =            0
     lattice parameter (alat)  =      20.4722  a.u.
     unit-cell volume          =    9080.3613 (a.u.)^3
     number of atoms/cell      =           64
     number of atomic types    =            1
     number of electrons       =       256.00
     number of Kohn-Sham states=          128
     kinetic-energy cutoff     =      30.0000  Ry
     charge density cutoff     =     120.0000  Ry
     scf convergence threshold =      1.0E-06
     mixing beta               =       0.5000
     number of iterations used =            8  plain     mixing
     Exchange-correlation= PBE
                           (   1   4   3   4   0   0   0)

     GPU acceleration is ACTIVE.


     celldm(1)=  20.472212  celldm(2)=   0.000000  celldm(3)=   0.000000
     celldm(4)=   0.000000  celldm(5)=   0.000000  celldm(6)=   0.000000

     crystal axes: (cart. coord. in units of alat)
               a(1) = (   1.000000   0.000000   0.000000 )  
               a(2) = (   0.000000   1.030990   0.000000 )  
               a(3) = (   0.000000   0.000000   1.026489 )  

     reciprocal axes: (cart. coord. in units 2 pi/alat)
               b(1) = (  1.000000  0.000000  0.000000 )  
               b(2) = (  0.000000  0.969941  0.000000 )  
               b(3) = (  0.000000  0.000000  0.974195 )  


     PseudoPot. # 1 for Si read from file:
     ./Si_ONCV_PBE-1.0.upf
     MD5 check sum: 2de5a83d12544a9ea852f39b88f19b1f
     Pseudo is Norm-conserving, Zval =  4.0
     Generated using ONCVPSP code by D. R. Hamann
     Using radial grid of  602 points,  4 beta functions with: 
                l(1) =   0
                l(2) =   0
                l(3) =   1
                l(4) =   1

     atomic species   valence    mass     pseudopotential
        Si             4.00    28.08500     Si( 1.00)

     No symmetry found



   Cartesian axes

     site n.     atom                  positions (alat units)
         1           Si  tau(   1) = (   0.3665468   0.3788514   0.1241499  )
         2           Si  tau(   2) = (   0.0034579   0.2555952   0.2500145  )
         3           Si  tau(   3) = (   0.3685765   0.1280694   0.3778019  )
         4           Si  tau(   4) = (  -0.0015821  -0.0012643  -0.0041344  )
         5           Si  tau(   5) = (   0.1244160   0.3780976   0.3773033  )
         6           Si  tau(   6) = (   0.2484678   0.2526491   0.0015605  )
         7           Si  tau(   7) = (   0.1271904   0.1304234   0.1257850  )
         8           Si  tau(   8) = (   0.2503498  -0.0010836   0.2482435  )
         9           Si  tau(   9) = (   0.3709398   0.3791255   0.6342063  )
        10           Si  tau(  10) = (  -0.0028714   0.2522652   0.7552979  )
        11           Si  tau(  11) = (   0.3667050   0.1250305   0.8801257  )
        12           Si  tau(  12) = (   0.0015248   0.0034031   0.5008843  )
        13           Si  tau(  13) = (   0.1207386   0.3859288   0.8808535  )
        14           Si  tau(  14) = (   0.2435547   0.2512303   0.5083700  )
        15           Si  tau(  15) = (   0.1243110   0.1285832   0.6286089  )
        16           Si  tau(  16) = (   0.2504675  -0.0021931   0.7620693  )
        17           Si  tau(  17) = (   0.3696735   0.8862659   0.1263710  )
        18           Si  tau(  18) = (  -0.0004971   0.7639858   0.2501301  )
        19           Si  tau(  19) = (   0.3667775   0.6406363   0.3808382  )
        20           Si  tau(  20) = (  -0.0005264   0.5052307  -0.0037922  )
        21           Si  tau(  21) = (   0.1236733   0.8903099   0.3831192  )
        22           Si  tau(  22) = (   0.2451072   0.7681922  -0.0042457  )
        23           Si  tau(  23) = (   0.1244915   0.6332591   0.1304219  )
        24           Si  tau(  24) = (   0.2437955   0.5047625   0.2485278  )
        25           Si  tau(  25) = (   0.3722667   0.8944747   0.6346894  )
        26           Si  tau(  26) = (   0.0042197   0.7641679   0.7623747  )
        27           Si  tau(  27) = (   0.3744117   0.6380971   0.8823152  )
        28           Si  tau(  28) = (   0.0010904   0.5046791   0.5077199  )
        29           Si  tau(  29) = (   0.1239669   0.8950148   0.8871252  )
        30           Si  tau(  30) = (   0.2459040   0.7628042   0.5014250  )
        31           Si  tau(  31) = (   0.1212938   0.6329427   0.6275638  )
        32           Si  tau(  32) = (   0.2478080   0.5044219   0.7583161  )
        33           Si  tau(  33) = (   0.8625286   0.3790975   0.1270903  )
        34           Si  tau(  34) = (   0.4964562   0.2555044   0.2489962  )
        35           Si  tau(  35) = (   0.8672060   0.1301586   0.3778606  )
        36           Si  tau(  36) = (   0.4949246   0.0028013  -0.0005993  )
        37           Si  tau(  37) = (   0.6154557   0.3797892   0.3813316  )
        38           Si  tau(  38) = (   0.7374000   0.2555011  -0.0013344  )
        39           Si  tau(  39) = (   0.6174822   0.1247340   0.1306939  )
        40           Si  tau(  40) = (   0.7409307   0.0007591   0.2490390  )
        41           Si  tau(  41) = (   0.8647939   0.3796084   0.6308002  )
        42           Si  tau(  42) = (   0.4906161   0.2582327   0.7597189  )
        43           Si  tau(  43) = (   0.8641345   0.1276692   0.8874974  )
        44           Si  tau(  44) = (   0.4900744  -0.0012570   0.5079352  )
        45           Si  tau(  45) = (   0.6144913   0.3794526   0.8873644  )
        46           Si  tau(  46) = (   0.7402421   0.2516591   0.5034997  )
        47           Si  tau(  47) = (   0.6203563   0.1289956   0.6286857  )
        48           Si  tau(  48) = (   0.7400053  -0.0046382   0.7556144  )
        49           Si  tau(  49) = (   0.8634511   0.8946370   0.1245365  )
        50           Si  tau(  50) = (   0.4913197   0.7630240   0.2541877  )
        51           Si  tau(  51) = (   0.8650334   0.6349968   0.3798617  )
        52           Si  tau(  52) = (   0.4982097   0.5089762   0.0043550  )
        53           Si  tau(  53) = (   0.6216334   0.8918709   0.3788255  )
        54           Si  tau(  54) = (   0.7453266   0.7676779   0.0042497  )
        55           Si  tau(  55) = (   0.6184341   0.6327167   0.1270715  )
        56           Si  tau(  56) = (   0.7434064   0.5108482   0.2519325  )
        57           Si  tau(  57) = (   0.8647127   0.8881255   0.6274013  )
        58           Si  tau(  58) = (   0.4922971   0.7664118   0.7594007  )
        59           Si  tau(  59) = (   0.8678918   0.6335348   0.8796625  )
        60           Si  tau(  60) = (   0.4965370   0.5136577   0.5088628  )
        61           Si  tau(  61) = (   0.6144199   0.8884983   0.8805364  )
        62           Si  tau(  62) = (   0.7421418   0.7677022   0.5032150  )
        63           Si  tau(  63) = (   0.6169250   0.6366827   0.6274902  )
        64           Si  tau(  64) = (   0.7428311   0.5094054   0.7620493  )

     number of k points=     1
                       cart. coord. in units 2pi/alat
        k(    1) = (   0.0000000   0.0000000   0.0000000), wk =   2.0000000

     Dense  grid:   100744 G-vectors     FFT dimensions: (  72,  75,  75)

     Estimated max dynamical RAM per process >     293.40 MB

     Initial potential from superposition of free atoms

     starting charge     253.0416, renormalised to     256.0000
     Starting wfcs are random

     total cpu time spent up to now is        1.4 secs

     Self-consistent Calculation

     iteration #  1     ecut=    30.00 Ry     beta= 0.50
     Davidson diagonalization with overlap
     ethr =  1.00E-02,  avg # of iterations = 13.0

     Threshold (ethr) on eigenvalues was too large:
     Diagonalizing with lowered threshold

     Davidson diagonalization with overlap
     ethr =  5.58E-04,  avg # of iterations =  9.0

     total cpu time spent up to now is        1.8 secs

     total energy              =    -503.59422415 Ry
     estimated scf accuracy    <       1.63845513 Ry

     iteration #  2     ecut=    30.00 Ry     beta= 0.50
     Davidson diagonalization with overlap
     ethr =  6.40E-04,  avg # of iterations =  2.0

     total cpu time spent up to now is        1.9 secs

     total energy              =    -503.60723607 Ry
     estimated scf accuracy    <       0.31076376 Ry

     iteration #  3     ecut=    30.00 Ry     beta= 0.50
     Davidson diagonalization with overlap
     ethr =  1.21E-04,  avg # of iterations =  4.0

     total cpu time spent up to now is        2.1 secs

     total energy              =    -503.63914521 Ry
     estimated scf accuracy    <       0.02656410 Ry

     iteration #  4     ecut=    30.00 Ry     beta= 0.50
     Davidson diagonalization with overlap
     ethr =  1.04E-05,  avg # of iterations = 20.0

     total cpu time spent up to now is        2.3 secs

     total energy              =    -503.70000106 Ry
     estimated scf accuracy    <       0.04750412 Ry

     iteration #  5     ecut=    30.00 Ry     beta= 0.50
     Davidson diagonalization with overlap
     ethr =  1.04E-05,  avg # of iterations =  2.0

     total cpu time spent up to now is        2.5 secs

     total energy              =    -503.69923319 Ry
     estimated scf accuracy    <       0.01416276 Ry

     iteration #  6     ecut=    30.00 Ry     beta= 0.50
     Davidson diagonalization with overlap
     ethr =  5.53E-06,  avg # of iterations =  3.0

     total cpu time spent up to now is        2.6 secs

     total energy              =    -503.70033050 Ry
     estimated scf accuracy    <       0.00223216 Ry

     iteration #  7     ecut=    30.00 Ry     beta= 0.50
     Davidson diagonalization with overlap
     ethr =  8.72E-07,  avg # of iterations =  7.0

     total cpu time spent up to now is        2.8 secs

     total energy              =    -503.70093066 Ry
     estimated scf accuracy    <       0.00046709 Ry

     iteration #  8     ecut=    30.00 Ry     beta= 0.50
     Davidson diagonalization with overlap
     ethr =  1.82E-07,  avg # of iterations =  3.0

     total cpu time spent up to now is        2.9 secs

     total energy              =    -503.70098121 Ry
     estimated scf accuracy    <       0.00011548 Ry

     iteration #  9     ecut=    30.00 Ry     beta= 0.50
     Davidson diagonalization with overlap
     ethr =  4.51E-08,  avg # of iterations =  5.0

     total cpu time spent up to now is        3.1 secs

     total energy              =    -503.70099983 Ry
     estimated scf accuracy    <       0.00001919 Ry

     iteration # 10     ecut=    30.00 Ry     beta= 0.50
     Davidson diagonalization with overlap
     ethr =  7.50E-09,  avg # of iterations =  4.0

     total cpu time spent up to now is        3.3 secs

     total energy              =    -503.70100365 Ry
     estimated scf accuracy    <       0.00001215 Ry

     iteration # 11     ecut=    30.00 Ry     beta= 0.50
     Davidson diagonalization with overlap
     ethr =  4.75E-09,  avg # of iterations =  2.0

     total cpu time spent up to now is        3.4 secs

     total energy              =    -503.70100420 Ry
     estimated scf accuracy    <       0.00000412 Ry

     iteration # 12     ecut=    30.00 Ry     beta= 0.50
     Davidson diagonalization with overlap
     ethr =  1.61E-09,  avg # of iterations =  3.0

     total cpu time spent up to now is        3.5 secs

     End of self-consistent calculation

          k = 0.0000 0.0000 0.0000 ( 12602 PWs)   bands (ev):

    -5.9412  -5.0193  -4.9950  -4.9421  -4.8283  -4.8114  -4.7389  -4.1733
    -4.1505  -4.1021  -4.0379  -3.9936  -3.9759  -3.9747  -3.9531  -3.8839
    -3.8343  -3.7991  -3.7461  -3.6997  -3.6367  -3.5908  -3.3381  -2.1632
    -2.1047  -2.0349  -2.0159  -1.9568  -1.9473  -1.8999  -1.8556  -1.8319
    -1.8010  -1.7705  -1.7285  -1.6929  -1.6549  -1.6195  -1.5812  -1.5566
    -1.4781  -1.1569  -0.9691  -0.9220  -0.9045   0.1902   0.2076   0.2383
     0.2970   0.3373   0.3594   0.3919   0.4174   0.4222   0.4499   0.5022
     0.5192   1.8587   1.8720   1.9205   1.9486   1.9544   1.9760   1.9921
     1.9994   2.0296   2.0341   2.0696   2.0709   2.0765   2.0971   2.1083
     2.1198   2.1798   2.1963   2.2073   2.2379   2.2767   2.2937   2.3154
     2.3395   2.3437   2.3825   2.4249   2.4903   2.5396   2.6099   2.8901
     2.9090   3.0522   3.0588   3.1335   3.1569   3.7408   3.7746   3.8472
     3.8720   3.9050   3.9214   3.9776   4.0189   4.0481   4.0818   4.1545
     4.1668   4.2591   4.3118   4.3311   4.3517   4.3730   4.4087   4.4128
     4.4533   4.4629   4.5128   4.5237   4.5947   4.5977   4.6217   4.6798
     4.6966   4.7593   4.8388   5.0694   5.2013   5.5965   5.8683   6.0261

     highest occupied level (ev):     6.0261

!    total energy              =    -503.70100463 Ry
     estimated scf accuracy    <       0.00000034 Ry

     The total energy is the sum of the following terms:
     one-electron contribution =     138.05340491 Ry
     hartree contribution      =      38.47966492 Ry
     xc contribution           =    -152.88107184 Ry
     ewald contribution        =    -527.35300261 Ry

     convergence has been achieved in  12 iterations

     Forces acting on atoms (cartesian axes, Ry/au):

     atom    1 type  1   force =     0.03081528    0.01420127   -0.00126599
     atom    2 type  1   force =    -0.05019327   -0.00624678    0.00247127
     atom    3 type  1   force =     0.00893216   -0.00730645   -0.00121068
     atom    4 type  1   force =    -0.01937448   -0.00916103   -0.01514946
     atom    5 type  1   force =    -0.00516239    0.01210159    0.01537143
     atom    6 type  1   force =    -0.01560485    0.00666492   -0.08530206
     atom    7 type  1   force =    -0.02116477   -0.03751416   -0.01132933
     atom    8 type  1   force =    -0.01437257   -0.04124114    0.01810502
     atom    9 type  1   force =    -0.00666830    0.01714992   -0.02456092
     atom   10 type  1   force =    -0.02187394    0.00516056    0.01574056
     atom   11 type  1   force =     0.02840055    0.02081987    0.07837752
     atom   12 type  1   force =    -0.03583597   -0.04546790    0.01120086
     atom   13 type  1   force =    -0.00128943   -0.03674102    0.05737549
     atom   14 type  1   force =     0.02991570    0.02225946   -0.02544244
     atom   15 type  1   force =    -0.01331608   -0.03459039    0.03665365
     atom   16 type  1   force =    -0.03682967   -0.03228595   -0.03134699
     atom   17 type  1   force =     0.00819722    0.05964633   -0.01873312
     atom   18 type  1   force =    -0.03274070    0.00700658    0.01840146
     atom   19 type  1   force =     0.01430693   -0.04214688   -0.02245550
     atom   20 type  1   force =    -0.03123536    0.01264140   -0.01940763
     atom   21 type  1   force =    -0.00915263    0.04920654   -0.04024804
     atom   22 type  1   force =     0.00191478   -0.03065279   -0.02269556
     atom   23 type  1   force =    -0.01768318    0.01802545   -0.05284051
     atom   24 type  1   force =     0.02333097    0.00987974    0.03499326
     atom   25 type  1   force =    -0.02183941    0.01036011   -0.01339781
     atom   26 type  1   force =    -0.04054192   -0.00360261   -0.02901322
     atom   27 type  1   force =    -0.02251268   -0.01552311    0.05753159
     atom   28 type  1   force =    -0.04566945    0.00020540   -0.02311599
     atom   29 type  1   force =    -0.00294108    0.02634043    0.03104005
     atom   30 type  1   force =    -0.00366048    0.01849588    0.04720299
     atom   31 type  1   force =     0.02122715    0.01506202    0.02951614
     atom   32 type  1   force =     0.00258923    0.03460442   -0.00533719
     atom   33 type  1   force =     0.04260174    0.00820811   -0.01799610
     atom   34 type  1   force =    -0.02194575   -0.00067397    0.02418298
     atom   35 type  1   force =     0.02768974   -0.01488047   -0.01914115
     atom   36 type  1   force =    -0.01495929   -0.05107237   -0.04242409
     atom   37 type  1   force =     0.01146699    0.02266604   -0.01491254
     atom   38 type  1   force =     0.00753306   -0.01808046   -0.02617196
     atom   39 type  1   force =     0.00003934    0.01371767   -0.04078948
     atom   40 type  1   force =     0.02117892   -0.03884139    0.02948935
     atom   41 type  1   force =     0.01859629    0.00093313    0.00651367
     atom   42 type  1   force =     0.02308297   -0.03436390   -0.00314112
     atom   43 type  1   force =     0.01735669   -0.01244058    0.01660118
     atom   44 type  1   force =     0.02359466   -0.01798886   -0.01544616
     atom   45 type  1   force =     0.01119811    0.02070660    0.03883331
     atom   46 type  1   force =     0.01446642    0.01852197   -0.00079644
     atom   47 type  1   force =    -0.02502079   -0.01804809    0.02668586
     atom   48 type  1   force =     0.00945831   -0.01935755    0.00772402
     atom   49 type  1   force =     0.05148241    0.03375653    0.00863297
     atom   50 type  1   force =     0.02558186   -0.00084681   -0.00162591
     atom   51 type  1   force =     0.04088570    0.00853959   -0.00113125
     atom   52 type  1   force =    -0.02793832   -0.00879999   -0.06341963
     atom   53 type  1   force =    -0.02940369    0.04382015   -0.01028352
     atom   54 type  1   force =    -0.02703286   -0.03064875   -0.07823595
     atom   55 type  1   force =     0.01053492    0.03724097    0.00593614
     atom   56 type  1   force =    -0.00851867   -0.02271634    0.01797163
     atom   57 type  1   force =     0.05116745    0.05181815    0.02860727
     atom   58 type  1   force =     0.01096862   -0.01951866   -0.02523239
     atom   59 type  1   force =     0.03199165    0.02883142    0.07700941
     atom   60 type  1   force =    -0.03516455   -0.02984409   -0.02385091
     atom   61 type  1   force =     0.03249450    0.05183995    0.07189654
     atom   62 type  1   force =     0.00106325   -0.03032664   -0.00192378
     atom   63 type  1   force =     0.02606518    0.02506040    0.04190012
     atom   64 type  1   force =    -0.02048221   -0.01456345   -0.02659091

     Total force =     0.400307     Total SCF correction =     0.000948


     Computing stress (Cartesian axis) and pressure

          total   stress  (Ry/bohr**3)                   (kbar)     P=       -8.64
   0.00005182   0.00003914   0.00004489            7.62        5.76        6.60
   0.00003914  -0.00012326   0.00003999            5.76      -18.13        5.88
   0.00004489   0.00003999  -0.00010468            6.60        5.88      -15.40

 
     init_run     :      1.01s CPU      1.36s WALL (       1 calls)
     electrons    :      2.06s CPU      2.14s WALL (       1 calls)
     forces       :      0.07s CPU      0.07s WALL (       1 calls)
     stress       :      0.25s CPU      0.27s WALL (       1 calls)

     Called by init_run:
     wfcinit      :      0.63s CPU      0.86s WALL (       1 calls)
                                        0.86s GPU  (       1 calls)
     potinit      :      0.23s CPU      0.28s WALL (       1 calls)
     hinit0       :      0.12s CPU      0.12s WALL (       1 calls)

     Called by electrons:
     c_bands      :      1.28s CPU      1.30s WALL (      13 calls)
     sum_band     :      0.29s CPU      0.31s WALL (      13 calls)
     v_of_rho     :      0.19s CPU      0.25s WALL (      13 calls)
     mix_rho      :      0.28s CPU      0.31s WALL (      13 calls)

     Called by c_bands:
     init_us_2    :      0.04s CPU      0.04s WALL (      27 calls)
     init_us_2:gp :      0.04s CPU      0.04s WALL (      27 calls)
     regterg      :      1.16s CPU      1.17s WALL (      13 calls)

     Called by *egterg:
     rdiaghg      :      0.42s CPU      0.45s WALL (      89 calls)
                                        0.44s GPU  (      89 calls)
     h_psi        :      1.16s CPU      1.37s WALL (      91 calls)
                                        1.36s GPU  (      91 calls)
     g_psi        :      0.00s CPU      0.00s WALL (      77 calls)
                                        0.00s GPU  (      77 calls)

     Called by h_psi:
     h_psi:calbec :      0.48s CPU      0.71s WALL (      91 calls)
                                        0.71s GPU  (      91 calls)
     vloc_psi     :      0.56s CPU      0.57s WALL (      91 calls)
                                        0.57s GPU  (      91 calls)
     add_vuspsi   :      0.04s CPU      0.07s WALL (      91 calls)
                                        0.07s GPU  (      91 calls)

     General routines
     calbec       :      0.48s CPU      0.68s WALL (      96 calls)
     fft          :      0.20s CPU      0.21s WALL (     111 calls)
                                        0.03s GPU  (      69 calls)
     ffts         :      0.05s CPU      0.05s WALL (      13 calls)
     fftw         :      0.03s CPU      0.64s WALL (    1252 calls)
                                        0.54s GPU  (    1252 calls)
 
     Parallel routines
 
     PWSCF        :      3.42s CPU      3.89s WALL

 
   This run was terminated on:  21:55:33   8Jul2023            

=------------------------------------------------------------------------------=
   JOB DONE.
=------------------------------------------------------------------------------=
