
     Program PWSCF v.7.0 starts on  8Jul2023 at 21:59:52 

     This program is part of the open-source Quantum ESPRESSO suite
     for quantum simulation of materials; please cite
         "P. Giannozzi et al., J. Phys.:Condens. Matter 21 395502 (2009);
         "P. Giannozzi et al., J. Phys.:Condens. Matter 29 465901 (2017);
         "P. Giannozzi et al., J. Chem. Phys. 152 154105 (2020);
          URL http://www.quantum-espresso.org", 
     in publications or presentations arising from this work. More details at
     http://www.quantum-espresso.org/quote

     Parallel version (MPI & OpenMP), running on       1 processor cores
     Number of MPI processes:                 1
     Threads/MPI process:                     1

     MPI processes distributed on     1 nodes
     109285 MiB available memory on the printing compute node when the environment starts
 
     Reading input from pw-si-66.in
Warning: card &CELL ignored
Warning: card / ignored

     Current dimensions of program PWSCF are:
     Max number of different atomic species (ntypx) = 10
     Max number of k-points (npk) =  40000
     Max angular momentum in pseudopotentials (lmaxx) =  4

     IMPORTANT: XC functional enforced from input :
     Exchange-correlation= PBE
                           (   1   4   3   4   0   0   0)
     Any further DFT definition will be discarded
     Please, verify this is what you really want


     gamma-point specific algorithms are used

     Subspace diagonalization in iterative solution of the eigenvalue problem:
     a serial algorithm will be used

 
     G-vector sticks info
     --------------------
     sticks:   dense  smooth     PW     G-vecs:    dense   smooth      PW
     Sum        4031    4031   1007               193995   193995   24179
 
     Using Slab Decomposition
 


     bravais-lattice index     =            0
     lattice parameter (alat)  =      20.3932  a.u.
     unit-cell volume          =    8738.8557 (a.u.)^3
     number of atoms/cell      =           64
     number of atomic types    =            1
     number of electrons       =       256.00
     number of Kohn-Sham states=          128
     kinetic-energy cutoff     =      30.0000  Ry
     charge density cutoff     =     120.0000  Ry
     scf convergence threshold =      1.0E-06
     mixing beta               =       0.5000
     number of iterations used =            8  plain     mixing
     Exchange-correlation= PBE
                           (   1   4   3   4   0   0   0)

     GPU acceleration is ACTIVE.


     celldm(1)=  20.393157  celldm(2)=   0.000000  celldm(3)=   0.000000
     celldm(4)=   0.000000  celldm(5)=   0.000000  celldm(6)=   0.000000

     crystal axes: (cart. coord. in units of alat)
               a(1) = (   1.000000   0.000000   0.000000 )  
               a(2) = (   0.000000   1.015695   0.000000 )  
               a(3) = (   0.000000   0.000000   1.014467 )  

     reciprocal axes: (cart. coord. in units 2 pi/alat)
               b(1) = (  1.000000  0.000000  0.000000 )  
               b(2) = (  0.000000  0.984547  0.000000 )  
               b(3) = (  0.000000  0.000000  0.985740 )  


     PseudoPot. # 1 for Si read from file:
     ./Si_ONCV_PBE-1.0.upf
     MD5 check sum: 2de5a83d12544a9ea852f39b88f19b1f
     Pseudo is Norm-conserving, Zval =  4.0
     Generated using ONCVPSP code by D. R. Hamann
     Using radial grid of  602 points,  4 beta functions with: 
                l(1) =   0
                l(2) =   0
                l(3) =   1
                l(4) =   1

     atomic species   valence    mass     pseudopotential
        Si             4.00    28.08500     Si( 1.00)

     No symmetry found



   Cartesian axes

     site n.     atom                  positions (alat units)
         1           Si  tau(   1) = (   0.3732938   0.3832750   0.1217757  )
         2           Si  tau(   2) = (   0.0032250   0.2523699   0.2486834  )
         3           Si  tau(   3) = (   0.3720274   0.1316280   0.3704169  )
         4           Si  tau(   4) = (  -0.0010369  -0.0002333   0.0015972  )
         5           Si  tau(   5) = (   0.1248121   0.3813603   0.3767095  )
         6           Si  tau(   6) = (   0.2484270   0.2566314  -0.0003222  )
         7           Si  tau(   7) = (   0.1270066   0.1246017   0.1257602  )
         8           Si  tau(   8) = (   0.2484248  -0.0035791   0.2516192  )
         9           Si  tau(   9) = (   0.3749433   0.3871249   0.6258297  )
        10           Si  tau(  10) = (   0.0016762   0.2602787   0.7521305  )
        11           Si  tau(  11) = (   0.3704642   0.1302420   0.8740280  )
        12           Si  tau(  12) = (   0.0022336  -0.0046071   0.4958348  )
        13           Si  tau(  13) = (   0.1259901   0.3870643   0.8763675  )
        14           Si  tau(  14) = (   0.2457919   0.2590515   0.5018852  )
        15           Si  tau(  15) = (   0.1254048   0.1284672   0.6219775  )
        16           Si  tau(  16) = (   0.2492804   0.0005505   0.7494288  )
        17           Si  tau(  17) = (   0.3746071   0.9006835   0.1276106  )
        18           Si  tau(  18) = (  -0.0000990   0.7726822   0.2462754  )
        19           Si  tau(  19) = (   0.3688024   0.6414999   0.3720200  )
        20           Si  tau(  20) = (   0.0039550   0.5150712  -0.0011157  )
        21           Si  tau(  21) = (   0.1198906   0.8986974   0.3713802  )
        22           Si  tau(  22) = (   0.2501981   0.7635294  -0.0003803  )
        23           Si  tau(  23) = (   0.1207058   0.6424214   0.1288089  )
        24           Si  tau(  24) = (   0.2448314   0.5156563   0.2487495  )
        25           Si  tau(  25) = (   0.3754612   0.8987754   0.6268965  )
        26           Si  tau(  26) = (  -0.0003133   0.7708974   0.7506025  )
        27           Si  tau(  27) = (   0.3705797   0.6415468   0.8705091  )
        28           Si  tau(  28) = (  -0.0040827   0.5109650   0.4989158  )
        29           Si  tau(  29) = (   0.1199790   0.8940744   0.8739148  )
        30           Si  tau(  30) = (   0.2512992   0.7656325   0.4981734  )
        31           Si  tau(  31) = (   0.1199096   0.6365204   0.6234048  )
        32           Si  tau(  32) = (   0.2463528   0.5129667   0.7465751  )
        33           Si  tau(  33) = (   0.8681208   0.3845804   0.1208183  )
        34           Si  tau(  34) = (   0.4922446   0.2584268   0.2470450  )
        35           Si  tau(  35) = (   0.8657236   0.1254082   0.3748262  )
        36           Si  tau(  36) = (   0.4977575   0.0005350  -0.0014204  )
        37           Si  tau(  37) = (   0.6217925   0.3854999   0.3785403  )
        38           Si  tau(  38) = (   0.7415064   0.2581838   0.0013623  )
        39           Si  tau(  39) = (   0.6176036   0.1280803   0.1270530  )
        40           Si  tau(  40) = (   0.7440193   0.0045690   0.2510041  )
        41           Si  tau(  41) = (   0.8649894   0.3852714   0.6249163  )
        42           Si  tau(  42) = (   0.4951700   0.2550711   0.7478948  )
        43           Si  tau(  43) = (   0.8652674   0.1292258   0.8692336  )
        44           Si  tau(  44) = (   0.4962446  -0.0022148   0.4994540  )
        45           Si  tau(  45) = (   0.6163699   0.3829481   0.8732168  )
        46           Si  tau(  46) = (   0.7452127   0.2539626   0.4975805  )
        47           Si  tau(  47) = (   0.6171362   0.1254006   0.6236818  )
        48           Si  tau(  48) = (   0.7460396  -0.0028444   0.7473492  )
        49           Si  tau(  49) = (   0.8696022   0.8995164   0.1277665  )
        50           Si  tau(  50) = (   0.4943671   0.7710219   0.2451535  )
        51           Si  tau(  51) = (   0.8656748   0.6391443   0.3695075  )
        52           Si  tau(  52) = (   0.4963569   0.5077579  -0.0035440  )
        53           Si  tau(  53) = (   0.6155990   0.8916609   0.3749109  )
        54           Si  tau(  54) = (   0.7458410   0.7683263   0.0037902  )
        55           Si  tau(  55) = (   0.6231489   0.6388351   0.1243358  )
        56           Si  tau(  56) = (   0.7428691   0.5113367   0.2481834  )
        57           Si  tau(  57) = (   0.8646986   0.8980853   0.6274922  )
        58           Si  tau(  58) = (   0.4992115   0.7665702   0.7444985  )
        59           Si  tau(  59) = (   0.8645635   0.6371384   0.8714383  )
        60           Si  tau(  60) = (   0.4913018   0.5136709   0.5013063  )
        61           Si  tau(  61) = (   0.6173692   0.8931447   0.8681925  )
        62           Si  tau(  62) = (   0.7443419   0.7689766   0.4998944  )
        63           Si  tau(  63) = (   0.6160936   0.6422352   0.6196009  )
        64           Si  tau(  64) = (   0.7430706   0.5136000   0.7495607  )

     number of k points=     1
                       cart. coord. in units 2pi/alat
        k(    1) = (   0.0000000   0.0000000   0.0000000), wk =   2.0000000

     Dense  grid:    96998 G-vectors     FFT dimensions: (  72,  75,  75)

     Estimated max dynamical RAM per process >     283.51 MB

     Initial potential from superposition of free atoms

     starting charge     253.0416, renormalised to     256.0000
     Starting wfcs are random

     total cpu time spent up to now is        1.4 secs

     Self-consistent Calculation

     iteration #  1     ecut=    30.00 Ry     beta= 0.50
     Davidson diagonalization with overlap
     ethr =  1.00E-02,  avg # of iterations = 13.0

     Threshold (ethr) on eigenvalues was too large:
     Diagonalizing with lowered threshold

     Davidson diagonalization with overlap
     ethr =  6.29E-04,  avg # of iterations = 12.0

     total cpu time spent up to now is        1.8 secs

     total energy              =    -503.69972698 Ry
     estimated scf accuracy    <       1.88437001 Ry

     iteration #  2     ecut=    30.00 Ry     beta= 0.50
     Davidson diagonalization with overlap
     ethr =  7.36E-04,  avg # of iterations =  1.0

     total cpu time spent up to now is        1.9 secs

     total energy              =    -503.69501982 Ry
     estimated scf accuracy    <       0.34318555 Ry

     iteration #  3     ecut=    30.00 Ry     beta= 0.50
     Davidson diagonalization with overlap
     ethr =  1.34E-04,  avg # of iterations =  2.0

     total cpu time spent up to now is        2.0 secs

     total energy              =    -503.72034057 Ry
     estimated scf accuracy    <       0.00525320 Ry

     iteration #  4     ecut=    30.00 Ry     beta= 0.50
     Davidson diagonalization with overlap
     ethr =  2.05E-06,  avg # of iterations = 14.0

     total cpu time spent up to now is        2.3 secs

     total energy              =    -503.72898278 Ry
     estimated scf accuracy    <       0.00251459 Ry

     iteration #  5     ecut=    30.00 Ry     beta= 0.50
     Davidson diagonalization with overlap
     ethr =  9.82E-07,  avg # of iterations =  4.0

     total cpu time spent up to now is        2.4 secs

     total energy              =    -503.72941927 Ry
     estimated scf accuracy    <       0.00056613 Ry

     iteration #  6     ecut=    30.00 Ry     beta= 0.50
     Davidson diagonalization with overlap
     ethr =  2.21E-07,  avg # of iterations =  8.0

     total cpu time spent up to now is        2.6 secs

     total energy              =    -503.72950506 Ry
     estimated scf accuracy    <       0.00007821 Ry

     iteration #  7     ecut=    30.00 Ry     beta= 0.50
     Davidson diagonalization with overlap
     ethr =  3.05E-08,  avg # of iterations =  6.0

     total cpu time spent up to now is        2.8 secs

     total energy              =    -503.72952037 Ry
     estimated scf accuracy    <       0.00001937 Ry

     iteration #  8     ecut=    30.00 Ry     beta= 0.50
     Davidson diagonalization with overlap
     ethr =  7.57E-09,  avg # of iterations =  5.0

     total cpu time spent up to now is        2.9 secs

     total energy              =    -503.72952456 Ry
     estimated scf accuracy    <       0.00000291 Ry

     iteration #  9     ecut=    30.00 Ry     beta= 0.50
     Davidson diagonalization with overlap
     ethr =  1.14E-09,  avg # of iterations =  9.0

     total cpu time spent up to now is        3.1 secs

     total energy              =    -503.72952504 Ry
     estimated scf accuracy    <       0.00000203 Ry

     iteration # 10     ecut=    30.00 Ry     beta= 0.50
     Davidson diagonalization with overlap
     ethr =  7.92E-10,  avg # of iterations =  3.0

     total cpu time spent up to now is        3.2 secs

     End of self-consistent calculation

          k = 0.0000 0.0000 0.0000 ( 12090 PWs)   bands (ev):

    -5.7986  -4.8805  -4.7956  -4.7168  -4.6670  -4.6501  -4.5539  -3.9502
    -3.9375  -3.8640  -3.8621  -3.8292  -3.7801  -3.7260  -3.6959  -3.6398
    -3.6172  -3.5476  -3.5416  -3.5188  -3.4378  -3.3684  -3.1197  -1.8333
    -1.8109  -1.7542  -1.7194  -1.6355  -1.6202  -1.5792  -1.5619  -1.5319
    -1.5121  -1.5105  -1.4841  -1.4539  -1.3752  -1.3444  -1.3320  -1.2843
    -1.1847  -0.9299  -0.7995  -0.7378  -0.6289   0.5412   0.5813   0.5987
     0.6261   0.6460   0.6514   0.6899   0.7247   0.7372   0.7879   0.7910
     0.8238   2.1446   2.1657   2.2034   2.2070   2.2225   2.2386   2.2497
     2.2535   2.2762   2.3154   2.3407   2.3552   2.3665   2.3795   2.3833
     2.4150   2.4452   2.4756   2.4774   2.4921   2.5251   2.5318   2.5451
     2.5836   2.6657   2.7153   2.7545   2.7820   2.8084   2.8406   3.2148
     3.2554   3.3156   3.3504   3.3662   3.4537   4.1320   4.1568   4.1578
     4.1807   4.2199   4.2345   4.2950   4.3454   4.3753   4.4165   4.4238
     4.5149   4.5905   4.6520   4.6952   4.7315   4.7622   4.7705   4.8074
     4.8232   4.8550   4.8790   4.9146   4.9243   4.9648   4.9903   5.0013
     5.0318   5.0589   5.1193   5.2438   5.5941   6.0386   6.1601   6.3940

     highest occupied level (ev):     6.3940

!    total energy              =    -503.72952531 Ry
     estimated scf accuracy    <       0.00000017 Ry

     The total energy is the sum of the following terms:
     one-electron contribution =     147.47945361 Ry
     hartree contribution      =      37.28877155 Ry
     xc contribution           =    -154.15187996 Ry
     ewald contribution        =    -534.34587050 Ry

     convergence has been achieved in  10 iterations

     Forces acting on atoms (cartesian axes, Ry/au):

     atom    1 type  1   force =    -0.02289416    0.02232220    0.00384205
     atom    2 type  1   force =    -0.04101650    0.01039251    0.00210724
     atom    3 type  1   force =    -0.01187635   -0.01169863    0.02845439
     atom    4 type  1   force =    -0.01618593    0.02852870   -0.06046668
     atom    5 type  1   force =    -0.01611383    0.02068857   -0.01480367
     atom    6 type  1   force =    -0.00585826   -0.00553537   -0.04118553
     atom    7 type  1   force =    -0.00295726    0.00628016   -0.01446019
     atom    8 type  1   force =     0.00086410    0.05508300   -0.00179661
     atom    9 type  1   force =    -0.02464242   -0.01624561    0.00159103
     atom   10 type  1   force =    -0.02879087   -0.01298311   -0.01422253
     atom   11 type  1   force =     0.00391577   -0.00307448    0.04651870
     atom   12 type  1   force =    -0.05947935    0.05926850    0.03982158
     atom   13 type  1   force =     0.00140498   -0.00402429    0.04303765
     atom   14 type  1   force =     0.03207956   -0.00931714   -0.00474241
     atom   15 type  1   force =    -0.01719887   -0.00211443    0.01544544
     atom   16 type  1   force =    -0.02001094    0.02323735    0.01319386
     atom   17 type  1   force =    -0.01561938   -0.04728272   -0.04235128
     atom   18 type  1   force =    -0.03809688   -0.01482354    0.01865117
     atom   19 type  1   force =     0.02048845   -0.00436150   -0.01022645
     atom   20 type  1   force =    -0.04399348   -0.01036221   -0.04193535
     atom   21 type  1   force =     0.03636246   -0.07155191    0.00887632
     atom   22 type  1   force =    -0.00499678    0.02394972   -0.03143004
     atom   23 type  1   force =     0.01230476    0.00047899   -0.03015916
     atom   24 type  1   force =     0.00626876   -0.03191518    0.00301495
     atom   25 type  1   force =    -0.01952249   -0.04666482   -0.01127630
     atom   26 type  1   force =    -0.04144166   -0.02978261   -0.01136099
     atom   27 type  1   force =     0.01102875   -0.01024088    0.04515397
     atom   28 type  1   force =    -0.02244114   -0.00321259   -0.01260721
     atom   29 type  1   force =     0.02394835   -0.00837498    0.06154756
     atom   30 type  1   force =    -0.03132416    0.02236889    0.01831228
     atom   31 type  1   force =     0.00488471    0.02556134   -0.00515942
     atom   32 type  1   force =     0.00319513   -0.00204546    0.01487237
     atom   33 type  1   force =     0.04086203    0.00190051    0.01037795
     atom   34 type  1   force =     0.02878814    0.00606210    0.01620776
     atom   35 type  1   force =     0.05469181    0.01480975   -0.00083068
     atom   36 type  1   force =     0.00045124    0.02634055   -0.05727574
     atom   37 type  1   force =    -0.01989308   -0.00461520   -0.01694767
     atom   38 type  1   force =    -0.00107213   -0.01468432   -0.05775940
     atom   39 type  1   force =     0.00828304    0.01239702   -0.01731824
     atom   40 type  1   force =    -0.02441451   -0.00817787    0.00491713
     atom   41 type  1   force =     0.03194330   -0.00746921    0.00188552
     atom   42 type  1   force =     0.00233169   -0.00054013    0.00640351
     atom   43 type  1   force =     0.03012193    0.01119868    0.06532459
     atom   44 type  1   force =    -0.01056337    0.04926573   -0.01840776
     atom   45 type  1   force =     0.01950798    0.00040436    0.04091030
     atom   46 type  1   force =    -0.00752147    0.00140188    0.02309882
     atom   47 type  1   force =     0.02010839    0.00756823   -0.00235356
     atom   48 type  1   force =    -0.03565579    0.05743796    0.02417880
     atom   49 type  1   force =     0.00681807   -0.02431167   -0.01737337
     atom   50 type  1   force =     0.01114375   -0.03455710    0.01156358
     atom   51 type  1   force =     0.03580113    0.01560760    0.01341135
     atom   52 type  1   force =     0.00122389    0.02841053   -0.04125187
     atom   53 type  1   force =     0.03060311   -0.00654666   -0.01171407
     atom   54 type  1   force =     0.00063964    0.00061751   -0.06506384
     atom   55 type  1   force =    -0.02791193    0.00022405   -0.01250015
     atom   56 type  1   force =     0.00602989   -0.01260323    0.00121988
     atom   57 type  1   force =     0.06695009   -0.05055987   -0.03820729
     atom   58 type  1   force =    -0.02651583    0.00061297    0.01876106
     atom   59 type  1   force =     0.04687359    0.03050627    0.06219611
     atom   60 type  1   force =     0.01599767    0.00328696   -0.02808141
     atom   61 type  1   force =     0.01934558   -0.01630916    0.08000661
     atom   62 type  1   force =     0.00255009   -0.00961755   -0.00983533
     atom   63 type  1   force =     0.02924800   -0.01948458    0.00964311
     atom   64 type  1   force =    -0.02905105   -0.01112457   -0.01144244

     Total force =     0.376944     Total SCF correction =     0.000606


     Computing stress (Cartesian axis) and pressure

          total   stress  (Ry/bohr**3)                   (kbar)     P=       24.93
   0.00023313   0.00003596  -0.00003089           34.30        5.29       -4.54
   0.00003596   0.00013879   0.00005380            5.29       20.42        7.91
  -0.00003089   0.00005380   0.00013648           -4.54        7.91       20.08

 
     init_run     :      0.98s CPU      1.35s WALL (       1 calls)
     electrons    :      1.79s CPU      1.86s WALL (       1 calls)
     forces       :      0.06s CPU      0.06s WALL (       1 calls)
     stress       :      0.22s CPU      0.23s WALL (       1 calls)

     Called by init_run:
     wfcinit      :      0.60s CPU      0.86s WALL (       1 calls)
                                        0.86s GPU  (       1 calls)
     potinit      :      0.23s CPU      0.27s WALL (       1 calls)
     hinit0       :      0.12s CPU      0.12s WALL (       1 calls)

     Called by electrons:
     c_bands      :      1.17s CPU      1.18s WALL (      11 calls)
     sum_band     :      0.24s CPU      0.26s WALL (      11 calls)
     v_of_rho     :      0.17s CPU      0.23s WALL (      11 calls)
     mix_rho      :      0.21s CPU      0.23s WALL (      11 calls)

     Called by c_bands:
     init_us_2    :      0.03s CPU      0.03s WALL (      23 calls)
     init_us_2:gp :      0.03s CPU      0.03s WALL (      23 calls)
     regterg      :      1.06s CPU      1.07s WALL (      11 calls)

     Called by *egterg:
     rdiaghg      :      0.38s CPU      0.43s WALL (      87 calls)
                                        0.42s GPU  (      87 calls)
     h_psi        :      1.09s CPU      1.31s WALL (      89 calls)
                                        1.30s GPU  (      89 calls)
     g_psi        :      0.00s CPU      0.00s WALL (      77 calls)
                                        0.00s GPU  (      77 calls)

     Called by h_psi:
     h_psi:calbec :      0.48s CPU      0.71s WALL (      89 calls)
                                        0.71s GPU  (      89 calls)
     vloc_psi     :      0.51s CPU      0.52s WALL (      89 calls)
                                        0.52s GPU  (      89 calls)
     add_vuspsi   :      0.04s CPU      0.07s WALL (      89 calls)
                                        0.07s GPU  (      89 calls)

     General routines
     calbec       :      0.48s CPU      0.68s WALL (      94 calls)
     fft          :      0.18s CPU      0.19s WALL (      95 calls)
                                        0.03s GPU  (      59 calls)
     ffts         :      0.04s CPU      0.05s WALL (      11 calls)
     fftw         :      0.03s CPU      0.58s WALL (    1094 calls)
                                        0.49s GPU  (    1094 calls)
 
     Parallel routines
 
     PWSCF        :      3.08s CPU      3.55s WALL

 
   This run was terminated on:  21:59:56   8Jul2023            

=------------------------------------------------------------------------------=
   JOB DONE.
=------------------------------------------------------------------------------=
