An instance of this daemon is already running
An instance of this daemon is already running

     Program PWSCF v.7.1 starts on 10May2023 at 11:21:20 

     This program is part of the open-source Quantum ESPRESSO suite
     for quantum simulation of materials; please cite
         "P. Giannozzi et al., J. Phys.:Condens. Matter 21 395502 (2009);
         "P. Giannozzi et al., J. Phys.:Condens. Matter 29 465901 (2017);
         "P. Giannozzi et al., J. Chem. Phys. 152 154105 (2020);
          URL http://www.quantum-espresso.org", 
     in publications or presentations arising from this work. More details at
     http://www.quantum-espresso.org/quote

     Parallel version (MPI & OpenMP), running on       4 processor cores
     Number of MPI processes:                 4
     Threads/MPI process:                     1

     MPI processes distributed on     1 nodes
     153176 MiB available memory on the printing compute node when the environment starts
 
     Reading input from pw-si-81.in
Warning: card &CELL ignored
Warning: card / ignored

     Current dimensions of program PWSCF are:
     Max number of different atomic species (ntypx) = 10
     Max number of k-points (npk) =  40000
     Max angular momentum in pseudopotentials (lmaxx) =  4

     IMPORTANT: XC functional enforced from input :
     Exchange-correlation= PBE
                           (   1   4   3   4   0   0   0)
     Any further DFT definition will be discarded
     Please, verify this is what you really want


     gamma-point specific algorithms are used
 
     K-points division:     npool     =       2
     R & G space division:  proc/nbgrp/npool/nimage =       2
     Subspace diagonalization in iterative solution of the eigenvalue problem:
     a serial algorithm will be used

     Message from routine divide_et_impera:
     suboptimal parallelization: some nodes have no k-points
 
     Parallelization info
     --------------------
     sticks:   dense  smooth     PW     G-vecs:    dense   smooth      PW
     Min        1993    1993    524                97892    97892   13256
     Max        1996    1996    525                97893    97893   13257
     Sum        3989    3989   1049               195785   195785   26513
 
     Using Slab Decomposition
 


     bravais-lattice index     =            0
     lattice parameter (alat)  =      20.4636  a.u.
     unit-cell volume          =    8814.3887 (a.u.)^3
     number of atoms/cell      =           64
     number of atomic types    =            1
     number of electrons       =       256.00
     number of Kohn-Sham states=          154
     kinetic-energy cutoff     =      30.0000  Ry
     charge density cutoff     =     120.0000  Ry
     scf convergence threshold =      1.0E-06
     mixing beta               =       0.5000
     number of iterations used =            8  plain     mixing
     Exchange-correlation= PBE
                           (   1   4   3   4   0   0   0)

     GPU acceleration is ACTIVE.
     GPU-aware MPI enabled

     Message from routine print_cuda_info:
     High GPU oversubscription detected. Are you sure this is what you want?

     celldm(1)=  20.463578  celldm(2)=   0.000000  celldm(3)=   0.000000
     celldm(4)=   0.000000  celldm(5)=   0.000000  celldm(6)=   0.000000

     crystal axes: (cart. coord. in units of alat)
               a(1) = (   1.000000   0.000000   0.000000 )  
               a(2) = (   0.000000   0.995206   0.000000 )  
               a(3) = (   0.000000   0.000000   1.033557 )  

     reciprocal axes: (cart. coord. in units 2 pi/alat)
               b(1) = (  1.000000  0.000000  0.000000 )  
               b(2) = (  0.000000  1.004817  0.000000 )  
               b(3) = (  0.000000  0.000000  0.967533 )  


     PseudoPot. # 1 for Si read from file:
     /home/ppiaggi/pseudos/Si_ONCV_PBE_sr.upf
     MD5 check sum: 8553c464762ac42b85b1eed164b4d029
     Pseudo is Norm-conserving, Zval =  4.0
     Generated using ONCVPSP code by D. R. Hamann
     Using radial grid of 1510 points,  4 beta functions with: 
                l(1) =   0
                l(2) =   0
                l(3) =   1
                l(4) =   1

     atomic species   valence    mass     pseudopotential
        Si             4.00    28.08500     Si( 1.00)

     No symmetry found



   Cartesian axes

     site n.     atom                  positions (alat units)
         1           Si  tau(   1) = (  -0.0028213  -0.0022734  -0.0039028  )
         2           Si  tau(   2) = (  -0.0026072   0.2446816   0.2568074  )
         3           Si  tau(   3) = (   0.2483656   0.0016576   0.2545323  )
         4           Si  tau(   4) = (   0.2432114   0.2504795   0.0003165  )
         5           Si  tau(   5) = (   0.1261627   0.1272855   0.1331267  )
         6           Si  tau(   6) = (   0.4902737   0.0016019  -0.0014563  )
         7           Si  tau(   7) = (   0.4984482   0.2459348   0.2573325  )
         8           Si  tau(   8) = (   0.6167488   0.1253520   0.1294902  )
         9           Si  tau(   9) = (   0.7394373   0.0031812   0.2603117  )
        10           Si  tau(  10) = (   0.7459578   0.2434527  -0.0001028  )
        11           Si  tau(  11) = (   0.0001256   0.4920560   0.0014621  )
        12           Si  tau(  12) = (   0.2482413   0.4905093   0.2573763  )
        13           Si  tau(  13) = (   0.1210129   0.6206496   0.1312351  )
        14           Si  tau(  14) = (   0.3754087   0.3737083   0.1319106  )
        15           Si  tau(  15) = (   0.4991678   0.4971087   0.0045828  )
        16           Si  tau(  16) = (   0.6142365   0.6148118   0.1293706  )
        17           Si  tau(  17) = (   0.8671912   0.3724429   0.1252591  )
        18           Si  tau(  18) = (   0.7415763   0.4951053   0.2616334  )
        19           Si  tau(  19) = (   0.0006931   0.7367926   0.2594243  )
        20           Si  tau(  20) = (   0.2464734   0.7394270  -0.0042411  )
        21           Si  tau(  21) = (   0.3680198   0.8653765   0.1324850  )
        22           Si  tau(  22) = (   0.4973353   0.7419584   0.2534814  )
        23           Si  tau(  23) = (   0.7416547   0.7435539  -0.0032920  )
        24           Si  tau(  24) = (   0.8690145   0.8659496   0.1320296  )
        25           Si  tau(  25) = (  -0.0013377   0.0035789   0.5158016  )
        26           Si  tau(  26) = (   0.2495711   0.2434066   0.5147117  )
        27           Si  tau(  27) = (   0.1262137   0.1198517   0.6415115  )
        28           Si  tau(  28) = (   0.3754428   0.1217722   0.3833002  )
        29           Si  tau(  29) = (   0.4974185  -0.0041152   0.5141927  )
        30           Si  tau(  30) = (   0.6188218   0.1207023   0.6443893  )
        31           Si  tau(  31) = (   0.8700943   0.1228511   0.3833419  )
        32           Si  tau(  32) = (   0.7426688   0.2423608   0.5167567  )
        33           Si  tau(  33) = (   0.1210417   0.3716204   0.3866342  )
        34           Si  tau(  34) = (  -0.0009639   0.4979186   0.5104055  )
        35           Si  tau(  35) = (   0.1246431   0.6158758   0.6405154  )
        36           Si  tau(  36) = (   0.6189534   0.3745928   0.3896426  )
        37           Si  tau(  37) = (   0.3717870   0.6158691   0.3829425  )
        38           Si  tau(  38) = (   0.3704936   0.3676011   0.6433951  )
        39           Si  tau(  39) = (   0.4948980   0.4960549   0.5167954  )
        40           Si  tau(  40) = (   0.6201484   0.6197044   0.6393309  )
        41           Si  tau(  41) = (   0.8696757   0.6136657   0.3834640  )
        42           Si  tau(  42) = (   0.8631975   0.3661730   0.6457148  )
        43           Si  tau(  43) = (   0.1213050   0.8661709   0.3901099  )
        44           Si  tau(  44) = (   0.2497734   0.7435928   0.5151023  )
        45           Si  tau(  45) = (   0.6228574   0.8673294   0.3838706  )
        46           Si  tau(  46) = (   0.3745168   0.8614139   0.6444619  )
        47           Si  tau(  47) = (   0.7379345   0.7414985   0.5154686  )
        48           Si  tau(  48) = (   0.8685298   0.8655612   0.6407657  )
        49           Si  tau(  49) = (  -0.0005994   0.2442205   0.7717061  )
        50           Si  tau(  50) = (   0.2512216   0.0037909   0.7701401  )
        51           Si  tau(  51) = (   0.3701753   0.1202686   0.8973851  )
        52           Si  tau(  52) = (   0.4961215   0.2509425   0.7699866  )
        53           Si  tau(  53) = (   0.7389266  -0.0037422   0.7679070  )
        54           Si  tau(  54) = (   0.8658532   0.1211975   0.8984011  )
        55           Si  tau(  55) = (   0.1270928   0.3685738   0.8977545  )
        56           Si  tau(  56) = (   0.2489295   0.4918243   0.7728910  )
        57           Si  tau(  57) = (   0.6190733   0.3735159   0.9031256  )
        58           Si  tau(  58) = (   0.3685319   0.6206373   0.9015554  )
        59           Si  tau(  59) = (   0.7397720   0.4968461   0.7699420  )
        60           Si  tau(  60) = (   0.8702152   0.6189105   0.9039225  )
        61           Si  tau(  61) = (   0.0011069   0.7417216   0.7713602  )
        62           Si  tau(  62) = (   0.1269379   0.8618049   0.9000839  )
        63           Si  tau(  63) = (   0.4959856   0.7402006   0.7768687  )
        64           Si  tau(  64) = (   0.6211022   0.8640406   0.9022277  )

     number of k points=     1  Fermi-Dirac smearing, width (Ry)=  0.0100
                       cart. coord. in units 2pi/alat
        k(    1) = (   0.0000000   0.0000000   0.0000000), wk =   2.0000000

     Dense  grid:    97893 G-vectors     FFT dimensions: (  72,  72,  75)

     Estimated max dynamical RAM per process >     156.50 MB

     Estimated total dynamical RAM >     602.11 MB

     Initial potential from superposition of free atoms

     starting charge     255.9608, renormalised to     256.0000
     Starting wfcs are  256 randomized atomic wfcs

     total cpu time spent up to now is        4.2 secs

     Self-consistent Calculation

     iteration #  1     ecut=    30.00 Ry     beta= 0.50
     Davidson diagonalization with overlap
     ethr =  1.00E-02,  avg # of iterations =  3.0

     Threshold (ethr) on eigenvalues was too large:
     Diagonalizing with lowered threshold

     Davidson diagonalization with overlap
     ethr =  6.61E-04,  avg # of iterations =  2.0

     total cpu time spent up to now is        4.4 secs

     total energy              =    -503.86108658 Ry
     estimated scf accuracy    <       1.87312762 Ry

     iteration #  2     ecut=    30.00 Ry     beta= 0.50
     Davidson diagonalization with overlap
     ethr =  7.32E-04,  avg # of iterations =  1.0

     total cpu time spent up to now is        4.5 secs

     total energy              =    -503.84531841 Ry
     estimated scf accuracy    <       0.34500653 Ry

     iteration #  3     ecut=    30.00 Ry     beta= 0.50
     Davidson diagonalization with overlap
     ethr =  1.35E-04,  avg # of iterations =  4.0

     total cpu time spent up to now is        4.6 secs

     total energy              =    -503.86691295 Ry
     estimated scf accuracy    <       0.01380923 Ry

     iteration #  4     ecut=    30.00 Ry     beta= 0.50
     Davidson diagonalization with overlap
     ethr =  5.39E-06,  avg # of iterations = 15.0

     total cpu time spent up to now is        4.8 secs

     total energy              =    -503.87030968 Ry
     estimated scf accuracy    <       0.00996236 Ry

     iteration #  5     ecut=    30.00 Ry     beta= 0.50
     Davidson diagonalization with overlap
     ethr =  3.89E-06,  avg # of iterations =  5.0

     total cpu time spent up to now is        4.9 secs

     total energy              =    -503.87215139 Ry
     estimated scf accuracy    <       0.00158801 Ry

     iteration #  6     ecut=    30.00 Ry     beta= 0.50
     Davidson diagonalization with overlap
     ethr =  6.20E-07,  avg # of iterations =  3.0

     total cpu time spent up to now is        5.0 secs

     total energy              =    -503.87227814 Ry
     estimated scf accuracy    <       0.00035061 Ry

     iteration #  7     ecut=    30.00 Ry     beta= 0.50
     Davidson diagonalization with overlap
     ethr =  1.37E-07,  avg # of iterations =  5.0

     total cpu time spent up to now is        5.1 secs

     total energy              =    -503.87232484 Ry
     estimated scf accuracy    <       0.00003669 Ry

     iteration #  8     ecut=    30.00 Ry     beta= 0.50
     Davidson diagonalization with overlap
     ethr =  1.43E-08,  avg # of iterations =  4.0

     total cpu time spent up to now is        5.2 secs

     total energy              =    -503.87233402 Ry
     estimated scf accuracy    <       0.00000783 Ry

     iteration #  9     ecut=    30.00 Ry     beta= 0.50
     Davidson diagonalization with overlap
     ethr =  3.06E-09,  avg # of iterations =  4.0

     total cpu time spent up to now is        5.3 secs

     End of self-consistent calculation

          k = 0.0000 0.0000 0.0000 ( 12217 PWs)   bands (ev):

    -5.8050  -4.8316  -4.7868  -4.7815  -4.7213  -4.6564  -4.6365  -3.9500
    -3.8942  -3.8761  -3.8447  -3.8361  -3.7970  -3.7662  -3.7570  -3.7237
    -3.6951  -3.6787  -3.6503  -3.5673  -3.4861  -3.4580  -3.3201  -1.9170
    -1.8705  -1.7504  -1.7134  -1.7079  -1.6612  -1.6436  -1.6391  -1.6023
    -1.5936  -1.5492  -1.5292  -1.5138  -1.5055  -1.4827  -1.4291  -1.4124
    -1.3603  -0.8919  -0.8229  -0.8104  -0.7408   0.4611   0.4793   0.4899
     0.5428   0.5922   0.5983   0.6397   0.6528   0.6605   0.6827   0.6952
     0.7575   2.1247   2.1472   2.1636   2.1739   2.1883   2.2236   2.2283
     2.2377   2.2536   2.2569   2.2710   2.2843   2.2992   2.3160   2.3222
     2.3398   2.3577   2.3918   2.4013   2.4396   2.4532   2.4736   2.4939
     2.5309   2.5451   2.5535   2.6418   2.6509   2.6746   2.6806   3.1389
     3.1547   3.1855   3.1910   3.4370   3.4435   4.0094   4.0302   4.0492
     4.0840   4.1704   4.2042   4.2328   4.2712   4.3060   4.3103   4.3902
     4.4039   4.5371   4.5637   4.5743   4.5981   4.6154   4.6504   4.6646
     4.6943   4.7058   4.7481   4.8086   4.8855   4.9002   4.9245   4.9885
     5.0140   5.0346   5.0960   5.1503   5.1921   5.9091   6.1623   6.1844
     6.6055   6.6384   6.6702   6.7285   6.9529   6.9869   7.0407   7.0907
     7.1094   7.1504   7.3556   7.3992   7.4255   7.4405   7.4546   7.4679
     8.2358   8.2832   8.3024   8.3305   8.3356   8.3720   8.3904   8.4482
     8.5510   8.5670

     the Fermi energy is     6.3576 ev

!    total energy              =    -503.87233525 Ry
     estimated scf accuracy    <       0.00000041 Ry
     smearing contrib. (-TS)   =      -0.05451736 Ry
     internal energy E=F+TS    =    -503.81781789 Ry

     The total energy is F=E-TS. E is the sum of the following terms:
     one-electron contribution =     146.68875747 Ry
     hartree contribution      =      36.71692612 Ry
     xc contribution           =    -153.68626083 Ry
     ewald contribution        =    -533.53724065 Ry

     convergence has been achieved in   9 iterations

     Forces acting on atoms (cartesian axes, Ry/au):

     atom    1 type  1   force =     0.00237321   -0.00647176    0.01185586
     atom    2 type  1   force =    -0.01734884    0.02740758    0.00039166
     atom    3 type  1   force =    -0.01035920   -0.02631560    0.02933011
     atom    4 type  1   force =     0.03937906   -0.01112940   -0.00650574
     atom    5 type  1   force =    -0.02684760   -0.02165553   -0.03810893
     atom    6 type  1   force =     0.01612008   -0.03086661    0.00343801
     atom    7 type  1   force =    -0.00488430    0.02518206    0.01347924
     atom    8 type  1   force =     0.00907797   -0.01597957   -0.01992747
     atom    9 type  1   force =     0.02642230   -0.02275622   -0.02251412
     atom   10 type  1   force =    -0.01000958    0.01425754   -0.01667702
     atom   11 type  1   force =    -0.01031128    0.01068110   -0.02178074
     atom   12 type  1   force =    -0.01486774    0.02048240   -0.00037784
     atom   13 type  1   force =     0.02250525   -0.02949360   -0.02109640
     atom   14 type  1   force =    -0.01092789   -0.02338675   -0.02118084
     atom   15 type  1   force =    -0.03761152   -0.01651402   -0.04601849
     atom   16 type  1   force =     0.05270507    0.03177618    0.00442527
     atom   17 type  1   force =     0.01254311   -0.01219635    0.02159415
     atom   18 type  1   force =     0.00574592   -0.00911665   -0.03136047
     atom   19 type  1   force =    -0.03212902    0.03597043    0.00887901
     atom   20 type  1   force =    -0.00297858    0.01350273    0.02861411
     atom   21 type  1   force =     0.00565082    0.00914198   -0.03525346
     atom   22 type  1   force =    -0.01020200    0.00756548    0.02391989
     atom   23 type  1   force =     0.01738141   -0.01452182    0.02774971
     atom   24 type  1   force =     0.00511260    0.01068636   -0.00844933
     atom   25 type  1   force =    -0.02368041   -0.03467466   -0.01055161
     atom   26 type  1   force =    -0.00845174    0.00931088   -0.01660726
     atom   27 type  1   force =    -0.01152242    0.01907056    0.01010047
     atom   28 type  1   force =    -0.00699999   -0.00626239    0.01056246
     atom   29 type  1   force =    -0.00566357   -0.01036468    0.00031954
     atom   30 type  1   force =    -0.01353032    0.00700563   -0.00735232
     atom   31 type  1   force =     0.00328007    0.00388433    0.01563597
     atom   32 type  1   force =     0.00437504    0.01020975   -0.01659970
     atom   33 type  1   force =     0.00774865   -0.02075021   -0.00169500
     atom   34 type  1   force =    -0.02891253   -0.02882548    0.02916019
     atom   35 type  1   force =    -0.00009396    0.00869263    0.01160549
     atom   36 type  1   force =     0.00277089   -0.02964325    0.00193258
     atom   37 type  1   force =     0.00115201    0.01515386    0.00798006
     atom   38 type  1   force =     0.00237448    0.01459337   -0.00639216
     atom   39 type  1   force =    -0.01291999   -0.00397797   -0.00478006
     atom   40 type  1   force =    -0.02267385   -0.00469187    0.03262611
     atom   41 type  1   force =    -0.00179656    0.03028611    0.01728745
     atom   42 type  1   force =     0.03898429    0.01933354   -0.00792101
     atom   43 type  1   force =     0.00652309    0.01986704   -0.01678767
     atom   44 type  1   force =    -0.00362544   -0.01449827   -0.00720480
     atom   45 type  1   force =    -0.02100607   -0.00005304    0.00313074
     atom   46 type  1   force =    -0.00184282    0.03270648    0.00553892
     atom   47 type  1   force =     0.05019381    0.00665088   -0.02635750
     atom   48 type  1   force =     0.01233918    0.00975106    0.00698214
     atom   49 type  1   force =    -0.01614226    0.00114344   -0.00263283
     atom   50 type  1   force =    -0.01474217   -0.06181463   -0.00370397
     atom   51 type  1   force =     0.00644235    0.04485754    0.02793882
     atom   52 type  1   force =     0.00440198   -0.02110414    0.02152521
     atom   53 type  1   force =     0.02550157   -0.01522464    0.01969603
     atom   54 type  1   force =     0.01921916   -0.01075803    0.00370497
     atom   55 type  1   force =    -0.03192970    0.00646812    0.02045185
     atom   56 type  1   force =    -0.00144519    0.01318447   -0.01173077
     atom   57 type  1   force =     0.00637653   -0.00995273    0.00758289
     atom   58 type  1   force =     0.02025662   -0.03070367    0.01221844
     atom   59 type  1   force =     0.02400308   -0.00172281    0.01699035
     atom   60 type  1   force =     0.00932061   -0.00594821   -0.00919533
     atom   61 type  1   force =    -0.02197913   -0.00505468   -0.00391966
     atom   62 type  1   force =    -0.01142759    0.04363115   -0.00331512
     atom   63 type  1   force =     0.00862763    0.00108753   -0.01597239
     atom   64 type  1   force =    -0.02004459    0.03288704    0.00532230

     Total force =     0.268149     Total SCF correction =     0.000977


     Computing stress (Cartesian axis) and pressure

          total   stress  (Ry/bohr**3)                   (kbar)     P=       12.64
   0.00013926   0.00000773   0.00002646           20.49        1.14        3.89
   0.00000773   0.00015734   0.00001185            1.14       23.15        1.74
   0.00002646   0.00001185  -0.00003884            3.89        1.74       -5.71

 
     init_run     :      1.01s CPU      4.18s WALL (       1 calls)
     electrons    :      0.96s CPU      1.07s WALL (       1 calls)
     forces       :      0.03s CPU      0.04s WALL (       1 calls)
     stress       :      0.15s CPU      0.16s WALL (       1 calls)

     Called by init_run:
     wfcinit      :      0.44s CPU      3.46s WALL (       1 calls)
                                        3.46s GPU  (       1 calls)
     potinit      :      0.15s CPU      0.22s WALL (       1 calls)
     hinit0       :      0.41s CPU      0.43s WALL (       1 calls)

     Called by electrons:
     c_bands      :      0.66s CPU      0.72s WALL (      10 calls)
     sum_band     :      0.16s CPU      0.19s WALL (      10 calls)
     v_of_rho     :      0.08s CPU      0.16s WALL (      10 calls)
     mix_rho      :      0.05s CPU      0.06s WALL (      10 calls)

     Called by c_bands:
     init_us_2    :      0.03s CPU      0.03s WALL (      21 calls)
     init_us_2:gp :      0.03s CPU      0.03s WALL (      21 calls)
     regterg      :      0.59s CPU      0.63s WALL (      10 calls)

     Called by *egterg:
     rdiaghg      :      0.27s CPU      0.88s WALL (      55 calls)
                                        0.87s GPU  (      55 calls)
     h_psi        :      0.65s CPU      3.07s WALL (      57 calls)
                                        3.07s GPU  (      57 calls)
     g_psi        :      0.00s CPU      0.00s WALL (      46 calls)
                                        0.00s GPU  (      46 calls)

     Called by h_psi:
     h_psi:calbec :      0.39s CPU      2.76s WALL (      57 calls)
                                        2.76s GPU  (      57 calls)
     vloc_psi     :      0.22s CPU      0.28s WALL (      57 calls)
                                        0.27s GPU  (      57 calls)
     add_vuspsi   :      0.02s CPU      0.03s WALL (      57 calls)
                                        0.03s GPU  (      57 calls)

     General routines
     calbec       :      0.39s CPU      2.77s WALL (      62 calls)
     fft          :      0.42s CPU      0.52s WALL (      87 calls)
                                        0.10s GPU  (      56 calls)
     ffts         :      0.02s CPU      0.02s WALL (      10 calls)
     fftw         :      0.26s CPU      0.36s WALL (    1090 calls)
                                        0.32s GPU  (    1090 calls)
 
     Parallel routines
 
     PWSCF        :      2.19s CPU      5.51s WALL

 
   This run was terminated on:  11:21:26  10May2023            

=------------------------------------------------------------------------------=
   JOB DONE.
=------------------------------------------------------------------------------=
