10.61711358163715 0.0 0.0 0.0 10.61711358163715 0.0 0.0 0.0 10.61711358163715
10.616205513547614 0.0 0.0 0.0 10.616205513547614 0.0 0.0 0.0 10.616205513547614
10.613945397690737 0.0 0.0 0.0 10.613945397690737 0.0 0.0 0.0 10.613945397690737
10.611387884242765 0.0 0.0 0.0 10.611387884242765 0.0 0.0 0.0 10.611387884242765
10.609562752051154 0.0 0.0 0.0 10.609562752051154 0.0 0.0 0.0 10.609562752051154
10.609195503068555 0.0 0.0 0.0 10.609195503068555 0.0 0.0 0.0 10.609195503068555
10.61067614089753 0.0 0.0 0.0 10.61067614089753 0.0 0.0 0.0 10.61067614089753
10.614467695595383 0.0 0.0 0.0 10.614467695595383 0.0 0.0 0.0 10.614467695595383
10.62124751398881 0.0 0.0 0.0 10.62124751398881 0.0 0.0 0.0 10.62124751398881
10.631507201704366 0.0 0.0 0.0 10.631507201704366 0.0 0.0 0.0 10.631507201704366
10.645118697857635 0.0 0.0 0.0 10.645118697857635 0.0 0.0 0.0 10.645118697857635
10.661967170994405 0.0 0.0 0.0 10.661967170994405 0.0 0.0 0.0 10.661967170994405
10.682243654086887 0.0 0.0 0.0 10.682243654086887 0.0 0.0 0.0 10.682243654086887
10.706299520801432 0.0 0.0 0.0 10.706299520801432 0.0 0.0 0.0 10.706299520801432
10.73439036372967 0.0 0.0 0.0 10.73439036372967 0.0 0.0 0.0 10.73439036372967
10.766342083570057 0.0 0.0 0.0 10.766342083570057 0.0 0.0 0.0 10.766342083570057
10.801656195392322 0.0 0.0 0.0 10.801656195392322 0.0 0.0 0.0 10.801656195392322
10.839922057682783 0.0 0.0 0.0 10.839922057682783 0.0 0.0 0.0 10.839922057682783
10.881155016580482 0.0 0.0 0.0 10.881155016580482 0.0 0.0 0.0 10.881155016580482
10.925609606322638 0.0 0.0 0.0 10.925609606322638 0.0 0.0 0.0 10.925609606322638
10.973220738112623 0.0 0.0 0.0 10.973220738112623 0.0 0.0 0.0 10.973220738112623
11.023214225694616 0.0 0.0 0.0 11.023214225694616 0.0 0.0 0.0 11.023214225694616
11.073881885040052 0.0 0.0 0.0 11.073881885040052 0.0 0.0 0.0 11.073881885040052
11.12307631503743 0.0 0.0 0.0 11.12307631503743 0.0 0.0 0.0 11.12307631503743
11.169578291398706 0.0 0.0 0.0 11.169578291398706 0.0 0.0 0.0 11.169578291398706
11.213695266081931 0.0 0.0 0.0 11.213695266081931 0.0 0.0 0.0 11.213695266081931
11.255872277119334 0.0 0.0 0.0 11.255872277119334 0.0 0.0 0.0 11.255872277119334
11.29608127811887 0.0 0.0 0.0 11.29608127811887 0.0 0.0 0.0 11.29608127811887
11.334431808762668 0.0 0.0 0.0 11.334431808762668 0.0 0.0 0.0 11.334431808762668
11.370709023104135 0.0 0.0 0.0 11.370709023104135 0.0 0.0 0.0 11.370709023104135
11.404010144825826 0.0 0.0 0.0 11.404010144825826 0.0 0.0 0.0 11.404010144825826
11.433857856085798 0.0 0.0 0.0 11.433857856085798 0.0 0.0 0.0 11.433857856085798
11.459785422586288 0.0 0.0 0.0 11.459785422586288 0.0 0.0 0.0 11.459785422586288
11.481838353567214 0.0 0.0 0.0 11.481838353567214 0.0 0.0 0.0 11.481838353567214
11.500446870098965 0.0 0.0 0.0 11.500446870098965 0.0 0.0 0.0 11.500446870098965
11.51604648502402 0.0 0.0 0.0 11.51604648502402 0.0 0.0 0.0 11.51604648502402
11.529531507824492 0.0 0.0 0.0 11.529531507824492 0.0 0.0 0.0 11.529531507824492
11.541368672798153 0.0 0.0 0.0 11.541368672798153 0.0 0.0 0.0 11.541368672798153
11.551346309061659 0.0 0.0 0.0 11.551346309061659 0.0 0.0 0.0 11.551346309061659
11.55962528648635 0.0 0.0 0.0 11.55962528648635 0.0 0.0 0.0 11.55962528648635
11.56622095121127 0.0 0.0 0.0 11.56622095121127 0.0 0.0 0.0 11.56622095121127
11.57155929088914 0.0 0.0 0.0 11.57155929088914 0.0 0.0 0.0 11.57155929088914
11.577290280055609 0.0 0.0 0.0 11.577290280055609 0.0 0.0 0.0 11.577290280055609
11.584323045154626 0.0 0.0 0.0 11.584323045154626 0.0 0.0 0.0 11.584323045154626
11.590797528298832 0.0 0.0 0.0 11.590797528298832 0.0 0.0 0.0 11.590797528298832
11.594625067046854 0.0 0.0 0.0 11.594625067046854 0.0 0.0 0.0 11.594625067046854
11.594967444700659 0.0 0.0 0.0 11.594967444700659 0.0 0.0 0.0 11.594967444700659
11.591897687715 0.0 0.0 0.0 11.591897687715 0.0 0.0 0.0 11.591897687715
11.586461450253584 0.0 0.0 0.0 11.586461450253584 0.0 0.0 0.0 11.586461450253584
11.580598166785027 0.0 0.0 0.0 11.580598166785027 0.0 0.0 0.0 11.580598166785027
11.576898159744218 0.0 0.0 0.0 11.576898159744218 0.0 0.0 0.0 11.576898159744218
11.57584615545401 0.0 0.0 0.0 11.57584615545401 0.0 0.0 0.0 11.57584615545401
11.57582075494801 0.0 0.0 0.0 11.57582075494801 0.0 0.0 0.0 11.57582075494801
11.576102806400064 0.0 0.0 0.0 11.576102806400064 0.0 0.0 0.0 11.576102806400064
11.576797616074632 0.0 0.0 0.0 11.576797616074632 0.0 0.0 0.0 11.576797616074632
11.5775432267612 0.0 0.0 0.0 11.5775432267612 0.0 0.0 0.0 11.5775432267612
11.576554723735997 0.0 0.0 0.0 11.576554723735997 0.0 0.0 0.0 11.576554723735997
11.57233347714496 0.0 0.0 0.0 11.57233347714496 0.0 0.0 0.0 11.57233347714496
11.565069461605892 0.0 0.0 0.0 11.565069461605892 0.0 0.0 0.0 11.565069461605892
11.555113521607927 0.0 0.0 0.0 11.555113521607927 0.0 0.0 0.0 11.555113521607927
11.54302182239705 0.0 0.0 0.0 11.54302182239705 0.0 0.0 0.0 11.54302182239705
11.529263214979858 0.0 0.0 0.0 11.529263214979858 0.0 0.0 0.0 11.529263214979858
11.514192777263156 0.0 0.0 0.0 11.514192777263156 0.0 0.0 0.0 11.514192777263156
11.498340744809719 0.0 0.0 0.0 11.498340744809719 0.0 0.0 0.0 11.498340744809719
11.48215374318339 0.0 0.0 0.0 11.48215374318339 0.0 0.0 0.0 11.48215374318339
11.46632552370433 0.0 0.0 0.0 11.46632552370433 0.0 0.0 0.0 11.46632552370433
11.452344132682422 0.0 0.0 0.0 11.452344132682422 0.0 0.0 0.0 11.452344132682422
11.442109845472864 0.0 0.0 0.0 11.442109845472864 0.0 0.0 0.0 11.442109845472864
11.437419747875225 0.0 0.0 0.0 11.437419747875225 0.0 0.0 0.0 11.437419747875225
11.439387757913092 0.0 0.0 0.0 11.439387757913092 0.0 0.0 0.0 11.439387757913092
11.4470153181943 0.0 0.0 0.0 11.4470153181943 0.0 0.0 0.0 11.4470153181943
11.457858159193465 0.0 0.0 0.0 11.457858159193465 0.0 0.0 0.0 11.457858159193465
11.469364059234696 0.0 0.0 0.0 11.469364059234696 0.0 0.0 0.0 11.469364059234696
11.479686719038048 0.0 0.0 0.0 11.479686719038048 0.0 0.0 0.0 11.479686719038048
11.488975895753486 0.0 0.0 0.0 11.488975895753486 0.0 0.0 0.0 11.488975895753486
11.498782607778693 0.0 0.0 0.0 11.498782607778693 0.0 0.0 0.0 11.498782607778693
11.51047583655168 0.0 0.0 0.0 11.51047583655168 0.0 0.0 0.0 11.51047583655168
11.523906354099696 0.0 0.0 0.0 11.523906354099696 0.0 0.0 0.0 11.523906354099696
11.538579379732921 0.0 0.0 0.0 11.538579379732921 0.0 0.0 0.0 11.538579379732921
11.553420683718405 0.0 0.0 0.0 11.553420683718405 0.0 0.0 0.0 11.553420683718405
11.56653898671349 0.0 0.0 0.0 11.56653898671349 0.0 0.0 0.0 11.56653898671349
11.576603937216374 0.0 0.0 0.0 11.576603937216374 0.0 0.0 0.0 11.576603937216374
11.582786314541567 0.0 0.0 0.0 11.582786314541567 0.0 0.0 0.0 11.582786314541567
11.58457599186022 0.0 0.0 0.0 11.58457599186022 0.0 0.0 0.0 11.58457599186022
11.582451345368682 0.0 0.0 0.0 11.582451345368682 0.0 0.0 0.0 11.582451345368682
11.577418870117238 0.0 0.0 0.0 11.577418870117238 0.0 0.0 0.0 11.577418870117238
11.570976137605534 0.0 0.0 0.0 11.570976137605534 0.0 0.0 0.0 11.570976137605534
11.563946547569767 0.0 0.0 0.0 11.563946547569767 0.0 0.0 0.0 11.563946547569767
11.557022792975667 0.0 0.0 0.0 11.557022792975667 0.0 0.0 0.0 11.557022792975667
11.551264815771573 0.0 0.0 0.0 11.551264815771573 0.0 0.0 0.0 11.551264815771573
11.547148875444998 0.0 0.0 0.0 11.547148875444998 0.0 0.0 0.0 11.547148875444998
11.545106780597964 0.0 0.0 0.0 11.545106780597964 0.0 0.0 0.0 11.545106780597964
11.545639132869567 0.0 0.0 0.0 11.545639132869567 0.0 0.0 0.0 11.545639132869567
11.548862880422856 0.0 0.0 0.0 11.548862880422856 0.0 0.0 0.0 11.548862880422856
11.553871542699923 0.0 0.0 0.0 11.553871542699923 0.0 0.0 0.0 11.553871542699923
11.559403561236051 0.0 0.0 0.0 11.559403561236051 0.0 0.0 0.0 11.559403561236051
11.565448881664281 0.0 0.0 0.0 11.565448881664281 0.0 0.0 0.0 11.565448881664281
11.572617645305845 0.0 0.0 0.0 11.572617645305845 0.0 0.0 0.0 11.572617645305845
11.58009544843709 0.0 0.0 0.0 11.58009544843709 0.0 0.0 0.0 11.58009544843709
11.585802095451974 0.0 0.0 0.0 11.585802095451974 0.0 0.0 0.0 11.585802095451974
11.587443073975079 0.0 0.0 0.0 11.587443073975079 0.0 0.0 0.0 11.587443073975079
