0.11752975348806856 0.11479204284193134 0.270145809156309 -0.25385272842324025 -0.011279943789193475 -0.19318009313353182 0.1493119309956719 -0.26483879512109876 -0.3924683560473305 0.1510484540708044 0.6259075538112253 0.40433476846761335 -0.22914442704328278 -0.07480110427129052 0.3810038070511568 0.3800959505249067 -0.35181921506740055 -0.8657331147174381 0.2019814934752457 0.02441725250209988 -0.23947923331038756 -0.08061411140864182 -0.8321064278019282 0.08630062027045782 0.13507624701226414 -0.4993516855651465 0.05515530501590501 0.3252090686790399 -1.1651535044681482 0.3175659503114853 -0.14979684105189042 0.28479698341058046 0.015988919229088593 0.05055945811510647 0.3737795213885756 -0.20744174525886855 0.2434245911113808 0.506928726581456 1.0304133006390641 0.8785873449722867 -0.9691863355077825 0.34149289344072803 0.13509141652091575 -0.8743820486416877 -1.3006174738371343 0.7224355082366462 0.7428107294588885 -0.2551807032060444 0.7433167225610294 -0.9954686662430792 0.6914105206100415 -0.22819157621171024 -0.8916572907823676 -0.7200207281475663 0.12802293970990855 0.19857401045559347 0.2810244037420257 -0.1828789683178399 -0.010481873367930335 -0.0689767842800296 0.02904575241304675 -0.0814512625979565 -0.5220519553761396 -0.09659248911476913 -0.07967103076908215 -0.9616524890245824 -0.06398318772018012 1.2439974113502448 -0.5285144231720318 -0.1932752239504994 -0.40454482759589044 -0.1619761567269017 -0.7995737452815455 0.026486219215986647 -0.9879795569548857 1.0016269725349911 0.13852589612376143 -0.4426161805463151 -0.5315562953221491 0.4646549055139095 -0.6241579181099702 0.3202897770005516 -0.30320582493507137 -0.33787972216817297 -0.2512546286787608 -0.9713172658078564 -0.29543569407134923 -0.8714309364331637 0.31092170552209036 -0.043634448860499046 0.42086104825741066 0.1221492545379509 0.5101081527507021 0.40985209874141676 0.9053494435574795 0.18944993666713822 0.7288259851440222 0.6307211731497847 0.14018014389773278 0.11477121690632491 -0.59783264995188 -0.03976956658845409 0.11737702996028816 0.2811087359257159 0.03741752141650975 -0.0007193946645277933 0.4848249527038811 -0.8923008379036376 -0.8467172357365675 1.108046475042511 0.4517225137229575 0.5502487295253298 -0.37191084361095306 -0.29597279752174194 0.42040904832165665 -0.6161689863672226 -0.09089569584030797 0.1062454388235009 0.11982086351509041 -0.561080272923195 0.5782146186106365 0.4966661683131833 0.5927246393013533 -0.2938084428805714 -0.20301739093892776 0.4580582261329982 -0.21177148298247397 0.09733965169343882 0.4190144819669751 -1.4418196312414782 -0.9179385930763997 0.20265769360666386 0.49786790193076835 0.8204233350370452 0.17017180516381664 -0.07844307189925201 0.008848194419249278 -0.3034986735851418 -0.5642962087573313 0.5371900965691587 1.3795187163197273 0.28267916573662927 0.2619676442208908 0.11301412500590213 0.9818199651113929 0.5445573355675073 1.1808578025772825 -0.11377491443132665 0.34632733871489385 0.5615613263246716 -0.9897574747909147 0.44236652642935426 0.3080988913613146 -0.0620772289467189 0.24430519394412117 -0.19546863205739237 0.5878284875513167 0.6752699062944371 -0.2412100999585652 -0.4665927459665706 -0.6407325346391998 -0.09869925104512679 -0.5794104386909504 -0.7714764728246971 -0.8371349913647711 0.049696853004495056 0.4676744090665236 -0.11779689110652615 0.18503612387015875 -0.22855692997092894 0.21497713440396526 0.333679053823264 0.010318094096556422 -0.11257780879943191 -0.8205261791634965 0.6103845184749617 0.26640588249790254 0.7042655221958387 -0.18327286132214887 -0.457563802995083 -1.0077721662007804 0.2209644623356517 0.9372072114980247 -0.35490119642683393 0.002757508140479122 0.1744416361837641 0.14183387745107184 -0.14195960439565875 -0.12285219414224648 -1.159632574649919 -1.042390013384966 1.333393896937207
0.4340448939375363 0.3908287635613785 0.7678206212396647 -0.3916546018967835 0.1470097652250565 0.034325769865063464 -0.23348496340016564 -0.12656769532062073 -0.10626909297258472 -0.1475682088316878 0.7246101472904617 0.3586665770065371 -0.07359165734422166 0.476442899287773 0.1988935985785413 0.22217699458651413 -0.4528604839821426 -0.7376227575000458 0.23452034664321547 0.037430376932316184 -0.19047452127691067 0.22814143970006517 -0.74041446131257 -0.03458185173992754 0.551756681529424 -1.0594436264331433 0.6335025925496638 0.19093526296341312 -1.2587095207494388 0.5199284812752336 -0.2884502638924516 0.17010649914351994 -0.13793222840382052 -0.12178235811683541 0.014805440443948695 -0.38487691685331776 -0.31845915154971605 0.4631017020941766 0.06560503959431928 1.0488139146334388 -1.1414584748440535 0.4221476282793182 -0.19842771468571632 0.39960599553337633 -1.3872171134052496 0.9065352363354646 0.4390742288313277 -0.17198469000283928 1.8457669344626857 -1.4403119363477002 1.2592067721008313 0.9237960802984413 -0.00494885936484309 -0.6862549445510311 0.05153390621323382 0.26572274038794885 -0.0761902713093333 0.3924375028093951 -0.17843893026861526 -0.6999301280452784 -0.015318118414309101 0.233099812146605 -0.5356659466151484 -0.10394044483940809 -0.23083004227582185 -0.6269555354597655 -1.3365188157194337 1.149459490771659 -1.531889231636065 -0.15977529242084096 -0.4289551381194548 -0.17888964465278867 -0.41081934775069245 1.0551827942742602 0.03242623884950545 1.7278119205117404 -0.023924629136397507 -0.7725349959961986 -0.5715302646119254 0.5210983332136186 -0.04379694258029231 0.2983353842166475 -0.4743579917342863 -0.34304506841919624 -0.45598051766836306 0.5956202156815935 -0.06943624041495138 -0.7035258158163368 0.4862943381605561 -0.026438653807502852 0.9872071975652352 -0.10131560562205133 0.6396303027139565 0.46437979747565183 1.0099835720298025 0.43179852110552086 0.5970664612098169 0.775810838533993 -0.10475471321058734 0.3680783572387403 0.2692778047290588 0.20184728189022655 0.19351305099291832 0.31251167571702954 -0.09969195397569927 0.47078698655357626 -0.1288541773619523 -0.8484892400353258 -1.0432667595629646 0.39156332773455793 -0.6670984262272381 0.3217843592682071 0.5977940834044607 -0.12523843498623594 0.863487513216371 -0.86683277553952 0.25546275322283746 0.002616097466608398 0.39094266343142353 -0.7593051275694859 0.390573710127779 -0.15627319280485344 0.18772961154192183 -0.2910409074377633 -0.3259140651658645 0.5408811722675008 -0.18874571151126204 0.03410105544876708 0.5959171780967221 -2.388579005204312 -1.166195058358785 0.706205676641345 0.39856212764989424 0.21296447484931066 0.0589368835455243 0.5054932796865101 0.23827107193489933 -0.335648518844809 -0.6684464556147004 0.24503692990382314 1.211954781092403 0.20172489737974936 0.30323205018731647 -0.05678332753763124 0.20832954718046057 -0.18698527717672958 1.1221302068290868 -0.16009616609536942 0.39290287248158784 0.4182156402147636 -0.9586075315506717 0.3858876175060193 0.0820259041545039 -0.6966494004114776 -0.13260053177826195 0.0659246277172671 0.8137307535082179 0.07200502958339212 -0.533063733105611 -0.9395805968262076 -0.37438553040369066 -0.3554213305963621 -0.8370719993373197 0.02870919500923443 -0.4591488880940157 0.21935572308763512 0.32255620443722516 -0.043238241863344885 -0.004258775276353956 -0.029615765983903836 0.07777869884237573 0.20051082246699015 -0.20510178427178224 -0.21053889612695356 -0.1954542338796892 0.42072632245175934 0.24610779437049876 0.3547703272759245 -0.924461481796582 -0.15853782046931403 -0.413301747852914 0.0380870366797086 0.7331150994376794 -0.5707864444673654 -1.5248549504971027 0.5325513122455667 0.16976917040875922 0.14286874647348943 -0.37330335308310547 -1.9016326352820538 -0.4701136146356355 1.4715117589892721
0.5273008624799048 0.7930009771600344 1.0349883216042564 -0.5822178262327585 -0.098991585474565 0.4489873741799816 -0.6071912083486446 0.15147165765115206 0.1852364128064229 -0.5029987953994305 0.775363209473613 0.23637642601534772 0.21810693828219854 0.7570775237905477 -0.047512186648350434 -0.1510109159646496 -0.6465959353985122 -0.3148326105407223 -0.0524751870805806 -0.09277054426551766 -0.24541128252410638 0.42323571913717434 -0.5136825003655218 -0.1793778971431169 0.9524044880637533 -1.6133410084546538 1.3319782475366029 -0.5865097687398931 -0.25521284199556044 0.6243690056795118 -0.2935791004785847 -0.10510746856431577 -0.18596506344233135 -0.06230194336301529 -0.44652888533716 -0.6132086181873181 -0.5012748707297883 0.3098436419665631 -0.3856176516740843 0.9085088151220675 -0.8539721175267679 0.3248935943211501 -0.3478795136933622 1.6526367207304828 -1.0691773087811391 0.9239686013205636 0.0009088849675145637 -0.1555787378409901 1.5739835897029537 -1.3482227344199234 0.9249355932195232 1.381457328103337 0.6537502870551063 -0.6209280983187628 -0.3155180666435211 0.14885915972896943 -0.5431203460106647 1.7444425870898859 -0.5103315816154178 -1.0998521121571767 -0.13923372082406343 0.44182402366232293 -0.43808204012138746 -0.21860521807485578 -0.4610314498287092 -0.22127222338405764 -1.3486287116090903 0.7917470501482752 -1.5244605432721616 -0.1604026415921947 -0.4585361942106813 -0.19816057706725873 -0.5255833655681658 1.8672173910269778 0.5704887107212885 1.0102777062314536 -0.17540117188355597 -0.46855038391357373 -0.671842625780443 0.7418622495026901 0.3069902316781681 0.33687982014874884 -0.5701979189537469 -0.25070775503635534 -0.04986320337903025 1.999138894460344 -0.250639106581949 -0.28325612128602184 0.46353184765305977 0.1326918059404876 1.42773872766838 -0.30884194017492617 0.6795435939691263 0.4908799006487094 0.8827695013744346 0.4315714926963793 0.4140802778901514 0.7315575251425723 -0.3045479407852626 0.20942715112001353 1.5428027932247752 0.48236440697853056 0.13003354238203413 0.37930173675838547 -0.23107121175235043 0.7727851643337916 -0.8567717917590921 -0.23428869024838359 -1.2781676294740505 0.3811087080601372 -1.539914930154019 -0.6553739387014584 1.8244846280451417 0.07015203553505338 1.167178762428293 -0.8807105619628767 0.4231945814865937 -0.03284198623068538 0.5245256137276129 -0.7575963724084952 0.3793426172986499 -0.47471460374275665 0.0869120286022116 -0.1803574874475668 -0.24083986110334002 0.5451656585754676 -0.16147479161045095 -0.017141287665976928 0.7211281022791323 -2.618620747250884 -1.2128757502447756 1.0147198011632073 0.6910053147518228 -0.7408548912840983 -0.1605327394121558 0.7419144428968643 0.19758439284881454 -0.5384139416739308 0.2436847867513029 -0.8387676418721877 0.5162389482387884 0.231534267431698 0.32013731058308736 -0.15406230119646372 -0.5391551907153296 -1.310840180006407 0.7065640884220283 -0.1628091941511583 0.44999756061205076 0.36855709664737174 -0.6674573522285537 -0.011473033636606046 0.012877113072984274 -1.3603711968569991 -1.0647807223753403 0.40301527832524137 0.9963078743149228 -0.813544862749657 -0.36491692879162313 -1.1154011156353694 0.05098960367398961 -0.6791358170077465 -0.7365228395676476 0.39210505917064087 -0.21597035155517 0.3800578981981197 0.18175976711173214 0.08756251770201695 -0.13539326403205068 0.15690105619683947 -0.2530310038528933 -0.11412818400568732 -0.2840953293578656 -0.21484677947368805 -0.09151995968786818 0.2739854946173733 0.21873351612260394 -0.165633808084147 -1.389251113116143 0.23821476477566714 0.32929583715390387 -0.13233982191770757 0.6573295197659325 -0.46577256405812045 -2.4627512176423525 0.7694337313630556 0.4512499449619132 0.8191138721970022 -0.6368897638543418 -1.1757083971658593 0.5331616921360559 0.5424598296085302
0.22522915114927664 0.6861790970077731 0.7979323530233806 -0.6639336553460113 -0.7485466035014011 0.9364397372043809 -0.7647869766196635 0.4080428134468198 0.36966035701387945 -0.8193848664702018 0.8271164307865044 0.14352463488993344 0.48944291109186666 1.0348281418773082 -0.18383387603194146 -0.622567947915031 -1.0833934523805213 0.7626861282265768 -1.4047078139908453 -0.4864830571325944 -0.22350471225900218 0.5398457890244509 -0.24536551688783548 -0.33853843879809437 0.666390087306304 -1.4003189408945302 1.0115606867089353 -2.122259511772629 1.6744448177445097 1.0465695986839523 -0.3130490362777383 -0.47997456659011534 -0.13816439901928462 0.15694476495058132 -1.1119774346658011 -1.0223397796023104 -0.4023488483858361 0.2403922320429602 -0.506744635595108 0.5339057693909322 -0.4188152214719755 0.14294819356117316 -0.07359165734422166 0.9474751690829359 -0.3196832537648043 0.6994526741882277 -0.2237199135936018 -0.2542790173273814 0.5547594729114897 -0.4249624720202939 -0.05595800342285847 0.723701005212631 1.1439974392158232 0.1875385785770383 -0.80429737600946 -0.2539959388693238 -0.7975641710506844 2.245805903768422 -0.48188438201831846 -0.9549488517521617 -0.4472331104930362 0.5458675697384986 -0.03676600387543991 -0.477278764925507 -0.5379868814388412 0.2194086878127576 -0.573736785344941 -0.02627873119087087 -0.7110254666274917 -0.20977784959121287 -0.4949448147467024 -0.31299375755977066 -0.21773155722065085 1.6981982114103655 0.6333753229431802 -0.016353758767675062 -0.467605246391485 -0.2587802476318446 -0.689822093076999 0.7142228905188668 0.283168446668222 0.3090561130682613 -0.4865812732733556 -0.08191971759394279 0.217038130698052 2.397656799135864 -0.3132619236194928 0.16192113511925016 0.2507069837054069 0.525725547572985 1.4216269583436871 -0.3634902236474256 0.6026640099022524 0.45273218593439446 0.6045560847186426 0.3714652714331022 0.22767092782154985 0.525429870709437 -0.2998348515803094 0.29131421570380794 2.3414879652537803 0.5039267065303386 -0.2568588622394157 0.5587935337715473 -0.4541210958621212 1.0545544166616418 -1.4603138333909238 0.4926567900434741 -0.7242897878365655 0.37424129151634256 -1.0415006688014772 -1.483980066659612 1.8114041407120995 0.10786394826353037 0.884771876516444 -0.305516475346119 0.025854756279574828 0.04305260821510005 0.3997543481857825 -0.5814572939176502 0.5281444414271227 -0.5536803809146981 0.41963746026295473 0.22750663432954366 -0.04490945891818072 0.37087083238221286 -0.12472344302303036 -0.03825390127487605 0.743597744136558 -1.91342114327655 -0.8934802029237193 0.3341773336159213 1.0416451647991416 -1.2986181840189184 -0.30213084670333773 0.6243191262781829 -0.2501084308894596 -0.7824337431671492 1.975522797703301 -2.5600733858342943 -0.3738481698429819 0.24859173713461707 0.3529052490427277 -0.3042489214876051 -0.7630136867693246 -1.2343136084035775 0.4309775678661223 -0.35315670293190143 0.4452114520773171 0.5770964458457932 -0.3878275148412095 -0.5179469320688305 -0.3235075126069009 -1.376203021682933 -1.4748979018526858 0.574734630481836 0.7370681705481564 -0.8573546608457557 0.24605225854221494 -0.3528366005883214 0.2955128271661879 -1.2008512149800739 -0.47940789545336787 0.38489491457544683 -0.09897101664927471 0.4506693898680948 -0.06699266397046527 0.4646232809450256 -0.15002489790229648 0.3048616153709395 -0.639715149118279 -0.46258902412381625 -0.20763869176102306 -0.13528887724370248 0.021889858094555847 -0.05763770511812654 0.20056095897863524 -0.3047752263047203 -1.1612749953493484 0.49625427758674534 0.7265654712446197 -0.24323921457345204 0.6637577918897795 -0.3766046495421966 -1.282684029287165 -0.020850103976131833 0.9215705334020323 1.5729374078266265 -0.9507715804460207 0.7298649679314979 1.7041402879264134 -0.6674738072887859
-0.38227650311599326 0.009087049902932737 0.1300361134851954 -0.2823948017269911 -1.1131652843263151 1.1838328260452065 -0.669729436092182 0.45794766869706294 0.3092895692353061 -0.9123842389170739 0.5842829362919034 0.060643324713669754 0.5547993250104897 1.1576265999634836 -0.21188692551441574 -0.5500386703970528 -2.020882199674707 2.04803279194757 -3.2908834912878806 -0.8603492246977054 -0.032812932764962846 0.7169143213081008 0.012866828660339131 -0.37929248078700484 0.16470358296039375 -0.0703896054671562 0.3293858257645489 -1.560282180956461 1.3741703075236207 0.8362302201623146 -0.31081886139563886 -0.7025590810276934 -0.052380827594561405 0.3261840309977995 -1.6803133607101446 -1.446411878597851 -0.19663925532672585 0.2919389937720004 -0.503537698622036 0.07240123658054629 -0.14805826109422887 0.039345334566841916 0.3737047022865822 0.13153480951790894 0.0816824047721561 0.25256357729817147 -0.1445826438408026 -0.571717698032383 0.25102708604898705 0.5809533576980381 -0.6637521354628246 0.09229746128384105 1.858486181801567 0.7761412252902181 -1.1035686417768156 -0.8330150556591266 -0.5032124540721332 0.13653971893166805 0.6888751557826974 -0.8628588784934365 -0.9606790693677196 0.6562280591716376 0.4842896490257015 -0.5534759782133759 -0.5051019577853624 0.3237571667238618 -0.3131914753928735 -0.6919396536406341 -0.03748154188522577 -0.2684676501229376 -0.3778894297918911 -0.43176021166841766 0.6058789172951242 0.9352608864049313 0.4185267436972792 -0.510731645267314 -0.6848377524885302 -0.35865140749788554 -0.5409562484798103 0.22008900170923384 -0.10191570109989545 0.13319728482199641 -0.14839687538057025 0.13586943233752086 0.0560356507383293 1.2646893924819573 0.14445203180020927 0.43405877789460734 0.032181984049183286 0.923977600181628 1.005219574982256 -0.2918412918518716 0.43066106506696794 0.36918418870840936 0.4217791891963058 0.39681043506611013 0.09131067189053951 0.13459879315521336 -0.014994159415987078 1.0278691940609717 1.8890972218192046 0.18792990047818603 -0.9015722359032343 0.7557536627728016 -1.0004458077426963 0.8901843057812668 -1.0495798462651862 0.22846591291901944 -0.005722247195757887 0.07412567547082072 -0.11236697834020648 -0.4396164744880429 0.09728334453420664 0.49756682575058186 0.4439269289379386 0.6038174067804053 -0.76569174782212 0.11041396837889372 0.13649446751602945 -0.15952872362767365 0.8816065914145849 -0.6575421499973708 1.0736132330653059 0.9414837273861915 0.18284091599105282 0.04567179100550199 -0.2570264981655315 -0.08038374056539059 0.6654881443173248 -1.131116469488097 -0.520344999987362 -0.6096926346142597 0.5025987317475344 -0.7346901572342831 -0.08933246511824615 0.35538970602747827 -0.8278545945041097 -0.837994254041273 1.52148603402487 -2.020240709435966 -0.23403723635920987 0.009858123741002377 0.5356389500319549 -0.5589105189653858 -0.3150976912766509 -0.22908014946425065 0.14052698571419023 -0.5500980628800785 0.315377941521231 0.8617548467959804 -0.3137211226440984 -0.9109009695033281 -0.8353478175573614 -0.2434958106689484 -0.6519263464724903 0.5888656705665795 0.04743299667098283 -0.09278134289879504 0.8797548829178268 0.6000941922925472 0.5087760642028399 -1.551152450741051 -0.1828748545527818 0.3347208648242171 -0.14094350442631856 0.33120256725831343 -0.6162636029635581 1.004673986891431 -0.11901610822560793 0.3955796479828026 -0.7018898228748105 -0.6371623007894381 -0.06682245694118814 -0.08059765634840958 0.22359881463470527 -0.6657560532667308 0.3171964827872086 -0.11910249729182715 -0.5385867198063692 0.5676671821120933 0.46483899650025745 -0.31418854919882017 0.34904036677068273 -0.5929133582733918 0.021983446249626653 -0.9625279496510004 1.1452950749813242 1.8467760924534904 -0.973560296205762 3.081753816803628 1.7394016822318688 -0.6744918904778319
-1.177684289945307 -0.6237892219166419 -0.6161021376850292 0.10881525643320615 -0.723629014324115 0.8228825952108151 -0.3560152554266191 0.40956259252545596 -0.03478316911745623 -0.6043398549427786 -0.18925478993719663 -0.015298063809651073 0.29724857891037193 0.8689886455402582 -0.1745809899751058 0.10232476361285604 -2.6253804345722203 2.142684355285884 -2.204229880098849 -0.6399138953926463 -0.06609586318780875 0.878651622551319 0.23699323366374023 -0.2379175452502225 -0.06060475816625047 1.722868717573852 0.0036424818485937265 0.35028375225948055 0.1498804019046322 0.23580538400322615 -0.20764460529829398 -0.6069695792561418 0.1376188109284598 0.1912697634846964 -1.5076064478293003 -1.4193445900674138 -0.020667555651680533 0.3142937073181168 -0.41834702358630527 -0.40673849281309954 -0.050692384148544954 0.034292602634282875 0.5492166887163896 -0.021953878563271866 -0.0970015516277297 -0.2683730335266023 0.09615977245272472 -1.1067519246008037 0.33924034996112545 1.014571448510801 -0.828904890145495 -0.1303526162843497 2.4816969055069196 0.15454926813521125 -1.1907663199402458 -1.0973799964676003 0.03698814718857501 -1.5104104929369986 1.4331508998228866 -1.2022666072703618 -1.5471600417522064 0.7679404346469807 0.42317015600656155 -0.23970883282269043 -0.5266902254790994 -0.18775326569100567 -0.2908699290775378 -1.1407637627698741 0.49213562743268147 -0.2554452697213407 -0.053251403124972806 -0.4505986845311594 1.083459015511134 0.3300633114475477 0.2528875362964935 -0.4810539156972231 -0.7091184794127657 -0.5656843473541097 -0.13280544870021646 -0.543986807776018 -0.406587569057532 -0.14294639378896024 0.3761073981908039 0.26952488774285843 0.18293064749138171 0.13335695032831227 0.699151598008041 0.46279805481082875 -0.04354780268396371 0.8811615334573663 0.36488556133305544 -0.3134971795587504 0.2533122825387379 0.28110487927097394 0.49488387960178004 0.6557824869937867 -0.013606277929524953 -0.4904119598733554 0.4112199256232208 1.4182878666681253 0.9235019460967901 0.0033151804161620324 -1.2618845760433106 0.5096247853563803 -1.6861693052702895 0.5900149536796742 -0.10754744546437606 -0.37970719972692024 0.2850054998769607 -0.28538216649008913 0.2881687280962908 0.8615504440946582 -1.6053891005974286 1.381649389509485 0.2596181701521077 1.240814642746889 -1.3322009050703703 -0.02681634886189575 -0.027705179224752283 0.6967375892499097 1.2122049494299962 -0.7163101120651986 1.6014002911530099 1.4559326736040925 0.20872523995698244 -0.37628223320577137 -0.6349015297797195 -0.07673225985573237 -0.006696438183569113 -0.49156381408961153 -0.021748961641317382 -0.9116440183169396 -0.6558398225942834 0.07120413094865156 0.10758626912211149 0.10850081051658088 -1.059909510325968 -0.6878423436428089 -0.33461082160891403 -0.561992243214503 0.4933895544444406 -0.4455942893380326 0.8171801455093991 -0.7661892562838288 0.15705377972461984 0.4028748960926352 -0.05632541406460622 -0.1001310983956469 0.20424766380160309 0.92032277703786 -0.2334980760262882 -1.041468015791329 -0.9061014912321557 1.2393925655883817 0.11743333711952034 0.9185114348607342 -0.5241047241401102 0.4895709520292988 0.914913690207147 0.7296726494150336 0.7996210535797131 -0.33074388245434 0.06013810294247707 0.3215326482687172 -0.25333722223940236 0.10057949878697517 -1.220488272484711 1.2946856817337316 -0.04456647375646518 0.519519418762273 -0.20268237619701224 -0.5684683378571499 0.016974937291441734 -0.11758271821319104 0.39078865435206245 -1.3060697552009572 0.6121580654356167 0.0973054560213937 -0.05849131136767346 0.42296703885682 -0.14159013687138194 -0.35571135103295515 -0.4301458159934463 -0.8728365585314388 0.5975374873089644 -1.1252561540525783 0.9789225889589399 1.559478196997927 -0.4721506996703223 2.4406325313664414 0.722423166941472 0.3064605844269432
-1.3370759737744844 -0.8712792413466479 -0.762050808635423 -0.13140959679395434 -0.09136826460135232 0.1313687162536899 0.08289776523649595 0.41578826172019356 -0.5300095196603195 -0.12439099938427609 -0.6423117062008615 -0.22283236878232593 -0.2915335308034656 0.4419242966856131 -0.16122770859665136 -0.0001097861049869077 -1.4883324300910368 1.0711909967770583 0.19007702872817586 -0.07683458976155154 -0.4125322166767411 0.6764562132930543 0.5797343976892726 0.16009308077157589 -0.17696517393656622 2.3466031749931586 -0.0965400386102789 1.3171717786513895 0.05081759687249958 -0.15922327657211288 -0.01701736049360295 -0.39529039887715794 0.29739307490803624 0.11230321498180659 -0.8936059298683062 -0.979058857426488 0.13707913637490587 0.176137021608316 -0.29354207659306225 -0.7998560524086548 -0.02465867908894463 0.018622243086877606 0.5808438287033674 -0.07538397335795405 -0.4018536539169724 -0.6136891573681625 0.2515590472930571 -1.4713006714197308 0.24345415879773558 0.5357615916527482 -0.7142851112153699 -0.010124747138827724 2.453653111995826 -0.5234735183140147 -0.8931950675831327 -0.6217313109463487 0.2783831094644367 -1.356709945955328 0.1717998276855428 -1.146954207851302 -1.5624897301307414 0.6653014822278156 -0.31285980308506767 0.06110560906206895 -0.5417779730501573 -0.8481742798980683 -0.09785901453201858 -1.3291343503299045 0.7757308772256769 -0.14408590671004218 0.2582266891212198 -0.29459442911697653 1.0149121196796715 -0.17916526691167856 0.3140090861981624 0.2855474884233598 -0.5718531951689828 -0.695380561001383 0.26715561617973344 -0.9924597042134264 -0.31894586137814745 -0.35754789002106163 0.7408875442942466 0.25619191807937813 0.5020837397843289 -0.3021452448810409 1.0262393717670326 0.30126875581335855 0.02213385578456188 0.550441048041794 -0.4632994199272795 -0.46228511973015224 0.21588550515084756 0.2131033144200201 0.7499360276497601 1.0114848391656772 -0.09928674811748062 -1.0976895572882193 0.7288025881052544 1.1272914393150522 0.09313127003904606 0.13356803789785385 -0.9167628276007437 -0.12918559255944204 -1.5629946947916178 0.6714479614451856 0.6622215577509112 -0.6824247721716634 0.30829378098094 -0.5206738440816904 0.3159613248285268 1.392725959038621 -2.177343083010334 1.7295582137788856 0.06884000159184918 1.0545816703551516 -1.026440174923929 -0.2683619777830088 0.02957077167858133 1.7272506486916315 0.9649668981097962 -0.3278683606787579 1.2210204908390971 0.9730355340505435 -0.3470642168809184 -0.9231887857317456 -1.1078896377496725 -0.20762403647300373 -2.31238667701245 0.07989574518537854 0.5182966020987654 -0.600577559686869 -1.3529833890333602 0.457373798471464 0.07924268498241191 -0.07052330283154305 -0.5240921257346199 -0.5665050434831922 -1.1113323448826344 -0.18127305728330073 0.8512526617130759 -0.6056097227941377 0.9848492388560199 -0.6857985737399027 0.5459141067057178 0.5404890790354047 -0.23076139382141547 0.5908775587902856 0.05099114633588637 0.7185852812526206 -0.04863987249489042 -0.9445952764319796 -0.5266496020491511 1.6378191961016761 0.4215881562314223 1.0574651625505336 -0.7596020899846143 0.5772928781273154 0.4160553993386512 0.6441204772748261 1.200227465353146 2.7024286830064748 -0.23117739831291154 -0.2071895200387464 0.10842701985585199 -0.07762263288048568 -1.0186214502104587 0.8433766013991087 0.23681814153845665 0.8660233922643473 0.6061861641228979 -0.45029298036528254 -0.013003097127887282 -0.19875115946340607 0.420571799151766 -1.5988163324759175 0.9167492007539889 0.25282197316588073 0.19041769989704624 0.13877863556451583 -0.7471738915235906 -0.4243670045281401 -1.370310053237266 -0.8305984757978342 0.7874965024020374 -0.784948539169203 0.8480151286123846 1.0846910881460223 0.11511805872278238 0.3063014331412596 -0.10048282530811081 1.2997160450687872