An instance of this daemon is already running
An instance of this daemon is already running

     Program PWSCF v.7.1 starts on 10May2023 at 14: 6:51 

     This program is part of the open-source Quantum ESPRESSO suite
     for quantum simulation of materials; please cite
         "P. Giannozzi et al., J. Phys.:Condens. Matter 21 395502 (2009);
         "P. Giannozzi et al., J. Phys.:Condens. Matter 29 465901 (2017);
         "P. Giannozzi et al., J. Chem. Phys. 152 154105 (2020);
          URL http://www.quantum-espresso.org", 
     in publications or presentations arising from this work. More details at
     http://www.quantum-espresso.org/quote

     Parallel version (MPI & OpenMP), running on       4 processor cores
     Number of MPI processes:                 4
     Threads/MPI process:                     1

     MPI processes distributed on     1 nodes
     304184 MiB available memory on the printing compute node when the environment starts
 
     Reading input from pw-si-57.in
Warning: card &CELL ignored
Warning: card / ignored

     Current dimensions of program PWSCF are:
     Max number of different atomic species (ntypx) = 10
     Max number of k-points (npk) =  40000
     Max angular momentum in pseudopotentials (lmaxx) =  4

     IMPORTANT: XC functional enforced from input :
     Exchange-correlation= PBE
                           (   1   4   3   4   0   0   0)
     Any further DFT definition will be discarded
     Please, verify this is what you really want


     gamma-point specific algorithms are used
 
     K-points division:     npool     =       2
     R & G space division:  proc/nbgrp/npool/nimage =       2
     Subspace diagonalization in iterative solution of the eigenvalue problem:
     a serial algorithm will be used

     Message from routine divide_et_impera:
     suboptimal parallelization: some nodes have no k-points
 
     Parallelization info
     --------------------
     sticks:   dense  smooth     PW     G-vecs:    dense   smooth      PW
     Min        2287    2287    600               115966   115966   15716
     Max        2290    2290    601               115967   115967   15723
     Sum        4577    4577   1201               231933   231933   31439
 
     Using Slab Decomposition
 


     bravais-lattice index     =            0
     lattice parameter (alat)  =      21.8685  a.u.
     unit-cell volume          =   10458.2601 (a.u.)^3
     number of atoms/cell      =           64
     number of atomic types    =            1
     number of electrons       =       256.00
     number of Kohn-Sham states=          154
     kinetic-energy cutoff     =      30.0000  Ry
     charge density cutoff     =     120.0000  Ry
     scf convergence threshold =      1.0E-06
     mixing beta               =       0.5000
     number of iterations used =            8  plain     mixing
     Exchange-correlation= PBE
                           (   1   4   3   4   0   0   0)

     GPU acceleration is ACTIVE.
     GPU-aware MPI enabled

     Message from routine print_cuda_info:
     High GPU oversubscription detected. Are you sure this is what you want?

     celldm(1)=  21.868541  celldm(2)=   0.000000  celldm(3)=   0.000000
     celldm(4)=   0.000000  celldm(5)=   0.000000  celldm(6)=   0.000000

     crystal axes: (cart. coord. in units of alat)
               a(1) = (   1.000000   0.000000   0.000000 )  
               a(2) = (   0.000000   1.000000   0.000000 )  
               a(3) = (   0.000000   0.000000   1.000000 )  

     reciprocal axes: (cart. coord. in units 2 pi/alat)
               b(1) = (  1.000000  0.000000  0.000000 )  
               b(2) = (  0.000000  1.000000  0.000000 )  
               b(3) = (  0.000000  0.000000  1.000000 )  


     PseudoPot. # 1 for Si read from file:
     /home/ppiaggi/pseudos/Si_ONCV_PBE_sr.upf
     MD5 check sum: 8553c464762ac42b85b1eed164b4d029
     Pseudo is Norm-conserving, Zval =  4.0
     Generated using ONCVPSP code by D. R. Hamann
     Using radial grid of 1510 points,  4 beta functions with: 
                l(1) =   0
                l(2) =   0
                l(3) =   1
                l(4) =   1

     atomic species   valence    mass     pseudopotential
        Si             4.00    28.08500     Si( 1.00)

     No symmetry found



   Cartesian axes

     site n.     atom                  positions (alat units)
         1           Si  tau(   1) = (   0.2332900   0.3059040   0.3659420  )
         2           Si  tau(   2) = (   0.2655310   0.4575310   0.9184540  )
         3           Si  tau(   3) = (   0.4517480   0.1660630   0.6039570  )
         4           Si  tau(   4) = (   0.6981340   0.2680090   0.1865270  )
         5           Si  tau(   5) = (   0.3456130   0.1273210   0.0909308  )
         6           Si  tau(   6) = (   0.8773540   0.6835270   0.4509180  )
         7           Si  tau(   7) = (   0.3200710   0.3942880   0.0984952  )
         8           Si  tau(   8) = (   0.9998820   0.8338430   0.2489720  )
         9           Si  tau(   9) = (   0.7796570   0.4161110   0.0848677  )
        10           Si  tau(  10) = (   0.8550330   0.9198230   0.6141070  )
        11           Si  tau(  11) = (   0.7700430   0.9936750   0.9686940  )
        12           Si  tau(  12) = (   0.1928270   0.9361760   0.7683070  )
        13           Si  tau(  13) = (   0.0615038   0.4563370   0.6766150  )
        14           Si  tau(  14) = (   0.6083990   0.6575080   0.8781810  )
        15           Si  tau(  15) = (   0.8533820   0.6926980   0.2369860  )
        16           Si  tau(  16) = (   0.8431710   0.0703404   0.1496460  )
        17           Si  tau(  17) = (   0.6159680   0.2000690   0.7102340  )
        18           Si  tau(  18) = (   0.4072420   0.2883930   0.2511530  )
        19           Si  tau(  19) = (   0.1418430   0.1366610   0.6993500  )
        20           Si  tau(  20) = (   0.3710210   0.8517840   0.4182760  )
        21           Si  tau(  21) = (   0.1734940   0.7552130   0.2037430  )
        22           Si  tau(  22) = (   0.2259950   0.5967440   0.7412690  )
        23           Si  tau(  23) = (   0.1592800   0.3340000   0.5582840  )
        24           Si  tau(  24) = (   0.6394920   0.8570240   0.8499760  )
        25           Si  tau(  25) = (   0.9431210   0.3611250   0.5312280  )
        26           Si  tau(  26) = (   0.9845930   0.3624170   0.0342798  )
        27           Si  tau(  27) = (   0.4419620   0.4973290   0.2614910  )
        28           Si  tau(  28) = (   0.5883990   0.1302540   0.5129060  )
        29           Si  tau(  29) = (   0.8214300   0.5172710   0.4198670  )
        30           Si  tau(  30) = (   0.3109240   0.5810770   0.1332120  )
        31           Si  tau(  31) = (   0.8673400   0.0034591   0.7872170  )
        32           Si  tau(  32) = (   0.2535850   0.9531380   0.5415180  )
        33           Si  tau(  33) = (   0.6765900   0.0154224   0.7464450  )
        34           Si  tau(  34) = (   0.0562469   0.8665610   0.6038840  )
        35           Si  tau(  35) = (   0.4050790   0.6344360   0.7751690  )
        36           Si  tau(  36) = (   0.7202020   0.3371960   0.4440350  )
        37           Si  tau(  37) = (   0.6640230   0.4740260   0.9093050  )
        38           Si  tau(  38) = (   0.1558950   0.0846483   0.9413850  )
        39           Si  tau(  39) = (   0.7382710   0.8013780   0.3719390  )
        40           Si  tau(  40) = (   0.5777280   0.2175390   0.3475460  )
        41           Si  tau(  41) = (   0.1656550   0.2861650   0.9818940  )
        42           Si  tau(  42) = (   0.5524500   0.7711320   0.4755170  )
        43           Si  tau(  43) = (   0.4565480   0.6486990   0.3461330  )
        44           Si  tau(  44) = (   0.0012006   0.1591580   0.0528694  )
        45           Si  tau(  45) = (   0.0198567   0.6714940   0.6446090  )
        46           Si  tau(  46) = (   0.7760170   0.6069410   0.8134700  )
        47           Si  tau(  47) = (   0.3663600   0.7608680   0.2145990  )
        48           Si  tau(  48) = (   0.3289110   0.4750970   0.5997670  )
        49           Si  tau(  49) = (   0.2546790   0.9330150   0.9881120  )
        50           Si  tau(  50) = (   0.9152860   0.8125630   0.8177590  )
        51           Si  tau(  51) = (   0.3215670   0.8040070   0.8353820  )
        52           Si  tau(  52) = (   0.5648520   0.0631002   0.9038160  )
        53           Si  tau(  53) = (   0.8811950   0.1966560   0.4214130  )
        54           Si  tau(  54) = (   0.7996690   0.8806670   0.1883830  )
        55           Si  tau(  55) = (   0.3924990   0.9438420   0.1275370  )
        56           Si  tau(  56) = (   0.8575290   0.5527940   0.6313570  )
        57           Si  tau(  57) = (   0.5657400   0.8702440   0.6526890  )
        58           Si  tau(  58) = (   0.4719260   0.3768510   0.6866410  )
        59           Si  tau(  59) = (   0.8119670   0.0037485   0.4346440  )
        60           Si  tau(  60) = (   0.2842970   0.9729490   0.2856420  )
        61           Si  tau(  61) = (   0.2387340   0.1491960   0.5100230  )
        62           Si  tau(  62) = (   0.9206800   0.4986080   0.2061340  )
        63           Si  tau(  63) = (   0.4746580   0.4853450   0.8531790  )
        64           Si  tau(  64) = (   0.9145900   0.2994610   0.2110130  )

     number of k points=     1  Fermi-Dirac smearing, width (Ry)=  0.0100
                       cart. coord. in units 2pi/alat
        k(    1) = (   0.0000000   0.0000000   0.0000000), wk =   2.0000000

     Dense  grid:   115967 G-vectors     FFT dimensions: (  80,  80,  80)

     Estimated max dynamical RAM per process >     186.63 MB

     Estimated total dynamical RAM >     718.22 MB

     Initial potential from superposition of free atoms

     starting charge     255.9608, renormalised to     256.0000
     Starting wfcs are  256 randomized atomic wfcs

     total cpu time spent up to now is        4.6 secs

     Self-consistent Calculation

     iteration #  1     ecut=    30.00 Ry     beta= 0.50
     Davidson diagonalization with overlap
     ethr =  1.00E-02,  avg # of iterations =  3.0

     Threshold (ethr) on eigenvalues was too large:
     Diagonalizing with lowered threshold

     Davidson diagonalization with overlap
     ethr =  8.38E-04,  avg # of iterations =  4.0

     total cpu time spent up to now is        4.8 secs

     total energy              =    -499.36087640 Ry
     estimated scf accuracy    <       2.76101231 Ry

     iteration #  2     ecut=    30.00 Ry     beta= 0.50
     Davidson diagonalization with overlap
     ethr =  1.08E-03,  avg # of iterations =  3.0

     total cpu time spent up to now is        4.9 secs

     total energy              =    -498.77454507 Ry
     estimated scf accuracy    <       6.62622608 Ry

     iteration #  3     ecut=    30.00 Ry     beta= 0.50
     Davidson diagonalization with overlap
     ethr =  1.08E-03,  avg # of iterations =  4.0

     total cpu time spent up to now is        5.0 secs

     total energy              =    -499.45514111 Ry
     estimated scf accuracy    <       7.02346340 Ry

     iteration #  4     ecut=    30.00 Ry     beta= 0.50
     Davidson diagonalization with overlap
     ethr =  1.08E-03,  avg # of iterations =  2.0

     total cpu time spent up to now is        5.1 secs

     total energy              =    -499.89536160 Ry
     estimated scf accuracy    <       1.04266123 Ry

     iteration #  5     ecut=    30.00 Ry     beta= 0.50
     Davidson diagonalization with overlap
     ethr =  4.07E-04,  avg # of iterations =  3.0

     total cpu time spent up to now is        5.2 secs

     total energy              =    -499.96643582 Ry
     estimated scf accuracy    <       0.98910114 Ry

     iteration #  6     ecut=    30.00 Ry     beta= 0.50
     Davidson diagonalization with overlap
     ethr =  3.86E-04,  avg # of iterations =  2.0

     total cpu time spent up to now is        5.3 secs

     total energy              =    -500.04442505 Ry
     estimated scf accuracy    <       0.14453902 Ry

     iteration #  7     ecut=    30.00 Ry     beta= 0.50
     Davidson diagonalization with overlap
     ethr =  5.65E-05,  avg # of iterations =  2.0

     total cpu time spent up to now is        5.4 secs

     total energy              =    -500.05839789 Ry
     estimated scf accuracy    <       0.05925617 Ry

     iteration #  8     ecut=    30.00 Ry     beta= 0.50
     Davidson diagonalization with overlap
     ethr =  2.31E-05,  avg # of iterations =  2.0

     total cpu time spent up to now is        5.5 secs

     total energy              =    -500.06379401 Ry
     estimated scf accuracy    <       0.04711759 Ry

     iteration #  9     ecut=    30.00 Ry     beta= 0.50
     Davidson diagonalization with overlap
     ethr =  1.84E-05,  avg # of iterations =  2.0

     total cpu time spent up to now is        5.6 secs

     total energy              =    -500.06707364 Ry
     estimated scf accuracy    <       0.00826799 Ry

     iteration # 10     ecut=    30.00 Ry     beta= 0.50
     Davidson diagonalization with overlap
     ethr =  3.23E-06,  avg # of iterations = 20.0

     total cpu time spent up to now is        5.8 secs

     total energy              =    -500.06773860 Ry
     estimated scf accuracy    <       0.00881483 Ry

     iteration # 11     ecut=    30.00 Ry     beta= 0.50
     Davidson diagonalization with overlap
     ethr =  3.23E-06,  avg # of iterations =  2.0

     total cpu time spent up to now is        5.9 secs

     total energy              =    -500.06841124 Ry
     estimated scf accuracy    <       0.00155845 Ry

     iteration # 12     ecut=    30.00 Ry     beta= 0.50
     Davidson diagonalization with overlap
     ethr =  6.09E-07,  avg # of iterations =  3.0

     total cpu time spent up to now is        6.0 secs

     total energy              =    -500.06854640 Ry
     estimated scf accuracy    <       0.00108909 Ry

     iteration # 13     ecut=    30.00 Ry     beta= 0.50
     Davidson diagonalization with overlap
     ethr =  4.25E-07,  avg # of iterations =  2.0

     total cpu time spent up to now is        6.1 secs

     total energy              =    -500.06864621 Ry
     estimated scf accuracy    <       0.00062141 Ry

     iteration # 14     ecut=    30.00 Ry     beta= 0.50
     Davidson diagonalization with overlap
     ethr =  2.43E-07,  avg # of iterations =  1.0

     total cpu time spent up to now is        6.2 secs

     total energy              =    -500.06868909 Ry
     estimated scf accuracy    <       0.00010135 Ry

     iteration # 15     ecut=    30.00 Ry     beta= 0.50
     Davidson diagonalization with overlap
     ethr =  3.96E-08,  avg # of iterations =  3.0

     total cpu time spent up to now is        6.3 secs

     total energy              =    -500.06870120 Ry
     estimated scf accuracy    <       0.00006179 Ry

     iteration # 16     ecut=    30.00 Ry     beta= 0.50
     Davidson diagonalization with overlap
     ethr =  2.41E-08,  avg # of iterations =  2.0

     total cpu time spent up to now is        6.4 secs

     total energy              =    -500.06870512 Ry
     estimated scf accuracy    <       0.00004202 Ry

     iteration # 17     ecut=    30.00 Ry     beta= 0.50
     Davidson diagonalization with overlap
     ethr =  1.64E-08,  avg # of iterations =  1.0

     total cpu time spent up to now is        6.5 secs

     total energy              =    -500.06870822 Ry
     estimated scf accuracy    <       0.00000897 Ry

     iteration # 18     ecut=    30.00 Ry     beta= 0.50
     Davidson diagonalization with overlap
     ethr =  3.50E-09,  avg # of iterations =  3.0

     total cpu time spent up to now is        6.6 secs

     total energy              =    -500.06870899 Ry
     estimated scf accuracy    <       0.00001115 Ry

     iteration # 19     ecut=    30.00 Ry     beta= 0.50
     Davidson diagonalization with overlap
     ethr =  3.50E-09,  avg # of iterations =  2.0

     total cpu time spent up to now is        6.7 secs

     total energy              =    -500.06870963 Ry
     estimated scf accuracy    <       0.00000239 Ry

     iteration # 20     ecut=    30.00 Ry     beta= 0.50
     Davidson diagonalization with overlap
     ethr =  9.35E-10,  avg # of iterations =  2.0

     total cpu time spent up to now is        6.8 secs

     total energy              =    -500.06870993 Ry
     estimated scf accuracy    <       0.00000113 Ry

     iteration # 21     ecut=    30.00 Ry     beta= 0.50
     Davidson diagonalization with overlap
     ethr =  4.43E-10,  avg # of iterations =  2.0

     total cpu time spent up to now is        6.9 secs

     End of self-consistent calculation

          k = 0.0000 0.0000 0.0000 ( 14496 PWs)   bands (ev):

    -8.1060  -7.8125  -7.7089  -7.6077  -7.5162  -7.1465  -7.0540  -6.8943
    -6.8329  -6.5398  -6.3519  -6.2092  -6.0858  -5.9038  -5.8025  -5.6548
    -5.4177  -5.3658  -5.2123  -4.9374  -4.7382  -4.5776  -4.4469  -4.2506
    -4.1773  -4.0528  -3.9380  -3.9102  -3.7703  -3.6213  -3.4741  -3.3967
    -3.3785  -3.2221  -3.1821  -2.8994  -2.8073  -2.7630  -2.5724  -2.5095
    -2.3613  -2.2347  -2.1371  -2.0634  -1.9719  -1.8352  -1.6237  -1.5776
    -1.3950  -1.3273  -1.2151  -1.0861  -1.0574  -0.9842  -0.9341  -0.6634
    -0.4492  -0.4090  -0.3054  -0.2073  -0.1194  -0.0617   0.0951   0.2024
     0.2459   0.3106   0.4001   0.4706   0.5997   0.6597   0.7781   0.8106
     0.8730   0.9057   0.9731   1.0811   1.1215   1.1988   1.2298   1.2968
     1.3573   1.4803   1.5316   1.5788   1.6411   1.8483   1.8838   1.9627
     1.9922   2.0725   2.1393   2.2172   2.2784   2.3141   2.3514   2.4284
     2.4940   2.5289   2.5979   2.6481   2.7020   2.8533   2.9483   3.0145
     3.0966   3.1389   3.1730   3.2419   3.2842   3.3367   3.3679   3.5065
     3.5457   3.6482   3.6705   3.7356   3.7792   3.8630   3.8923   3.9958
     4.0427   4.1056   4.1600   4.1939   4.2249   4.3150   4.3256   4.3741
     4.4582   4.5107   4.6515   4.6820   4.7127   4.8265   4.8623   4.8712
     4.9274   4.9702   5.1051   5.1289   5.1785   5.2336   5.3769   5.4602
     5.5241   5.5587   5.5977   5.6442   5.7878   5.7944   5.9687   6.0069
     6.0217   6.1281

     the Fermi energy is     4.4477 ev

!    total energy              =    -500.06870937 Ry
     estimated scf accuracy    <       0.00000088 Ry
     smearing contrib. (-TS)   =      -0.15106676 Ry
     internal energy E=F+TS    =    -499.91764262 Ry

     The total energy is F=E-TS. E is the sum of the following terms:
     one-electron contribution =      -6.86242351 Ry
     hartree contribution      =      96.35203021 Ry
     xc contribution           =    -150.91790544 Ry
     ewald contribution        =    -438.48934388 Ry

     convergence has been achieved in  21 iterations

     Forces acting on atoms (cartesian axes, Ry/au):

     atom    1 type  1   force =     0.00426660   -0.02413588   -0.00620876
     atom    2 type  1   force =     0.00983041    0.03808528   -0.04868428
     atom    3 type  1   force =    -0.28578157    0.06546904    0.11104343
     atom    4 type  1   force =     0.03600266   -0.05878850    0.01515139
     atom    5 type  1   force =    -0.00959876    0.06154112    0.00769403
     atom    6 type  1   force =     0.07737212    0.14922820    0.05844485
     atom    7 type  1   force =     0.00127505   -0.09324695    0.02464500
     atom    8 type  1   force =    -0.02406493    0.02139652    0.03232803
     atom    9 type  1   force =    -0.02896681    0.02015407   -0.04859525
     atom   10 type  1   force =    -0.00564136   -0.04330150   -0.03840792
     atom   11 type  1   force =    -0.03233642    0.00314461    0.00110955
     atom   12 type  1   force =    -0.02447651    0.01279000   -0.06015299
     atom   13 type  1   force =    -0.01736548    0.02907216    0.03964189
     atom   14 type  1   force =    -0.09532063    0.07923052    0.00609313
     atom   15 type  1   force =     0.02268942   -0.04729365   -0.02935924
     atom   16 type  1   force =    -0.02458991    0.05045369    0.01195048
     atom   17 type  1   force =     0.01515822    0.06025354    0.03386802
     atom   18 type  1   force =    -0.01164095   -0.01063356    0.01643263
     atom   19 type  1   force =    -0.01394650   -0.00448135    0.01644652
     atom   20 type  1   force =     0.02567885   -0.01588691    0.01175413
     atom   21 type  1   force =    -0.02243570   -0.01587895   -0.03220419
     atom   22 type  1   force =    -0.12328151   -0.03657208   -0.01480977
     atom   23 type  1   force =     0.02576450    0.01704187   -0.01519523
     atom   24 type  1   force =    -0.02344521   -0.03171177    0.05780983
     atom   25 type  1   force =    -0.02134304    0.01159140   -0.01408695
     atom   26 type  1   force =    -0.02287723    0.02291926   -0.02412671
     atom   27 type  1   force =    -0.00372547   -0.16660822   -0.08023878
     atom   28 type  1   force =     0.24833994   -0.12019214   -0.09594057
     atom   29 type  1   force =    -0.02116866   -0.17066612   -0.04225482
     atom   30 type  1   force =    -0.04371973    0.05634380   -0.01215609
     atom   31 type  1   force =     0.05744632    0.06323735    0.05602802
     atom   32 type  1   force =    -0.03985410   -0.02760711    0.04064275
     atom   33 type  1   force =     0.01685803    0.02287248   -0.08662278
     atom   34 type  1   force =     0.03719398    0.01785823   -0.01004553
     atom   35 type  1   force =     0.09836814    0.11597855   -0.04133334
     atom   36 type  1   force =     0.00498815   -0.01267512    0.00179736
     atom   37 type  1   force =     0.05650807   -0.05934000    0.06420364
     atom   38 type  1   force =    -0.02769025    0.04927975   -0.04585782
     atom   39 type  1   force =    -0.03436089    0.05937599    0.03408622
     atom   40 type  1   force =    -0.00554607    0.05799729   -0.08618137
     atom   41 type  1   force =     0.04367168    0.01030398    0.01353100
     atom   42 type  1   force =     0.02074585    0.00510570   -0.02335033
     atom   43 type  1   force =     0.03980694    0.13025825    0.11662881
     atom   44 type  1   force =    -0.01839998   -0.01508653    0.00679742
     atom   45 type  1   force =     0.01862119    0.02062737    0.00493704
     atom   46 type  1   force =     0.09063894    0.00700013   -0.04762403
     atom   47 type  1   force =     0.03870601    0.03788443   -0.01560885
     atom   48 type  1   force =    -0.04736388    0.00143456   -0.02099084
     atom   49 type  1   force =     0.01797891   -0.08987136    0.01163991
     atom   50 type  1   force =     0.00597717   -0.07288079   -0.02810810
     atom   51 type  1   force =     0.00010390    0.02240412    0.02905932
     atom   52 type  1   force =    -0.00216473   -0.00810061    0.04551916
     atom   53 type  1   force =     0.00186017    0.04543448   -0.03250080
     atom   54 type  1   force =     0.00321321    0.00611426   -0.02727415
     atom   55 type  1   force =     0.07438883   -0.04157898   -0.01791274
     atom   56 type  1   force =    -0.01417802   -0.02194736    0.00695906
     atom   57 type  1   force =    -0.01951871   -0.00146904    0.01154081
     atom   58 type  1   force =     0.01905039   -0.05814869   -0.01901463
     atom   59 type  1   force =    -0.03097449   -0.01345801    0.00028150
     atom   60 type  1   force =    -0.05099887    0.03750155    0.02604444
     atom   61 type  1   force =     0.05172451    0.00118494   -0.00965578
     atom   62 type  1   force =    -0.00396280    0.03341843    0.01366897
     atom   63 type  1   force =     0.00792236   -0.10838609    0.06486357
     atom   64 type  1   force =    -0.02141130   -0.07403963    0.08186074

     Total force =     0.769195     Total SCF correction =     0.001658


     Computing stress (Cartesian axis) and pressure

          total   stress  (Ry/bohr**3)                   (kbar)     P=       29.38
   0.00009866  -0.00003051   0.00000265           14.51       -4.49        0.39
  -0.00003051   0.00035554  -0.00000782           -4.49       52.30       -1.15
   0.00000265  -0.00000782   0.00014505            0.39       -1.15       21.34

 
     init_run     :      0.94s CPU      4.49s WALL (       1 calls)
     electrons    :      2.17s CPU      2.34s WALL (       1 calls)
     forces       :      0.03s CPU      0.04s WALL (       1 calls)
     stress       :      0.17s CPU      0.17s WALL (       1 calls)

     Called by init_run:
     wfcinit      :      0.43s CPU      3.81s WALL (       1 calls)
                                        3.81s GPU  (       1 calls)
     potinit      :      0.04s CPU      0.14s WALL (       1 calls)
     hinit0       :      0.45s CPU      0.47s WALL (       1 calls)

     Called by electrons:
     c_bands      :      1.30s CPU      1.38s WALL (      22 calls)
     sum_band     :      0.42s CPU      0.47s WALL (      22 calls)
     v_of_rho     :      0.18s CPU      0.28s WALL (      22 calls)
     mix_rho      :      0.21s CPU      0.24s WALL (      22 calls)

     Called by c_bands:
     init_us_2    :      0.06s CPU      0.06s WALL (      45 calls)
     init_us_2:gp :      0.05s CPU      0.06s WALL (      45 calls)
     regterg      :      1.12s CPU      1.19s WALL (      22 calls)

     Called by *egterg:
     rdiaghg      :      0.40s CPU      1.07s WALL (      91 calls)
                                        1.05s GPU  (      91 calls)
     h_psi        :      0.94s CPU      3.70s WALL (      93 calls)
                                        3.70s GPU  (      93 calls)
     g_psi        :      0.00s CPU      0.00s WALL (      70 calls)
                                        0.00s GPU  (      70 calls)

     Called by h_psi:
     h_psi:calbec :      0.40s CPU      3.07s WALL (      93 calls)
                                        3.07s GPU  (      93 calls)
     vloc_psi     :      0.49s CPU      0.57s WALL (      93 calls)
                                        0.57s GPU  (      93 calls)
     add_vuspsi   :      0.03s CPU      0.06s WALL (      93 calls)
                                        0.06s GPU  (      93 calls)

     General routines
     calbec       :      0.41s CPU      3.07s WALL (      98 calls)
     fft          :      0.60s CPU      0.74s WALL (     183 calls)
                                        0.12s GPU  (     116 calls)
     ffts         :      0.05s CPU      0.06s WALL (      22 calls)
     fftw         :      0.58s CPU      0.76s WALL (    2286 calls)
                                        0.66s GPU  (    2286 calls)
 
     Parallel routines
 
     PWSCF        :      3.35s CPU      7.12s WALL

 
   This run was terminated on:  14: 6:58  10May2023            

=------------------------------------------------------------------------------=
   JOB DONE.
=------------------------------------------------------------------------------=
