An instance of this daemon is already running
An instance of this daemon is already running

     Program PWSCF v.7.1 starts on 10May2023 at 14:12:59 

     This program is part of the open-source Quantum ESPRESSO suite
     for quantum simulation of materials; please cite
         "P. Giannozzi et al., J. Phys.:Condens. Matter 21 395502 (2009);
         "P. Giannozzi et al., J. Phys.:Condens. Matter 29 465901 (2017);
         "P. Giannozzi et al., J. Chem. Phys. 152 154105 (2020);
          URL http://www.quantum-espresso.org", 
     in publications or presentations arising from this work. More details at
     http://www.quantum-espresso.org/quote

     Parallel version (MPI & OpenMP), running on       4 processor cores
     Number of MPI processes:                 4
     Threads/MPI process:                     1

     MPI processes distributed on     1 nodes
     247661 MiB available memory on the printing compute node when the environment starts
 
     Reading input from pw-si-91.in
Warning: card &CELL ignored
Warning: card / ignored

     Current dimensions of program PWSCF are:
     Max number of different atomic species (ntypx) = 10
     Max number of k-points (npk) =  40000
     Max angular momentum in pseudopotentials (lmaxx) =  4

     IMPORTANT: XC functional enforced from input :
     Exchange-correlation= PBE
                           (   1   4   3   4   0   0   0)
     Any further DFT definition will be discarded
     Please, verify this is what you really want


     gamma-point specific algorithms are used
 
     K-points division:     npool     =       2
     R & G space division:  proc/nbgrp/npool/nimage =       2
     Subspace diagonalization in iterative solution of the eigenvalue problem:
     a serial algorithm will be used

     Message from routine divide_et_impera:
     suboptimal parallelization: some nodes have no k-points
 
     Parallelization info
     --------------------
     sticks:   dense  smooth     PW     G-vecs:    dense   smooth      PW
     Min        2268    2268    599               115192   115192   15549
     Max        2269    2269    602               115197   115197   15554
     Sum        4537    4537   1201               230389   230389   31103
 
     Using Slab Decomposition
 


     bravais-lattice index     =            0
     lattice parameter (alat)  =      21.8171  a.u.
     unit-cell volume          =   10384.6167 (a.u.)^3
     number of atoms/cell      =           64
     number of atomic types    =            1
     number of electrons       =       256.00
     number of Kohn-Sham states=          154
     kinetic-energy cutoff     =      30.0000  Ry
     charge density cutoff     =     120.0000  Ry
     scf convergence threshold =      1.0E-06
     mixing beta               =       0.5000
     number of iterations used =            8  plain     mixing
     Exchange-correlation= PBE
                           (   1   4   3   4   0   0   0)

     GPU acceleration is ACTIVE.
     GPU-aware MPI enabled

     Message from routine print_cuda_info:
     High GPU oversubscription detected. Are you sure this is what you want?

     celldm(1)=  21.817090  celldm(2)=   0.000000  celldm(3)=   0.000000
     celldm(4)=   0.000000  celldm(5)=   0.000000  celldm(6)=   0.000000

     crystal axes: (cart. coord. in units of alat)
               a(1) = (   1.000000   0.000000   0.000000 )  
               a(2) = (   0.000000   1.000000   0.000000 )  
               a(3) = (   0.000000   0.000000   1.000000 )  

     reciprocal axes: (cart. coord. in units 2 pi/alat)
               b(1) = (  1.000000  0.000000  0.000000 )  
               b(2) = (  0.000000  1.000000  0.000000 )  
               b(3) = (  0.000000  0.000000  1.000000 )  


     PseudoPot. # 1 for Si read from file:
     /home/ppiaggi/pseudos/Si_ONCV_PBE_sr.upf
     MD5 check sum: 8553c464762ac42b85b1eed164b4d029
     Pseudo is Norm-conserving, Zval =  4.0
     Generated using ONCVPSP code by D. R. Hamann
     Using radial grid of 1510 points,  4 beta functions with: 
                l(1) =   0
                l(2) =   0
                l(3) =   1
                l(4) =   1

     atomic species   valence    mass     pseudopotential
        Si             4.00    28.08500     Si( 1.00)

     No symmetry found



   Cartesian axes

     site n.     atom                  positions (alat units)
         1           Si  tau(   1) = (   0.1361550   0.2319980   0.3232260  )
         2           Si  tau(   2) = (   0.3544710   0.3879920   0.0180238  )
         3           Si  tau(   3) = (   0.6952800   0.3176600   0.6917270  )
         4           Si  tau(   4) = (   0.6822020   0.2359920   0.2237450  )
         5           Si  tau(   5) = (   0.3332900   0.0576029   0.1481020  )
         6           Si  tau(   6) = (   0.8228980   0.8504580   0.3480620  )
         7           Si  tau(   7) = (   0.2661060   0.3635000   0.2188710  )
         8           Si  tau(   8) = (   0.0400472   0.8463110   0.2069260  )
         9           Si  tau(   9) = (   0.7651760   0.3599700   0.0903979  )
        10           Si  tau(  10) = (   0.8616050   0.9896850   0.6644090  )
        11           Si  tau(  11) = (   0.7297720   0.8617620   0.9402260  )
        12           Si  tau(  12) = (   0.2252500   0.0248852   0.7540270  )
        13           Si  tau(  13) = (   0.0448140   0.4597680   0.5690250  )
        14           Si  tau(  14) = (   0.6059340   0.6455000   0.8551410  )
        15           Si  tau(  15) = (   0.9254770   0.6857620   0.2263830  )
        16           Si  tau(  16) = (   0.9293500   0.9965220   0.0962139  )
        17           Si  tau(  17) = (   0.5756930   0.3716720   0.5338280  )
        18           Si  tau(  18) = (   0.3249560   0.1667370   0.3171060  )
        19           Si  tau(  19) = (   0.2497760   0.2326240   0.6901410  )
        20           Si  tau(  20) = (   0.4310250   0.9067540   0.4464300  )
        21           Si  tau(  21) = (   0.1431000   0.6831150   0.2511260  )
        22           Si  tau(  22) = (   0.2237030   0.6108200   0.7452680  )
        23           Si  tau(  23) = (   0.2394200   0.3905110   0.5296280  )
        24           Si  tau(  24) = (   0.5377460   0.8215770   0.9386040  )
        25           Si  tau(  25) = (   0.9301830   0.3145500   0.4730440  )
        26           Si  tau(  26) = (   0.9860940   0.3189970   0.1422590  )
        27           Si  tau(  27) = (   0.4615210   0.5254010   0.2839700  )
        28           Si  tau(  28) = (   0.8043750   0.1772220   0.6003220  )
        29           Si  tau(  29) = (   0.7465010   0.5949700   0.2962470  )
        30           Si  tau(  30) = (   0.2897530   0.5614100   0.1940550  )
        31           Si  tau(  31) = (   0.8602420   0.8068400   0.7656850  )
        32           Si  tau(  32) = (   0.2447110   0.9563430   0.5241900  )
        33           Si  tau(  33) = (   0.6998880   0.1154920   0.7416450  )
        34           Si  tau(  34) = (   0.0824564   0.8900280   0.6568520  )
        35           Si  tau(  35) = (   0.3774330   0.4829520   0.8307840  )
        36           Si  tau(  36) = (   0.7666400   0.4683560   0.4566460  )
        37           Si  tau(  37) = (   0.7216230   0.4832350   0.9341790  )
        38           Si  tau(  38) = (   0.1791440   0.2099470   0.8762920  )
        39           Si  tau(  39) = (   0.6677000   0.7918910   0.2693010  )
        40           Si  tau(  40) = (   0.4755330   0.3187400   0.3584300  )
        41           Si  tau(  41) = (   0.1758100   0.3256330   0.0252926  )
        42           Si  tau(  42) = (   0.5523560   0.8351060   0.6323870  )
        43           Si  tau(  43) = (   0.3426850   0.7015690   0.3207690  )
        44           Si  tau(  44) = (   0.9936790   0.1971250   0.9895960  )
        45           Si  tau(  45) = (   0.0272331   0.6742030   0.6147240  )
        46           Si  tau(  46) = (   0.8060830   0.6054590   0.8126140  )
        47           Si  tau(  47) = (   0.1844620   0.8537080   0.3566710  )
        48           Si  tau(  48) = (   0.1952840   0.4350960   0.7137830  )
        49           Si  tau(  49) = (   0.4025630   0.9368050   0.8375460  )
        50           Si  tau(  50) = (   0.0546397   0.7513780   0.8003250  )
        51           Si  tau(  51) = (   0.2206970   0.8259460   0.8277750  )
        52           Si  tau(  52) = (   0.5885550   0.0041670   0.8948720  )
        53           Si  tau(  53) = (   0.6953160   0.2617930   0.4268350  )
        54           Si  tau(  54) = (   0.8293680   0.8348130   0.1158900  )
        55           Si  tau(  55) = (   0.3604690   0.8898000   0.0428597  )
        56           Si  tau(  56) = (   0.8708230   0.5376700   0.6361070  )
        57           Si  tau(  57) = (   0.7453460   0.8362030   0.5756600  )
        58           Si  tau(  58) = (   0.4927840   0.3510790   0.7489700  )
        59           Si  tau(  59) = (   0.6293150   0.8948450   0.4359310  )
        60           Si  tau(  60) = (   0.3760860   0.8874940   0.2415780  )
        61           Si  tau(  61) = (   0.2193550   0.1887870   0.4992610  )
        62           Si  tau(  62) = (   0.8927090   0.4745270   0.2093230  )
        63           Si  tau(  63) = (   0.5154580   0.4743250   0.9512370  )
        64           Si  tau(  64) = (   0.8241070   0.1658330   0.0773542  )

     number of k points=     1  Fermi-Dirac smearing, width (Ry)=  0.0100
                       cart. coord. in units 2pi/alat
        k(    1) = (   0.0000000   0.0000000   0.0000000), wk =   2.0000000

     Dense  grid:   115195 G-vectors     FFT dimensions: (  80,  80,  80)

     Estimated max dynamical RAM per process >     185.48 MB

     Estimated total dynamical RAM >     713.78 MB

     Initial potential from superposition of free atoms

     starting charge     255.9608, renormalised to     256.0000
     Starting wfcs are  256 randomized atomic wfcs

     total cpu time spent up to now is        4.4 secs

     Self-consistent Calculation

     iteration #  1     ecut=    30.00 Ry     beta= 0.50
     Davidson diagonalization with overlap
     ethr =  1.00E-02,  avg # of iterations =  3.0

     Threshold (ethr) on eigenvalues was too large:
     Diagonalizing with lowered threshold

     Davidson diagonalization with overlap
     ethr =  7.24E-04,  avg # of iterations =  4.0

     total cpu time spent up to now is        4.6 secs

     total energy              =    -499.65970114 Ry
     estimated scf accuracy    <       2.42726563 Ry

     iteration #  2     ecut=    30.00 Ry     beta= 0.50
     Davidson diagonalization with overlap
     ethr =  9.48E-04,  avg # of iterations =  3.0

     total cpu time spent up to now is        4.7 secs

     total energy              =    -499.23816965 Ry
     estimated scf accuracy    <       4.23189274 Ry

     iteration #  3     ecut=    30.00 Ry     beta= 0.50
     Davidson diagonalization with overlap
     ethr =  9.48E-04,  avg # of iterations =  5.0

     total cpu time spent up to now is        4.8 secs

     total energy              =    -499.52253630 Ry
     estimated scf accuracy    <       8.14916065 Ry

     iteration #  4     ecut=    30.00 Ry     beta= 0.50
     Davidson diagonalization with overlap
     ethr =  9.48E-04,  avg # of iterations =  3.0

     total cpu time spent up to now is        4.9 secs

     total energy              =    -500.03643165 Ry
     estimated scf accuracy    <       1.22529093 Ry

     iteration #  5     ecut=    30.00 Ry     beta= 0.50
     Davidson diagonalization with overlap
     ethr =  4.79E-04,  avg # of iterations =  2.0

     total cpu time spent up to now is        5.0 secs

     total energy              =    -500.15204169 Ry
     estimated scf accuracy    <       0.32464952 Ry

     iteration #  6     ecut=    30.00 Ry     beta= 0.50
     Davidson diagonalization with overlap
     ethr =  1.27E-04,  avg # of iterations =  2.0

     total cpu time spent up to now is        5.1 secs

     total energy              =    -500.18792473 Ry
     estimated scf accuracy    <       0.13324689 Ry

     iteration #  7     ecut=    30.00 Ry     beta= 0.50
     Davidson diagonalization with overlap
     ethr =  5.20E-05,  avg # of iterations =  2.0

     total cpu time spent up to now is        5.2 secs

     total energy              =    -500.19601328 Ry
     estimated scf accuracy    <       0.07000794 Ry

     iteration #  8     ecut=    30.00 Ry     beta= 0.50
     Davidson diagonalization with overlap
     ethr =  2.73E-05,  avg # of iterations = 19.0

     total cpu time spent up to now is        5.4 secs

     total energy              =    -500.20166863 Ry
     estimated scf accuracy    <       0.04521882 Ry

     iteration #  9     ecut=    30.00 Ry     beta= 0.50
     Davidson diagonalization with overlap
     ethr =  1.77E-05,  avg # of iterations =  3.0

     total cpu time spent up to now is        5.5 secs

     total energy              =    -500.20556857 Ry
     estimated scf accuracy    <       0.00489718 Ry

     iteration # 10     ecut=    30.00 Ry     beta= 0.50
     Davidson diagonalization with overlap
     ethr =  1.91E-06,  avg # of iterations = 13.0

     total cpu time spent up to now is        5.7 secs

     total energy              =    -500.20617860 Ry
     estimated scf accuracy    <       0.00255958 Ry

     iteration # 11     ecut=    30.00 Ry     beta= 0.50
     Davidson diagonalization with overlap
     ethr =  1.00E-06,  avg # of iterations =  2.0

     total cpu time spent up to now is        5.8 secs

     total energy              =    -500.20643304 Ry
     estimated scf accuracy    <       0.00180910 Ry

     iteration # 12     ecut=    30.00 Ry     beta= 0.50
     Davidson diagonalization with overlap
     ethr =  7.07E-07,  avg # of iterations =  2.0

     total cpu time spent up to now is        5.9 secs

     total energy              =    -500.20658680 Ry
     estimated scf accuracy    <       0.00037461 Ry

     iteration # 13     ecut=    30.00 Ry     beta= 0.50
     Davidson diagonalization with overlap
     ethr =  1.46E-07,  avg # of iterations =  2.0

     total cpu time spent up to now is        6.0 secs

     total energy              =    -500.20661625 Ry
     estimated scf accuracy    <       0.00015314 Ry

     iteration # 14     ecut=    30.00 Ry     beta= 0.50
     Davidson diagonalization with overlap
     ethr =  5.98E-08,  avg # of iterations =  3.0

     total cpu time spent up to now is        6.1 secs

     total energy              =    -500.20662697 Ry
     estimated scf accuracy    <       0.00027310 Ry

     iteration # 15     ecut=    30.00 Ry     beta= 0.50
     Davidson diagonalization with overlap
     ethr =  5.98E-08,  avg # of iterations =  2.0

     total cpu time spent up to now is        6.2 secs

     total energy              =    -500.20664248 Ry
     estimated scf accuracy    <       0.00005541 Ry

     iteration # 16     ecut=    30.00 Ry     beta= 0.50
     Davidson diagonalization with overlap
     ethr =  2.16E-08,  avg # of iterations =  2.0

     total cpu time spent up to now is        6.3 secs

     total energy              =    -500.20664793 Ry
     estimated scf accuracy    <       0.00002145 Ry

     iteration # 17     ecut=    30.00 Ry     beta= 0.50
     Davidson diagonalization with overlap
     ethr =  8.38E-09,  avg # of iterations =  2.0

     total cpu time spent up to now is        6.4 secs

     total energy              =    -500.20664888 Ry
     estimated scf accuracy    <       0.00001342 Ry

     iteration # 18     ecut=    30.00 Ry     beta= 0.50
     Davidson diagonalization with overlap
     ethr =  5.24E-09,  avg # of iterations =  2.0

     total cpu time spent up to now is        6.5 secs

     total energy              =    -500.20665003 Ry
     estimated scf accuracy    <       0.00000660 Ry

     iteration # 19     ecut=    30.00 Ry     beta= 0.50
     Davidson diagonalization with overlap
     ethr =  2.58E-09,  avg # of iterations =  2.0

     total cpu time spent up to now is        6.6 secs

     total energy              =    -500.20665057 Ry
     estimated scf accuracy    <       0.00000195 Ry

     iteration # 20     ecut=    30.00 Ry     beta= 0.50
     Davidson diagonalization with overlap
     ethr =  7.60E-10,  avg # of iterations =  2.0

     total cpu time spent up to now is        6.7 secs

     total energy              =    -500.20665077 Ry
     estimated scf accuracy    <       0.00000128 Ry

     iteration # 21     ecut=    30.00 Ry     beta= 0.50
     Davidson diagonalization with overlap
     ethr =  4.99E-10,  avg # of iterations =  1.0

     total cpu time spent up to now is        6.8 secs

     End of self-consistent calculation

          k = 0.0000 0.0000 0.0000 ( 14336 PWs)   bands (ev):

    -8.0490  -7.7577  -7.5705  -7.4679  -7.3375  -7.2996  -7.1760  -7.0726
    -6.7982  -6.5786  -6.5131  -6.3837  -6.3233  -5.9874  -5.9002  -5.8273
    -5.5276  -5.3322  -5.2106  -5.1283  -4.9080  -4.6987  -4.5878  -4.4037
    -4.2692  -4.1223  -4.0104  -3.8742  -3.6991  -3.5923  -3.4796  -3.3156
    -3.2146  -3.1566  -2.9513  -2.9204  -2.7538  -2.6950  -2.6441  -2.6147
    -2.4725  -2.2208  -2.1460  -2.0421  -1.7892  -1.7243  -1.5855  -1.5201
    -1.4211  -1.1833  -1.1396  -1.0824  -0.9711  -0.9430  -0.8070  -0.6628
    -0.3961  -0.3276  -0.2670  -0.1225  -0.0826  -0.0652   0.0539   0.1743
     0.2923   0.3700   0.4217   0.6396   0.6739   0.7200   0.8235   0.8470
     0.9090   0.9207   0.9976   1.0780   1.1165   1.2243   1.2724   1.3134
     1.4175   1.4820   1.6225   1.6597   1.7424   1.7833   1.8104   1.9216
     2.0054   2.0364   2.1058   2.2009   2.3267   2.3765   2.4678   2.5303
     2.5935   2.6348   2.7002   2.7587   2.7786   2.8402   2.9062   2.9623
     3.0304   3.0460   3.1763   3.2254   3.3071   3.4011   3.4910   3.5877
     3.6590   3.6737   3.7609   3.8118   3.8557   3.9002   3.9147   3.9958
     4.0247   4.1230   4.1482   4.2261   4.3184   4.4001   4.4307   4.4809
     4.5300   4.6070   4.6725   4.7154   4.7691   4.8317   4.8982   4.9490
     5.0442   5.0531   5.1869   5.2799   5.2983   5.4152   5.4476   5.5201
     5.5808   5.6145   5.6688   5.7195   5.7805   5.8493   5.9236   6.0005
     6.0387   6.0879

     the Fermi energy is     4.5141 ev

!    total energy              =    -500.20665074 Ry
     estimated scf accuracy    <       0.00000020 Ry
     smearing contrib. (-TS)   =      -0.14945579 Ry
     internal energy E=F+TS    =    -500.05719494 Ry

     The total energy is F=E-TS. E is the sum of the following terms:
     one-electron contribution =      -3.09921910 Ry
     hartree contribution      =      94.85746512 Ry
     xc contribution           =    -151.27582677 Ry
     ewald contribution        =    -440.53961419 Ry

     convergence has been achieved in  21 iterations

     Forces acting on atoms (cartesian axes, Ry/au):

     atom    1 type  1   force =    -0.06939696    0.04465613   -0.03797053
     atom    2 type  1   force =     0.03383437    0.01849821    0.03342600
     atom    3 type  1   force =    -0.00621787    0.02952104    0.05877918
     atom    4 type  1   force =    -0.03096965   -0.00224171    0.00840552
     atom    5 type  1   force =    -0.00384825    0.03039335   -0.00273467
     atom    6 type  1   force =     0.09917391    0.02993496    0.08859533
     atom    7 type  1   force =    -0.01344681   -0.04056293    0.02201001
     atom    8 type  1   force =     0.03083755    0.08198532   -0.00109776
     atom    9 type  1   force =    -0.00761375    0.04823183    0.00352874
     atom   10 type  1   force =    -0.00315660    0.01285575   -0.00608904
     atom   11 type  1   force =     0.06993635   -0.00683688   -0.01303677
     atom   12 type  1   force =     0.00518825    0.02341760    0.00208559
     atom   13 type  1   force =     0.00049555   -0.00743593   -0.00936331
     atom   14 type  1   force =    -0.02065212    0.01381788   -0.01274660
     atom   15 type  1   force =    -0.01173475   -0.05573834   -0.00366904
     atom   16 type  1   force =     0.07081359    0.00889972   -0.00596168
     atom   17 type  1   force =    -0.04855944    0.04312437    0.01359975
     atom   18 type  1   force =     0.06080756    0.02589684    0.00103166
     atom   19 type  1   force =     0.04528360    0.01585781    0.01513282
     atom   20 type  1   force =     0.00286542   -0.00635705    0.02501007
     atom   21 type  1   force =    -0.03365959   -0.03449744   -0.00461751
     atom   22 type  1   force =     0.04113203    0.14084599    0.02702417
     atom   23 type  1   force =     0.02851749    0.01631280   -0.05864047
     atom   24 type  1   force =    -0.05791470   -0.09676372    0.03287732
     atom   25 type  1   force =    -0.00913016   -0.00295171   -0.00131197
     atom   26 type  1   force =     0.04853239   -0.03197039    0.03802993
     atom   27 type  1   force =     0.03278904   -0.01527554    0.03374019
     atom   28 type  1   force =     0.09570375    0.02100817   -0.13302784
     atom   29 type  1   force =    -0.02953305    0.03028344    0.00479727
     atom   30 type  1   force =    -0.02697954   -0.03932986   -0.08354958
     atom   31 type  1   force =    -0.02794653   -0.00127076    0.04609359
     atom   32 type  1   force =    -0.00199130    0.02616999    0.02508091
     atom   33 type  1   force =    -0.06431904   -0.06869283    0.08796496
     atom   34 type  1   force =     0.00112933    0.03823138   -0.03604352
     atom   35 type  1   force =    -0.12414483    0.06850610   -0.08636786
     atom   36 type  1   force =     0.00023054   -0.00944118    0.02932740
     atom   37 type  1   force =    -0.02837646   -0.04394550    0.02727365
     atom   38 type  1   force =    -0.02753956   -0.07136529   -0.03647601
     atom   39 type  1   force =    -0.10893826   -0.06187823   -0.09273691
     atom   40 type  1   force =    -0.00182427    0.00000203   -0.02285301
     atom   41 type  1   force =    -0.07004696    0.01998893    0.07298294
     atom   42 type  1   force =    -0.03916710    0.00482537    0.01319516
     atom   43 type  1   force =     0.05456204    0.05678556    0.05553689
     atom   44 type  1   force =     0.08048003   -0.04668787   -0.07209333
     atom   45 type  1   force =     0.01352016   -0.00903409   -0.04209845
     atom   46 type  1   force =     0.01050982    0.03237460   -0.01394114
     atom   47 type  1   force =     0.01313131    0.00789640   -0.01907905
     atom   48 type  1   force =    -0.03184287   -0.11326126    0.03411290
     atom   49 type  1   force =    -0.01375502    0.01737514   -0.02734233
     atom   50 type  1   force =    -0.09686924   -0.06785440    0.04921410
     atom   51 type  1   force =     0.09449283    0.00845312    0.02304961
     atom   52 type  1   force =     0.04140364    0.09513222   -0.02070165
     atom   53 type  1   force =     0.04893429   -0.02628770   -0.02414076
     atom   54 type  1   force =    -0.07916253   -0.04982223   -0.00862288
     atom   55 type  1   force =    -0.00844288   -0.03178419   -0.05914698
     atom   56 type  1   force =    -0.02958390   -0.01556949   -0.02639185
     atom   57 type  1   force =     0.07134531   -0.00945265    0.03928754
     atom   58 type  1   force =     0.01121540   -0.04633500   -0.03987389
     atom   59 type  1   force =    -0.03301675    0.04424856   -0.04438637
     atom   60 type  1   force =    -0.00447105   -0.02409835    0.04810935
     atom   61 type  1   force =    -0.01161586   -0.06787021   -0.01451961
     atom   62 type  1   force =     0.00073054    0.03991399    0.00536183
     atom   63 type  1   force =     0.13631572    0.00967726    0.05802987
     atom   64 type  1   force =    -0.06804418   -0.00050915    0.03793812

     Total force =     0.645401     Total SCF correction =     0.000755


     Computing stress (Cartesian axis) and pressure

          total   stress  (Ry/bohr**3)                   (kbar)     P=       31.45
   0.00026704   0.00004261   0.00004574           39.28        6.27        6.73
   0.00004261   0.00016430   0.00005106            6.27       24.17        7.51
   0.00004574   0.00005106   0.00020996            6.73        7.51       30.89

 
     init_run     :      0.95s CPU      4.32s WALL (       1 calls)
     electrons    :      2.23s CPU      2.39s WALL (       1 calls)
     forces       :      0.04s CPU      0.04s WALL (       1 calls)
     stress       :      0.17s CPU      0.18s WALL (       1 calls)

     Called by init_run:
     wfcinit      :      0.44s CPU      3.62s WALL (       1 calls)
                                        3.62s GPU  (       1 calls)
     potinit      :      0.04s CPU      0.15s WALL (       1 calls)
     hinit0       :      0.45s CPU      0.48s WALL (       1 calls)

     Called by electrons:
     c_bands      :      1.36s CPU      1.44s WALL (      22 calls)
     sum_band     :      0.41s CPU      0.46s WALL (      22 calls)
     v_of_rho     :      0.18s CPU      0.30s WALL (      22 calls)
     mix_rho      :      0.21s CPU      0.23s WALL (      22 calls)

     Called by c_bands:
     init_us_2    :      0.06s CPU      0.06s WALL (      45 calls)
     init_us_2:gp :      0.05s CPU      0.06s WALL (      45 calls)
     regterg      :      1.20s CPU      1.26s WALL (      22 calls)

     Called by *egterg:
     rdiaghg      :      0.44s CPU      1.10s WALL (     102 calls)
                                        1.08s GPU  (     102 calls)
     h_psi        :      0.99s CPU      3.55s WALL (     104 calls)
                                        3.55s GPU  (     104 calls)
     g_psi        :      0.00s CPU      0.00s WALL (      81 calls)
                                        0.00s GPU  (      81 calls)

     Called by h_psi:
     h_psi:calbec :      0.43s CPU      2.90s WALL (     104 calls)
                                        2.90s GPU  (     104 calls)
     vloc_psi     :      0.50s CPU      0.58s WALL (     104 calls)
                                        0.58s GPU  (     104 calls)
     add_vuspsi   :      0.04s CPU      0.06s WALL (     104 calls)
                                        0.06s GPU  (     104 calls)

     General routines
     calbec       :      0.43s CPU      2.91s WALL (     109 calls)
     fft          :      0.61s CPU      0.76s WALL (     183 calls)
                                        0.14s GPU  (     116 calls)
     ffts         :      0.05s CPU      0.06s WALL (      22 calls)
     fftw         :      0.59s CPU      0.76s WALL (    2304 calls)
                                        0.66s GPU  (    2304 calls)
 
     Parallel routines
 
     PWSCF        :      3.43s CPU      7.00s WALL

 
   This run was terminated on:  14:13: 6  10May2023            

=------------------------------------------------------------------------------=
   JOB DONE.
=------------------------------------------------------------------------------=
