An instance of this daemon is already running
An instance of this daemon is already running

     Program PWSCF v.7.1 starts on 10May2023 at 14:10:58 

     This program is part of the open-source Quantum ESPRESSO suite
     for quantum simulation of materials; please cite
         "P. Giannozzi et al., J. Phys.:Condens. Matter 21 395502 (2009);
         "P. Giannozzi et al., J. Phys.:Condens. Matter 29 465901 (2017);
         "P. Giannozzi et al., J. Chem. Phys. 152 154105 (2020);
          URL http://www.quantum-espresso.org", 
     in publications or presentations arising from this work. More details at
     http://www.quantum-espresso.org/quote

     Parallel version (MPI & OpenMP), running on       4 processor cores
     Number of MPI processes:                 4
     Threads/MPI process:                     1

     MPI processes distributed on     1 nodes
     243738 MiB available memory on the printing compute node when the environment starts
 
     Reading input from pw-si-83.in
Warning: card &CELL ignored
Warning: card / ignored

     Current dimensions of program PWSCF are:
     Max number of different atomic species (ntypx) = 10
     Max number of k-points (npk) =  40000
     Max angular momentum in pseudopotentials (lmaxx) =  4

     IMPORTANT: XC functional enforced from input :
     Exchange-correlation= PBE
                           (   1   4   3   4   0   0   0)
     Any further DFT definition will be discarded
     Please, verify this is what you really want


     gamma-point specific algorithms are used
 
     K-points division:     npool     =       2
     R & G space division:  proc/nbgrp/npool/nimage =       2
     Subspace diagonalization in iterative solution of the eigenvalue problem:
     a serial algorithm will be used

     Message from routine divide_et_impera:
     suboptimal parallelization: some nodes have no k-points
 
     Parallelization info
     --------------------
     sticks:   dense  smooth     PW     G-vecs:    dense   smooth      PW
     Min        2288    2288    600               116348   116348   15716
     Max        2289    2289    601               116353   116353   15723
     Sum        4577    4577   1201               232701   232701   31439
 
     Using Slab Decomposition
 


     bravais-lattice index     =            0
     lattice parameter (alat)  =      21.8917  a.u.
     unit-cell volume          =   10491.4867 (a.u.)^3
     number of atoms/cell      =           64
     number of atomic types    =            1
     number of electrons       =       256.00
     number of Kohn-Sham states=          154
     kinetic-energy cutoff     =      30.0000  Ry
     charge density cutoff     =     120.0000  Ry
     scf convergence threshold =      1.0E-06
     mixing beta               =       0.5000
     number of iterations used =            8  plain     mixing
     Exchange-correlation= PBE
                           (   1   4   3   4   0   0   0)

     GPU acceleration is ACTIVE.
     GPU-aware MPI enabled

     Message from routine print_cuda_info:
     High GPU oversubscription detected. Are you sure this is what you want?

     celldm(1)=  21.891676  celldm(2)=   0.000000  celldm(3)=   0.000000
     celldm(4)=   0.000000  celldm(5)=   0.000000  celldm(6)=   0.000000

     crystal axes: (cart. coord. in units of alat)
               a(1) = (   1.000000   0.000000   0.000000 )  
               a(2) = (   0.000000   1.000000   0.000000 )  
               a(3) = (   0.000000   0.000000   1.000000 )  

     reciprocal axes: (cart. coord. in units 2 pi/alat)
               b(1) = (  1.000000  0.000000  0.000000 )  
               b(2) = (  0.000000  1.000000  0.000000 )  
               b(3) = (  0.000000  0.000000  1.000000 )  


     PseudoPot. # 1 for Si read from file:
     /home/ppiaggi/pseudos/Si_ONCV_PBE_sr.upf
     MD5 check sum: 8553c464762ac42b85b1eed164b4d029
     Pseudo is Norm-conserving, Zval =  4.0
     Generated using ONCVPSP code by D. R. Hamann
     Using radial grid of 1510 points,  4 beta functions with: 
                l(1) =   0
                l(2) =   0
                l(3) =   1
                l(4) =   1

     atomic species   valence    mass     pseudopotential
        Si             4.00    28.08500     Si( 1.00)

     No symmetry found



   Cartesian axes

     site n.     atom                  positions (alat units)
         1           Si  tau(   1) = (   0.1492640   0.2302490   0.3180120  )
         2           Si  tau(   2) = (   0.3533330   0.4518030   0.0414754  )
         3           Si  tau(   3) = (   0.6734040   0.2875850   0.7409380  )
         4           Si  tau(   4) = (   0.6640900   0.2499280   0.2267550  )
         5           Si  tau(   5) = (   0.3543660   0.0457958   0.1222370  )
         6           Si  tau(   6) = (   0.8661210   0.7694470   0.3954300  )
         7           Si  tau(   7) = (   0.2731430   0.3671380   0.2267290  )
         8           Si  tau(   8) = (   0.0157689   0.8954130   0.1839630  )
         9           Si  tau(   9) = (   0.7746920   0.3758960   0.1224350  )
        10           Si  tau(  10) = (   0.8554050   0.9611260   0.7078690  )
        11           Si  tau(  11) = (   0.7162400   0.9327040   0.9568110  )
        12           Si  tau(  12) = (   0.2287490   0.0107601   0.7602050  )
        13           Si  tau(  13) = (   0.0387822   0.4641050   0.5345380  )
        14           Si  tau(  14) = (   0.6261690   0.6041690   0.9218920  )
        15           Si  tau(  15) = (   0.9280430   0.7086370   0.2077010  )
        16           Si  tau(  16) = (   0.9040920   0.9984580   0.0404093  )
        17           Si  tau(  17) = (   0.6145710   0.3093830   0.5656330  )
        18           Si  tau(  18) = (   0.3749190   0.1895180   0.2762900  )
        19           Si  tau(  19) = (   0.2414680   0.2507410   0.6706100  )
        20           Si  tau(  20) = (   0.4298280   0.8950450   0.4467700  )
        21           Si  tau(  21) = (   0.1266010   0.7422060   0.2422810  )
        22           Si  tau(  22) = (   0.2261060   0.6229230   0.7919330  )
        23           Si  tau(  23) = (   0.1895330   0.3437020   0.5042300  )
        24           Si  tau(  24) = (   0.5385190   0.8566860   0.9094050  )
        25           Si  tau(  25) = (   0.9328470   0.2872040   0.5300390  )
        26           Si  tau(  26) = (   0.9684780   0.3296480   0.1254740  )
        27           Si  tau(  27) = (   0.5018490   0.5452200   0.2860180  )
        28           Si  tau(  28) = (   0.8279330   0.1197550   0.5652040  )
        29           Si  tau(  29) = (   0.7776400   0.6135130   0.3530540  )
        30           Si  tau(  30) = (   0.2932360   0.5752060   0.2207140  )
        31           Si  tau(  31) = (   0.8116240   0.8006910   0.8182500  )
        32           Si  tau(  32) = (   0.2478290   0.9434110   0.5633580  )
        33           Si  tau(  33) = (   0.7023070   0.0737260   0.7279930  )
        34           Si  tau(  34) = (   0.0695799   0.9134530   0.6508740  )
        35           Si  tau(  35) = (   0.3247270   0.4615130   0.8383900  )
        36           Si  tau(  36) = (   0.7120830   0.4880860   0.4903790  )
        37           Si  tau(  37) = (   0.7331240   0.4498840   0.9039440  )
        38           Si  tau(  38) = (   0.1613230   0.1985880   0.8510300  )
        39           Si  tau(  39) = (   0.6676560   0.7732410   0.2559520  )
        40           Si  tau(  40) = (   0.5136310   0.3659480   0.1797180  )
        41           Si  tau(  41) = (   0.1582410   0.3248150   0.0222308  )
        42           Si  tau(  42) = (   0.5628560   0.7551300   0.5321650  )
        43           Si  tau(  43) = (   0.3798080   0.7197170   0.3313690  )
        44           Si  tau(  44) = (   0.0264441   0.1683950   0.0247508  )
        45           Si  tau(  45) = (   0.0270811   0.7115520   0.6291800  )
        46           Si  tau(  46) = (   0.7918550   0.5979610   0.7952840  )
        47           Si  tau(  47) = (   0.2276820   0.8631820   0.3716750  )
        48           Si  tau(  48) = (   0.1811380   0.4627550   0.6863130  )
        49           Si  tau(  49) = (   0.3707490   0.9651420   0.8758150  )
        50           Si  tau(  50) = (   0.9982530   0.6822490   0.8267820  )
        51           Si  tau(  51) = (   0.2014150   0.8460500   0.8710990  )
        52           Si  tau(  52) = (   0.5523340   0.0442135   0.8617100  )
        53           Si  tau(  53) = (   0.7613630   0.2643880   0.4321660  )
        54           Si  tau(  54) = (   0.7991540   0.8837980   0.1283520  )
        55           Si  tau(  55) = (   0.3383720   0.8642650   0.0382397  )
        56           Si  tau(  56) = (   0.8821630   0.5722900   0.6015140  )
        57           Si  tau(  57) = (   0.7116880   0.8097620   0.6328250  )
        58           Si  tau(  58) = (   0.4938030   0.3897710   0.6969550  )
        59           Si  tau(  59) = (   0.6796740   0.8728600   0.4316680  )
        60           Si  tau(  60) = (   0.3858160   0.8808740   0.2259810  )
        61           Si  tau(  61) = (   0.2472920   0.1624540   0.4721080  )
        62           Si  tau(  62) = (   0.9092570   0.4978420   0.2243050  )
        63           Si  tau(  63) = (   0.5062500   0.4381470   0.9102320  )
        64           Si  tau(  64) = (   0.8304650   0.1788030   0.1202310  )

     number of k points=     1  Fermi-Dirac smearing, width (Ry)=  0.0100
                       cart. coord. in units 2pi/alat
        k(    1) = (   0.0000000   0.0000000   0.0000000), wk =   2.0000000

     Dense  grid:   116351 G-vectors     FFT dimensions: (  80,  80,  80)

     Estimated max dynamical RAM per process >     187.16 MB

     Estimated total dynamical RAM >     720.25 MB

     Initial potential from superposition of free atoms

     starting charge     255.9608, renormalised to     256.0000
     Starting wfcs are  256 randomized atomic wfcs

     total cpu time spent up to now is        4.9 secs

     Self-consistent Calculation

     iteration #  1     ecut=    30.00 Ry     beta= 0.50
     Davidson diagonalization with overlap
     ethr =  1.00E-02,  avg # of iterations =  3.0

     Threshold (ethr) on eigenvalues was too large:
     Diagonalizing with lowered threshold

     Davidson diagonalization with overlap
     ethr =  7.06E-04,  avg # of iterations =  4.0

     total cpu time spent up to now is        5.2 secs

     total energy              =    -499.58975377 Ry
     estimated scf accuracy    <       2.42593112 Ry

     iteration #  2     ecut=    30.00 Ry     beta= 0.50
     Davidson diagonalization with overlap
     ethr =  9.48E-04,  avg # of iterations =  3.0

     total cpu time spent up to now is        5.3 secs

     total energy              =    -499.11275868 Ry
     estimated scf accuracy    <       4.35305205 Ry

     iteration #  3     ecut=    30.00 Ry     beta= 0.50
     Davidson diagonalization with overlap
     ethr =  9.48E-04,  avg # of iterations =  4.0

     total cpu time spent up to now is        5.5 secs

     total energy              =    -499.39767580 Ry
     estimated scf accuracy    <       9.97229863 Ry

     iteration #  4     ecut=    30.00 Ry     beta= 0.50
     Davidson diagonalization with overlap
     ethr =  9.48E-04,  avg # of iterations =  2.0

     total cpu time spent up to now is        5.6 secs

     total energy              =    -499.99076119 Ry
     estimated scf accuracy    <       0.87016430 Ry

     iteration #  5     ecut=    30.00 Ry     beta= 0.50
     Davidson diagonalization with overlap
     ethr =  3.40E-04,  avg # of iterations =  2.0

     total cpu time spent up to now is        5.7 secs

     total energy              =    -500.07191360 Ry
     estimated scf accuracy    <       0.42877757 Ry

     iteration #  6     ecut=    30.00 Ry     beta= 0.50
     Davidson diagonalization with overlap
     ethr =  1.67E-04,  avg # of iterations =  2.0

     total cpu time spent up to now is        5.8 secs

     total energy              =    -500.11005123 Ry
     estimated scf accuracy    <       0.22586990 Ry

     iteration #  7     ecut=    30.00 Ry     beta= 0.50
     Davidson diagonalization with overlap
     ethr =  8.82E-05,  avg # of iterations =  2.0

     total cpu time spent up to now is        5.9 secs

     total energy              =    -500.12516839 Ry
     estimated scf accuracy    <       0.05302601 Ry

     iteration #  8     ecut=    30.00 Ry     beta= 0.50
     Davidson diagonalization with overlap
     ethr =  2.07E-05,  avg # of iterations =  5.0

     total cpu time spent up to now is        6.0 secs

     total energy              =    -500.12989230 Ry
     estimated scf accuracy    <       0.05433620 Ry

     iteration #  9     ecut=    30.00 Ry     beta= 0.50
     Davidson diagonalization with overlap
     ethr =  2.07E-05,  avg # of iterations =  2.0

     total cpu time spent up to now is        6.1 secs

     total energy              =    -500.13378560 Ry
     estimated scf accuracy    <       0.00686851 Ry

     iteration # 10     ecut=    30.00 Ry     beta= 0.50
     Davidson diagonalization with overlap
     ethr =  2.68E-06,  avg # of iterations = 10.0

     total cpu time spent up to now is        6.3 secs

     total energy              =    -500.13454392 Ry
     estimated scf accuracy    <       0.00354972 Ry

     iteration # 11     ecut=    30.00 Ry     beta= 0.50
     Davidson diagonalization with overlap
     ethr =  1.39E-06,  avg # of iterations =  3.0

     total cpu time spent up to now is        6.4 secs

     total energy              =    -500.13477353 Ry
     estimated scf accuracy    <       0.00313233 Ry

     iteration # 12     ecut=    30.00 Ry     beta= 0.50
     Davidson diagonalization with overlap
     ethr =  1.22E-06,  avg # of iterations =  2.0

     total cpu time spent up to now is        6.5 secs

     total energy              =    -500.13501129 Ry
     estimated scf accuracy    <       0.00064430 Ry

     iteration # 13     ecut=    30.00 Ry     beta= 0.50
     Davidson diagonalization with overlap
     ethr =  2.52E-07,  avg # of iterations =  2.0

     total cpu time spent up to now is        6.6 secs

     total energy              =    -500.13505614 Ry
     estimated scf accuracy    <       0.00039436 Ry

     iteration # 14     ecut=    30.00 Ry     beta= 0.50
     Davidson diagonalization with overlap
     ethr =  1.54E-07,  avg # of iterations =  2.0

     total cpu time spent up to now is        6.7 secs

     total energy              =    -500.13509239 Ry
     estimated scf accuracy    <       0.00022087 Ry

     iteration # 15     ecut=    30.00 Ry     beta= 0.50
     Davidson diagonalization with overlap
     ethr =  8.63E-08,  avg # of iterations =  2.0

     total cpu time spent up to now is        6.8 secs

     total energy              =    -500.13510389 Ry
     estimated scf accuracy    <       0.00009593 Ry

     iteration # 16     ecut=    30.00 Ry     beta= 0.50
     Davidson diagonalization with overlap
     ethr =  3.75E-08,  avg # of iterations =  2.0

     total cpu time spent up to now is        6.9 secs

     total energy              =    -500.13511168 Ry
     estimated scf accuracy    <       0.00004733 Ry

     iteration # 17     ecut=    30.00 Ry     beta= 0.50
     Davidson diagonalization with overlap
     ethr =  1.85E-08,  avg # of iterations =  2.0

     total cpu time spent up to now is        7.0 secs

     total energy              =    -500.13511316 Ry
     estimated scf accuracy    <       0.00004559 Ry

     iteration # 18     ecut=    30.00 Ry     beta= 0.50
     Davidson diagonalization with overlap
     ethr =  1.78E-08,  avg # of iterations =  1.0

     total cpu time spent up to now is        7.1 secs

     total energy              =    -500.13511668 Ry
     estimated scf accuracy    <       0.00000436 Ry

     iteration # 19     ecut=    30.00 Ry     beta= 0.50
     Davidson diagonalization with overlap
     ethr =  1.70E-09,  avg # of iterations =  4.0

     total cpu time spent up to now is        7.2 secs

     total energy              =    -500.13511721 Ry
     estimated scf accuracy    <       0.00000426 Ry

     iteration # 20     ecut=    30.00 Ry     beta= 0.50
     Davidson diagonalization with overlap
     ethr =  1.66E-09,  avg # of iterations =  2.0

     total cpu time spent up to now is        7.3 secs

     total energy              =    -500.13511751 Ry
     estimated scf accuracy    <       0.00000140 Ry

     iteration # 21     ecut=    30.00 Ry     beta= 0.50
     Davidson diagonalization with overlap
     ethr =  5.47E-10,  avg # of iterations =  2.0

     total cpu time spent up to now is        7.4 secs

     End of self-consistent calculation

          k = 0.0000 0.0000 0.0000 ( 14520 PWs)   bands (ev):

    -8.1008  -7.7733  -7.6046  -7.5219  -7.4552  -7.2275  -6.9911  -6.9625
    -6.8176  -6.6673  -6.5029  -6.4064  -6.2754  -6.0396  -5.9735  -5.8146
    -5.6200  -5.4319  -5.3056  -4.9737  -4.9531  -4.8717  -4.6161  -4.5284
    -4.3609  -4.2029  -4.0046  -3.9060  -3.7371  -3.5586  -3.4987  -3.3688
    -3.2764  -3.0394  -2.9114  -2.8176  -2.7325  -2.6278  -2.4358  -2.3577
    -2.3266  -2.2633  -2.1999  -2.0449  -1.9242  -1.7654  -1.6427  -1.3823
    -1.3177  -1.2767  -1.1841  -1.0803  -0.9662  -0.9198  -0.6769  -0.5642
    -0.5285  -0.4248  -0.4032  -0.3098  -0.2521  -0.0751  -0.0384   0.2090
     0.2861   0.3821   0.4291   0.4998   0.5364   0.6779   0.7256   0.7668
     0.8291   0.8633   1.0138   1.0614   1.1458   1.1851   1.2787   1.2854
     1.4055   1.5319   1.5807   1.6493   1.6614   1.8098   1.8719   1.8867
     1.9094   2.0548   2.0926   2.1223   2.1783   2.2822   2.3632   2.4167
     2.4493   2.5005   2.6343   2.6893   2.7219   2.7870   2.8796   2.9060
     2.9979   3.0351   3.0915   3.1816   3.2206   3.3347   3.3680   3.4212
     3.5165   3.5487   3.6213   3.6883   3.8094   3.8648   3.8964   3.9475
     4.0169   4.0364   4.1778   4.2345   4.2718   4.2805   4.3323   4.4134
     4.4732   4.5492   4.5546   4.6393   4.7235   4.7579   4.7814   4.8289
     4.8881   4.9999   5.0452   5.0842   5.1783   5.2225   5.3237   5.4132
     5.4309   5.5122   5.5370   5.6151   5.6544   5.6761   5.8093   5.8792
     5.9548   6.0370

     the Fermi energy is     4.4430 ev

!    total energy              =    -500.13511699 Ry
     estimated scf accuracy    <       0.00000090 Ry
     smearing contrib. (-TS)   =      -0.15979534 Ry
     internal energy E=F+TS    =    -499.97532165 Ry

     The total energy is F=E-TS. E is the sum of the following terms:
     one-electron contribution =      -3.59428208 Ry
     hartree contribution      =      94.41384530 Ry
     xc contribution           =    -150.70355369 Ry
     ewald contribution        =    -440.09133119 Ry

     convergence has been achieved in  21 iterations

     Forces acting on atoms (cartesian axes, Ry/au):

     atom    1 type  1   force =    -0.03198905    0.01544119   -0.04903720
     atom    2 type  1   force =    -0.02556920    0.01351332    0.04701688
     atom    3 type  1   force =     0.04724732   -0.01024860    0.12317367
     atom    4 type  1   force =     0.02593768   -0.04557614    0.05865442
     atom    5 type  1   force =    -0.00761382    0.05196452    0.02171164
     atom    6 type  1   force =     0.02997380    0.08620387    0.05531953
     atom    7 type  1   force =    -0.00320426   -0.00277113   -0.01840186
     atom    8 type  1   force =    -0.00545637    0.03013979   -0.01728680
     atom    9 type  1   force =    -0.02650924    0.07455957   -0.06817982
     atom   10 type  1   force =     0.07053250   -0.01588941   -0.04498427
     atom   11 type  1   force =     0.01887609    0.00812236   -0.02779951
     atom   12 type  1   force =    -0.05329547    0.06148145   -0.03244892
     atom   13 type  1   force =    -0.03669338    0.02597996   -0.00107578
     atom   14 type  1   force =    -0.06818111    0.09478114    0.00821145
     atom   15 type  1   force =    -0.00819667   -0.01898458   -0.02153208
     atom   16 type  1   force =     0.09026457    0.11522235   -0.08391521
     atom   17 type  1   force =    -0.01774686    0.02907163   -0.10838562
     atom   18 type  1   force =    -0.00394839    0.00500862    0.01070852
     atom   19 type  1   force =     0.04567292   -0.00546641    0.03964354
     atom   20 type  1   force =     0.01259303    0.00834546    0.02334801
     atom   21 type  1   force =     0.04230442   -0.04801702    0.00365560
     atom   22 type  1   force =    -0.02652098    0.08474211    0.00496503
     atom   23 type  1   force =     0.00944911    0.04424250   -0.04803435
     atom   24 type  1   force =    -0.01744614   -0.12333717    0.02220532
     atom   25 type  1   force =     0.02382434    0.00106503    0.01042622
     atom   26 type  1   force =     0.06530111    0.00297347    0.02767063
     atom   27 type  1   force =     0.01568726    0.02078386    0.00727363
     atom   28 type  1   force =    -0.00134593   -0.01002512   -0.00992816
     atom   29 type  1   force =    -0.04676897   -0.06821478   -0.05183146
     atom   30 type  1   force =    -0.02343972   -0.02637457   -0.03202859
     atom   31 type  1   force =     0.00556291   -0.01434025    0.04906506
     atom   32 type  1   force =     0.03502763    0.04513388   -0.04133975
     atom   33 type  1   force =    -0.05804138    0.06348319    0.00425899
     atom   34 type  1   force =    -0.03684727    0.00199228    0.02570691
     atom   35 type  1   force =    -0.02867099   -0.03147350   -0.01224837
     atom   36 type  1   force =    -0.01488000   -0.02579453    0.03379087
     atom   37 type  1   force =     0.02602739   -0.14824030    0.03791071
     atom   38 type  1   force =    -0.01535062   -0.01327881    0.00511715
     atom   39 type  1   force =    -0.00695088   -0.01964072   -0.00505483
     atom   40 type  1   force =    -0.05595706    0.00807217   -0.00674600
     atom   41 type  1   force =     0.03687847    0.02054382    0.01386490
     atom   42 type  1   force =    -0.08132396   -0.07129494    0.00337461
     atom   43 type  1   force =     0.03476666   -0.02410878    0.03251531
     atom   44 type  1   force =     0.02573195   -0.04903219   -0.03455789
     atom   45 type  1   force =     0.02376224    0.00611217   -0.02208532
     atom   46 type  1   force =     0.03192401    0.01722658   -0.04221549
     atom   47 type  1   force =    -0.01739342   -0.00050982   -0.02999846
     atom   48 type  1   force =    -0.00312394   -0.02437453   -0.01718972
     atom   49 type  1   force =     0.03181677    0.03267937   -0.00933560
     atom   50 type  1   force =     0.00167306    0.01524372    0.02855404
     atom   51 type  1   force =    -0.03578129   -0.08483621    0.01058195
     atom   52 type  1   force =     0.03437911    0.07327405   -0.00432516
     atom   53 type  1   force =    -0.03486814    0.01089262   -0.06114645
     atom   54 type  1   force =    -0.08730086   -0.13281071    0.10758192
     atom   55 type  1   force =    -0.02475427   -0.06003622   -0.04736691
     atom   56 type  1   force =    -0.06610244   -0.00373168   -0.00061401
     atom   57 type  1   force =     0.05308841    0.02975889    0.03138935
     atom   58 type  1   force =    -0.05182197    0.00732564    0.02735908
     atom   59 type  1   force =     0.03443671    0.05023689   -0.02449513
     atom   60 type  1   force =     0.02046595    0.03568313    0.05259141
     atom   61 type  1   force =     0.05682425   -0.10388929    0.02768817
     atom   62 type  1   force =    -0.00131816    0.02390268    0.01446067
     atom   63 type  1   force =     0.08397838   -0.01266975   -0.00511947
     atom   64 type  1   force =    -0.00959581   -0.02023614    0.00891301

     Total force =     0.612297     Total SCF correction =     0.001770


     Computing stress (Cartesian axis) and pressure

          total   stress  (Ry/bohr**3)                   (kbar)     P=       23.85
   0.00014963   0.00001873   0.00001943           22.01        2.76        2.86
   0.00001873   0.00016585  -0.00011564            2.76       24.40      -17.01
   0.00001943  -0.00011564   0.00017092            2.86      -17.01       25.14

 
     init_run     :      1.06s CPU      4.85s WALL (       1 calls)
     electrons    :      2.15s CPU      2.44s WALL (       1 calls)
     forces       :      0.03s CPU      0.04s WALL (       1 calls)
     stress       :      0.17s CPU      0.18s WALL (       1 calls)

     Called by init_run:
     wfcinit      :      0.53s CPU      4.17s WALL (       1 calls)
                                        4.17s GPU  (       1 calls)
     potinit      :      0.04s CPU      0.13s WALL (       1 calls)
     hinit0       :      0.46s CPU      0.48s WALL (       1 calls)

     Called by electrons:
     c_bands      :      1.26s CPU      1.37s WALL (      22 calls)
     sum_band     :      0.43s CPU      0.48s WALL (      22 calls)
     v_of_rho     :      0.19s CPU      0.28s WALL (      22 calls)
     mix_rho      :      0.22s CPU      0.33s WALL (      22 calls)

     Called by c_bands:
     init_us_2    :      0.06s CPU      0.06s WALL (      45 calls)
     init_us_2:gp :      0.06s CPU      0.06s WALL (      45 calls)
     regterg      :      1.08s CPU      1.17s WALL (      22 calls)

     Called by *egterg:
     rdiaghg      :      0.37s CPU      1.25s WALL (      84 calls)
                                        1.24s GPU  (      84 calls)
     h_psi        :      1.05s CPU      3.86s WALL (      86 calls)
                                        3.86s GPU  (      86 calls)
     g_psi        :      0.00s CPU      0.00s WALL (      63 calls)
                                        0.00s GPU  (      63 calls)

     Called by h_psi:
     h_psi:calbec :      0.51s CPU      3.23s WALL (      86 calls)
                                        3.23s GPU  (      86 calls)
     vloc_psi     :      0.49s CPU      0.57s WALL (      86 calls)
                                        0.57s GPU  (      86 calls)
     add_vuspsi   :      0.03s CPU      0.05s WALL (      86 calls)
                                        0.05s GPU  (      86 calls)

     General routines
     calbec       :      0.51s CPU      3.23s WALL (      91 calls)
     fft          :      0.63s CPU      0.74s WALL (     183 calls)
                                        0.12s GPU  (     116 calls)
     ffts         :      0.05s CPU      0.06s WALL (      22 calls)
     fftw         :      0.59s CPU      0.76s WALL (    2270 calls)
                                        0.65s GPU  (    2270 calls)
 
     Parallel routines
 
     PWSCF        :      3.46s CPU      7.59s WALL

 
   This run was terminated on:  14:11: 6  10May2023            

=------------------------------------------------------------------------------=
   JOB DONE.
=------------------------------------------------------------------------------=
