An instance of this daemon is already running
An instance of this daemon is already running
An instance of this daemon is already running

     Program PWSCF v.7.1 starts on 10May2023 at 14: 5:35 

     This program is part of the open-source Quantum ESPRESSO suite
     for quantum simulation of materials; please cite
         "P. Giannozzi et al., J. Phys.:Condens. Matter 21 395502 (2009);
         "P. Giannozzi et al., J. Phys.:Condens. Matter 29 465901 (2017);
         "P. Giannozzi et al., J. Chem. Phys. 152 154105 (2020);
          URL http://www.quantum-espresso.org", 
     in publications or presentations arising from this work. More details at
     http://www.quantum-espresso.org/quote

     Parallel version (MPI & OpenMP), running on       4 processor cores
     Number of MPI processes:                 4
     Threads/MPI process:                     1

     MPI processes distributed on     1 nodes
     123019 MiB available memory on the printing compute node when the environment starts
 
     Reading input from pw-si-49.in
Warning: card &CELL ignored
Warning: card / ignored

     Current dimensions of program PWSCF are:
     Max number of different atomic species (ntypx) = 10
     Max number of k-points (npk) =  40000
     Max angular momentum in pseudopotentials (lmaxx) =  4

     IMPORTANT: XC functional enforced from input :
     Exchange-correlation= PBE
                           (   1   4   3   4   0   0   0)
     Any further DFT definition will be discarded
     Please, verify this is what you really want


     gamma-point specific algorithms are used
 
     K-points division:     npool     =       2
     R & G space division:  proc/nbgrp/npool/nimage =       2
     Subspace diagonalization in iterative solution of the eigenvalue problem:
     a serial algorithm will be used

     Message from routine divide_et_impera:
     suboptimal parallelization: some nodes have no k-points
 
     Parallelization info
     --------------------
     sticks:   dense  smooth     PW     G-vecs:    dense   smooth      PW
     Min        2288    2288    600               116324   116324   15716
     Max        2289    2289    601               116329   116329   15723
     Sum        4577    4577   1201               232653   232653   31439
 
     Using Slab Decomposition
 


     bravais-lattice index     =            0
     lattice parameter (alat)  =      21.8842  a.u.
     unit-cell volume          =   10480.6831 (a.u.)^3
     number of atoms/cell      =           64
     number of atomic types    =            1
     number of electrons       =       256.00
     number of Kohn-Sham states=          154
     kinetic-energy cutoff     =      30.0000  Ry
     charge density cutoff     =     120.0000  Ry
     scf convergence threshold =      1.0E-06
     mixing beta               =       0.5000
     number of iterations used =            8  plain     mixing
     Exchange-correlation= PBE
                           (   1   4   3   4   0   0   0)

     GPU acceleration is ACTIVE.
     GPU-aware MPI enabled

     Message from routine print_cuda_info:
     High GPU oversubscription detected. Are you sure this is what you want?

     celldm(1)=  21.884159  celldm(2)=   0.000000  celldm(3)=   0.000000
     celldm(4)=   0.000000  celldm(5)=   0.000000  celldm(6)=   0.000000

     crystal axes: (cart. coord. in units of alat)
               a(1) = (   1.000000   0.000000   0.000000 )  
               a(2) = (   0.000000   1.000000   0.000000 )  
               a(3) = (   0.000000   0.000000   1.000000 )  

     reciprocal axes: (cart. coord. in units 2 pi/alat)
               b(1) = (  1.000000  0.000000  0.000000 )  
               b(2) = (  0.000000  1.000000  0.000000 )  
               b(3) = (  0.000000  0.000000  1.000000 )  


     PseudoPot. # 1 for Si read from file:
     /home/ppiaggi/pseudos/Si_ONCV_PBE_sr.upf
     MD5 check sum: 8553c464762ac42b85b1eed164b4d029
     Pseudo is Norm-conserving, Zval =  4.0
     Generated using ONCVPSP code by D. R. Hamann
     Using radial grid of 1510 points,  4 beta functions with: 
                l(1) =   0
                l(2) =   0
                l(3) =   1
                l(4) =   1

     atomic species   valence    mass     pseudopotential
        Si             4.00    28.08500     Si( 1.00)

     No symmetry found



   Cartesian axes

     site n.     atom                  positions (alat units)
         1           Si  tau(   1) = (   0.2980940   0.3162340   0.4166660  )
         2           Si  tau(   2) = (   0.3024430   0.4230800   0.9403170  )
         3           Si  tau(   3) = (   0.3250590   0.2491010   0.6801970  )
         4           Si  tau(   4) = (   0.6893850   0.2644580   0.1754190  )
         5           Si  tau(   5) = (   0.3176030   0.1940230   0.0792897  )
         6           Si  tau(   6) = (   0.9232010   0.7096780   0.5043560  )
         7           Si  tau(   7) = (   0.2885020   0.4156860   0.1310880  )
         8           Si  tau(   8) = (   0.9761610   0.7408560   0.3343370  )
         9           Si  tau(   9) = (   0.7800420   0.4233800   0.0843347  )
        10           Si  tau(  10) = (   0.9181110   0.9683580   0.6102550  )
        11           Si  tau(  11) = (   0.7618380   0.9466940   0.9630940  )
        12           Si  tau(  12) = (   0.1836840   0.9629330   0.8032010  )
        13           Si  tau(  13) = (   0.0889974   0.4918200   0.7066540  )
        14           Si  tau(  14) = (   0.5815460   0.6693190   0.8144230  )
        15           Si  tau(  15) = (   0.8132340   0.6856520   0.2022090  )
        16           Si  tau(  16) = (   0.8378730   0.0785527   0.1050170  )
        17           Si  tau(  17) = (   0.5156880   0.1523160   0.7349980  )
        18           Si  tau(  18) = (   0.3989780   0.2687570   0.2440560  )
        19           Si  tau(  19) = (   0.1789630   0.1758530   0.7359240  )
        20           Si  tau(  20) = (   0.3844940   0.7845730   0.4282380  )
        21           Si  tau(  21) = (   0.1444830   0.7208090   0.2220700  )
        22           Si  tau(  22) = (   0.2305710   0.6114600   0.6339340  )
        23           Si  tau(  23) = (   0.1619270   0.3518220   0.5531930  )
        24           Si  tau(  24) = (   0.5776490   0.8866410   0.8669660  )
        25           Si  tau(  25) = (   0.9414950   0.3728970   0.5296750  )
        26           Si  tau(  26) = (   0.9580710   0.3804930   0.0163480  )
        27           Si  tau(  27) = (   0.4662320   0.4863900   0.1974300  )
        28           Si  tau(  28) = (   0.6194600   0.1186730   0.5453270  )
        29           Si  tau(  29) = (   0.7492810   0.4321370   0.5171050  )
        30           Si  tau(  30) = (   0.3228790   0.6091360   0.1967750  )
        31           Si  tau(  31) = (   0.8594860   0.0378233   0.7913690  )
        32           Si  tau(  32) = (   0.2307500   0.9080790   0.4974430  )
        33           Si  tau(  33) = (   0.6585100   0.0213332   0.7273340  )
        34           Si  tau(  34) = (   0.0910129   0.8554140   0.6630890  )
        35           Si  tau(  35) = (   0.3815200   0.5824160   0.7646020  )
        36           Si  tau(  36) = (   0.7573350   0.2877520   0.3510090  )
        37           Si  tau(  37) = (   0.6833300   0.5120980   0.9105430  )
        38           Si  tau(  38) = (   0.2007860   0.1061420   0.9442990  )
        39           Si  tau(  39) = (   0.7924030   0.8134820   0.3530310  )
        40           Si  tau(  40) = (   0.5827090   0.1661340   0.3113890  )
        41           Si  tau(  41) = (   0.1370680   0.2902620   0.0014381  )
        42           Si  tau(  42) = (   0.5813930   0.8015130   0.4463230  )
        43           Si  tau(  43) = (   0.4768710   0.6394460   0.2825720  )
        44           Si  tau(  44) = (   0.9916720   0.1987920   0.1220720  )
        45           Si  tau(  45) = (   0.0119728   0.6726610   0.6750540  )
        46           Si  tau(  46) = (   0.7912200   0.6341830   0.8075460  )
        47           Si  tau(  47) = (   0.3876590   0.8179660   0.2291930  )
        48           Si  tau(  48) = (   0.3439500   0.4300440   0.5571170  )
        49           Si  tau(  49) = (   0.2184150   0.9123270   0.9831720  )
        50           Si  tau(  50) = (   0.8923300   0.8001980   0.7565100  )
        51           Si  tau(  51) = (   0.3450900   0.8225900   0.7992190  )
        52           Si  tau(  52) = (   0.6289880   0.1053410   0.8969790  )
        53           Si  tau(  53) = (   0.9378550   0.1897340   0.3904400  )
        54           Si  tau(  54) = (   0.8131150   0.8671320   0.1398450  )
        55           Si  tau(  55) = (   0.3125720   0.0041800   0.1222340  )
        56           Si  tau(  56) = (   0.8794340   0.5160000   0.6580480  )
        57           Si  tau(  57) = (   0.5769170   0.7957750   0.6791590  )
        58           Si  tau(  58) = (   0.4851540   0.3511950   0.6829230  )
        59           Si  tau(  59) = (   0.8328340   0.0113266   0.4330830  )
        60           Si  tau(  60) = (   0.2795760   0.9480960   0.3060720  )
        61           Si  tau(  61) = (   0.2218540   0.1489040   0.5301410  )
        62           Si  tau(  62) = (   0.9216730   0.5226730   0.1523520  )
        63           Si  tau(  63) = (   0.4980330   0.4634790   0.8504220  )
        64           Si  tau(  64) = (   0.8928010   0.3326430   0.2289760  )

     number of k points=     1  Fermi-Dirac smearing, width (Ry)=  0.0100
                       cart. coord. in units 2pi/alat
        k(    1) = (   0.0000000   0.0000000   0.0000000), wk =   2.0000000

     Dense  grid:   116327 G-vectors     FFT dimensions: (  80,  80,  80)

     Estimated max dynamical RAM per process >     187.00 MB

     Estimated total dynamical RAM >     719.61 MB

     Initial potential from superposition of free atoms

     starting charge     255.9608, renormalised to     256.0000
     Starting wfcs are  256 randomized atomic wfcs

     total cpu time spent up to now is        4.4 secs

     Self-consistent Calculation

     iteration #  1     ecut=    30.00 Ry     beta= 0.50
     Davidson diagonalization with overlap
     ethr =  1.00E-02,  avg # of iterations =  3.0

     Threshold (ethr) on eigenvalues was too large:
     Diagonalizing with lowered threshold

     Davidson diagonalization with overlap
     ethr =  9.46E-04,  avg # of iterations =  4.0

     total cpu time spent up to now is        4.6 secs

     total energy              =    -499.03025162 Ry
     estimated scf accuracy    <       3.17424971 Ry

     iteration #  2     ecut=    30.00 Ry     beta= 0.50
     Davidson diagonalization with overlap
     ethr =  1.24E-03,  avg # of iterations =  4.0

     total cpu time spent up to now is        4.7 secs

     total energy              =    -498.36371316 Ry
     estimated scf accuracy    <       8.43320879 Ry

     iteration #  3     ecut=    30.00 Ry     beta= 0.50
     Davidson diagonalization with overlap
     ethr =  1.24E-03,  avg # of iterations =  5.0

     total cpu time spent up to now is        4.8 secs

     total energy              =    -499.14182747 Ry
     estimated scf accuracy    <       8.88740135 Ry

     iteration #  4     ecut=    30.00 Ry     beta= 0.50
     Davidson diagonalization with overlap
     ethr =  1.24E-03,  avg # of iterations =  3.0

     total cpu time spent up to now is        4.9 secs

     total energy              =    -499.77027435 Ry
     estimated scf accuracy    <       0.75256272 Ry

     iteration #  5     ecut=    30.00 Ry     beta= 0.50
     Davidson diagonalization with overlap
     ethr =  2.94E-04,  avg # of iterations =  3.0

     total cpu time spent up to now is        5.0 secs

     total energy              =    -499.82101470 Ry
     estimated scf accuracy    <       0.88219362 Ry

     iteration #  6     ecut=    30.00 Ry     beta= 0.50
     Davidson diagonalization with overlap
     ethr =  2.94E-04,  avg # of iterations =  2.0

     total cpu time spent up to now is        5.1 secs

     total energy              =    -499.88945096 Ry
     estimated scf accuracy    <       0.16262736 Ry

     iteration #  7     ecut=    30.00 Ry     beta= 0.50
     Davidson diagonalization with overlap
     ethr =  6.35E-05,  avg # of iterations =  2.0

     total cpu time spent up to now is        5.2 secs

     total energy              =    -499.90389027 Ry
     estimated scf accuracy    <       0.09646338 Ry

     iteration #  8     ecut=    30.00 Ry     beta= 0.50
     Davidson diagonalization with overlap
     ethr =  3.77E-05,  avg # of iterations =  2.0

     total cpu time spent up to now is        5.3 secs

     total energy              =    -499.91124177 Ry
     estimated scf accuracy    <       0.03887557 Ry

     iteration #  9     ecut=    30.00 Ry     beta= 0.50
     Davidson diagonalization with overlap
     ethr =  1.52E-05,  avg # of iterations =  2.0

     total cpu time spent up to now is        5.4 secs

     total energy              =    -499.91450678 Ry
     estimated scf accuracy    <       0.00951165 Ry

     iteration # 10     ecut=    30.00 Ry     beta= 0.50
     Davidson diagonalization with overlap
     ethr =  3.72E-06,  avg # of iterations = 19.0

     total cpu time spent up to now is        5.6 secs

     total energy              =    -499.91504714 Ry
     estimated scf accuracy    <       0.01550835 Ry

     iteration # 11     ecut=    30.00 Ry     beta= 0.50
     Davidson diagonalization with overlap
     ethr =  3.72E-06,  avg # of iterations =  2.0

     total cpu time spent up to now is        5.7 secs

     total energy              =    -499.91612822 Ry
     estimated scf accuracy    <       0.00162849 Ry

     iteration # 12     ecut=    30.00 Ry     beta= 0.50
     Davidson diagonalization with overlap
     ethr =  6.36E-07,  avg # of iterations =  3.0

     total cpu time spent up to now is        5.8 secs

     total energy              =    -499.91630755 Ry
     estimated scf accuracy    <       0.00076777 Ry

     iteration # 13     ecut=    30.00 Ry     beta= 0.50
     Davidson diagonalization with overlap
     ethr =  3.00E-07,  avg # of iterations =  4.0

     total cpu time spent up to now is        5.9 secs

     total energy              =    -499.91638119 Ry
     estimated scf accuracy    <       0.00082562 Ry

     iteration # 14     ecut=    30.00 Ry     beta= 0.50
     Davidson diagonalization with overlap
     ethr =  3.00E-07,  avg # of iterations =  2.0

     total cpu time spent up to now is        6.0 secs

     total energy              =    -499.91643050 Ry
     estimated scf accuracy    <       0.00012594 Ry

     iteration # 15     ecut=    30.00 Ry     beta= 0.50
     Davidson diagonalization with overlap
     ethr =  4.92E-08,  avg # of iterations =  3.0

     total cpu time spent up to now is        6.1 secs

     total energy              =    -499.91644307 Ry
     estimated scf accuracy    <       0.00012966 Ry

     iteration # 16     ecut=    30.00 Ry     beta= 0.50
     Davidson diagonalization with overlap
     ethr =  4.92E-08,  avg # of iterations =  2.0

     total cpu time spent up to now is        6.2 secs

     total energy              =    -499.91645127 Ry
     estimated scf accuracy    <       0.00005654 Ry

     iteration # 17     ecut=    30.00 Ry     beta= 0.50
     Davidson diagonalization with overlap
     ethr =  2.21E-08,  avg # of iterations =  2.0

     total cpu time spent up to now is        6.3 secs

     total energy              =    -499.91645538 Ry
     estimated scf accuracy    <       0.00001510 Ry

     iteration # 18     ecut=    30.00 Ry     beta= 0.50
     Davidson diagonalization with overlap
     ethr =  5.90E-09,  avg # of iterations =  4.0

     total cpu time spent up to now is        6.5 secs

     total energy              =    -499.91645674 Ry
     estimated scf accuracy    <       0.00002125 Ry

     iteration # 19     ecut=    30.00 Ry     beta= 0.50
     Davidson diagonalization with overlap
     ethr =  5.90E-09,  avg # of iterations =  2.0

     total cpu time spent up to now is        6.5 secs

     total energy              =    -499.91645807 Ry
     estimated scf accuracy    <       0.00000482 Ry

     iteration # 20     ecut=    30.00 Ry     beta= 0.50
     Davidson diagonalization with overlap
     ethr =  1.88E-09,  avg # of iterations =  2.0

     total cpu time spent up to now is        6.6 secs

     End of self-consistent calculation

          k = 0.0000 0.0000 0.0000 ( 14496 PWs)   bands (ev):

    -8.5325  -8.3986  -8.1698  -7.9081  -7.6744  -7.6562  -7.2639  -7.1396
    -7.0385  -6.8020  -6.5480  -6.3025  -6.2579  -6.0317  -5.9073  -5.6620
    -5.5196  -5.4324  -5.0727  -5.0498  -4.9765  -4.7751  -4.5922  -4.4617
    -4.3704  -4.2442  -4.0473  -3.9812  -3.8515  -3.8046  -3.6321  -3.4677
    -3.4053  -3.1800  -3.0805  -2.9115  -2.8215  -2.6909  -2.6274  -2.5219
    -2.3784  -2.2332  -2.0951  -2.0310  -1.9727  -1.8444  -1.6591  -1.5284
    -1.4829  -1.3082  -1.2094  -1.1611  -1.1081  -0.9012  -0.7717  -0.6811
    -0.6175  -0.5357  -0.4345  -0.2985  -0.1885  -0.0350   0.0334   0.1458
     0.1895   0.2890   0.3651   0.4336   0.5269   0.5691   0.6721   0.6956
     0.7740   0.8499   0.9420   1.0426   1.0838   1.0987   1.1519   1.2928
     1.3755   1.4706   1.5056   1.5784   1.6192   1.6755   1.6998   1.8069
     1.9214   1.9721   2.0306   2.0732   2.1522   2.1862   2.2712   2.3951
     2.4350   2.5726   2.5954   2.6031   2.7446   2.8077   2.9002   2.9442
     2.9548   3.0218   3.0557   3.1531   3.2179   3.3234   3.3678   3.4477
     3.5174   3.5577   3.6251   3.6358   3.7460   3.8131   3.9057   3.9629
     4.0554   4.1090   4.1608   4.1989   4.2449   4.2813   4.3456   4.4028
     4.4812   4.5476   4.5961   4.6944   4.7898   4.8234   4.8780   4.9183
     5.0087   5.0508   5.0877   5.1828   5.1879   5.2620   5.3751   5.4671
     5.4689   5.5209   5.6625   5.7339   5.7753   5.8437   5.8676   5.9289
     6.0015   6.0576

     the Fermi energy is     4.4591 ev

!    total energy              =    -499.91645799 Ry
     estimated scf accuracy    <       0.00000097 Ry
     smearing contrib. (-TS)   =      -0.14544358 Ry
     internal energy E=F+TS    =    -499.77101441 Ry

     The total energy is F=E-TS. E is the sum of the following terms:
     one-electron contribution =     -20.37619646 Ry
     hartree contribution      =     102.70756779 Ry
     xc contribution           =    -151.43218539 Ry
     ewald contribution        =    -430.67020035 Ry

     convergence has been achieved in  20 iterations

     Forces acting on atoms (cartesian axes, Ry/au):

     atom    1 type  1   force =     0.00180145   -0.06743923   -0.09920896
     atom    2 type  1   force =     0.02331673   -0.00936384   -0.06940533
     atom    3 type  1   force =     0.12243866    0.04178422   -0.03537496
     atom    4 type  1   force =    -0.00406372   -0.02076071   -0.11125943
     atom    5 type  1   force =     0.03781535    0.03998977   -0.00489757
     atom    6 type  1   force =    -0.06375732   -0.00821466    0.08158111
     atom    7 type  1   force =    -0.04221498   -0.00279745    0.05300338
     atom    8 type  1   force =     0.06244317   -0.00473973   -0.10292670
     atom    9 type  1   force =    -0.16241364   -0.00337284   -0.09517959
     atom   10 type  1   force =     0.01519432   -0.04007191    0.01066757
     atom   11 type  1   force =     0.00692493   -0.00914623   -0.02019694
     atom   12 type  1   force =     0.02103871    0.00291933   -0.06894594
     atom   13 type  1   force =    -0.00786723   -0.05674259    0.03969986
     atom   14 type  1   force =    -0.01258230   -0.03859607    0.05573785
     atom   15 type  1   force =     0.01255494   -0.04477581   -0.00629356
     atom   16 type  1   force =    -0.04451724   -0.00826581    0.01856879
     atom   17 type  1   force =    -0.06005479    0.04526236   -0.01572118
     atom   18 type  1   force =     0.01804576    0.02965904    0.02323137
     atom   19 type  1   force =    -0.19205819   -0.08370437    0.07812578
     atom   20 type  1   force =    -0.00636676    0.00056795    0.04287861
     atom   21 type  1   force =     0.04484500    0.02621904   -0.02858360
     atom   22 type  1   force =     0.04899178    0.01678437   -0.03585586
     atom   23 type  1   force =    -0.10745972   -0.00913039    0.03962159
     atom   24 type  1   force =    -0.03553633   -0.00678333    0.01705063
     atom   25 type  1   force =     0.02936076   -0.04804087   -0.02391558
     atom   26 type  1   force =     0.01874958   -0.01753205   -0.05141468
     atom   27 type  1   force =     0.08142880   -0.19322117   -0.07157599
     atom   28 type  1   force =     0.01790702   -0.01234754   -0.01896293
     atom   29 type  1   force =    -0.01586920   -0.00408179   -0.02308705
     atom   30 type  1   force =    -0.21726571    0.01731229   -0.06367559
     atom   31 type  1   force =    -0.01407260   -0.01071542    0.01915094
     atom   32 type  1   force =    -0.02183648    0.03018321    0.02004276
     atom   33 type  1   force =     0.08172670   -0.07995483   -0.09285235
     atom   34 type  1   force =     0.01860572    0.03109552   -0.06673551
     atom   35 type  1   force =    -0.04937530    0.07655199   -0.01075985
     atom   36 type  1   force =    -0.04690837   -0.00480137    0.16118505
     atom   37 type  1   force =     0.00737094   -0.03202202    0.05479281
     atom   38 type  1   force =    -0.01220985    0.04351264   -0.01590701
     atom   39 type  1   force =    -0.06427770    0.07358079    0.05252427
     atom   40 type  1   force =    -0.01968788   -0.01654575    0.02154717
     atom   41 type  1   force =     0.02464005    0.00981384   -0.00269155
     atom   42 type  1   force =     0.02482972   -0.01000186    0.02831756
     atom   43 type  1   force =     0.16729209    0.17463868    0.17519544
     atom   44 type  1   force =     0.04075909   -0.01537423    0.00842947
     atom   45 type  1   force =     0.05065574   -0.00087222   -0.00193483
     atom   46 type  1   force =     0.01148864    0.00272877   -0.02820544
     atom   47 type  1   force =     0.04893400   -0.05122179   -0.08864088
     atom   48 type  1   force =     0.07378075    0.09850524    0.05122310
     atom   49 type  1   force =    -0.01642862   -0.10706610    0.03143918
     atom   50 type  1   force =    -0.05145466    0.06293889    0.03025103
     atom   51 type  1   force =     0.04512567   -0.01082163    0.00473548
     atom   52 type  1   force =    -0.02769013    0.03215667    0.07368146
     atom   53 type  1   force =     0.00116606   -0.01154956    0.01289761
     atom   54 type  1   force =     0.00057747    0.05485602   -0.00302903
     atom   55 type  1   force =     0.03633762    0.00037811    0.01939900
     atom   56 type  1   force =    -0.02068174    0.00087415   -0.00151842
     atom   57 type  1   force =    -0.01298193    0.07928705   -0.10500331
     atom   58 type  1   force =     0.08720539    0.04161854   -0.00902094
     atom   59 type  1   force =    -0.02852304    0.01397078    0.00555851
     atom   60 type  1   force =    -0.08894083    0.04474124    0.06485242
     atom   61 type  1   force =    -0.00202839   -0.04368779   -0.02323030
     atom   62 type  1   force =     0.07602126    0.04079798    0.05933295
     atom   63 type  1   force =     0.01831880   -0.07873126    0.05289010
     atom   64 type  1   force =     0.07143196    0.02976571   -0.01160198

     Total force =     0.807470     Total SCF correction =     0.001618


     Computing stress (Cartesian axis) and pressure

          total   stress  (Ry/bohr**3)                   (kbar)     P=       41.63
   0.00026751   0.00001862   0.00002363           39.35        2.74        3.48
   0.00001862   0.00027202   0.00003874            2.74       40.02        5.70
   0.00002363   0.00003874   0.00030955            3.48        5.70       45.54

 
     init_run     :      0.93s CPU      4.30s WALL (       1 calls)
     electrons    :      2.12s CPU      2.27s WALL (       1 calls)
     forces       :      0.04s CPU      0.04s WALL (       1 calls)
     stress       :      0.17s CPU      0.18s WALL (       1 calls)

     Called by init_run:
     wfcinit      :      0.42s CPU      3.64s WALL (       1 calls)
                                        3.64s GPU  (       1 calls)
     potinit      :      0.04s CPU      0.12s WALL (       1 calls)
     hinit0       :      0.45s CPU      0.48s WALL (       1 calls)

     Called by electrons:
     c_bands      :      1.30s CPU      1.36s WALL (      21 calls)
     sum_band     :      0.40s CPU      0.45s WALL (      21 calls)
     v_of_rho     :      0.17s CPU      0.26s WALL (      21 calls)
     mix_rho      :      0.20s CPU      0.22s WALL (      21 calls)

     Called by c_bands:
     init_us_2    :      0.05s CPU      0.06s WALL (      43 calls)
     init_us_2:gp :      0.05s CPU      0.06s WALL (      43 calls)
     regterg      :      1.13s CPU      1.18s WALL (      21 calls)

     Called by *egterg:
     rdiaghg      :      0.42s CPU      1.07s WALL (      95 calls)
                                        1.05s GPU  (      95 calls)
     h_psi        :      0.92s CPU      3.53s WALL (      97 calls)
                                        3.53s GPU  (      97 calls)
     g_psi        :      0.00s CPU      0.00s WALL (      75 calls)
                                        0.00s GPU  (      75 calls)

     Called by h_psi:
     h_psi:calbec :      0.39s CPU      2.91s WALL (      97 calls)
                                        2.91s GPU  (      97 calls)
     vloc_psi     :      0.48s CPU      0.56s WALL (      97 calls)
                                        0.55s GPU  (      97 calls)
     add_vuspsi   :      0.03s CPU      0.06s WALL (      97 calls)
                                        0.06s GPU  (      97 calls)

     General routines
     calbec       :      0.39s CPU      2.91s WALL (     102 calls)
     fft          :      0.60s CPU      0.71s WALL (     175 calls)
                                        0.11s GPU  (     111 calls)
     ffts         :      0.05s CPU      0.05s WALL (      21 calls)
     fftw         :      0.56s CPU      0.74s WALL (    2201 calls)
                                        0.64s GPU  (    2201 calls)
 
     Parallel routines
 
     PWSCF        :      3.30s CPU      6.86s WALL

 
   This run was terminated on:  14: 5:42  10May2023            

=------------------------------------------------------------------------------=
   JOB DONE.
=------------------------------------------------------------------------------=
