An instance of this daemon is already running
An instance of this daemon is already running

     Program PWSCF v.7.1 starts on 10May2023 at 14:13:17 

     This program is part of the open-source Quantum ESPRESSO suite
     for quantum simulation of materials; please cite
         "P. Giannozzi et al., J. Phys.:Condens. Matter 21 395502 (2009);
         "P. Giannozzi et al., J. Phys.:Condens. Matter 29 465901 (2017);
         "P. Giannozzi et al., J. Chem. Phys. 152 154105 (2020);
          URL http://www.quantum-espresso.org", 
     in publications or presentations arising from this work. More details at
     http://www.quantum-espresso.org/quote

     Parallel version (MPI & OpenMP), running on       4 processor cores
     Number of MPI processes:                 4
     Threads/MPI process:                     1

     MPI processes distributed on     1 nodes
     247597 MiB available memory on the printing compute node when the environment starts
 
     Reading input from pw-si-93.in
Warning: card &CELL ignored
Warning: card / ignored

     Current dimensions of program PWSCF are:
     Max number of different atomic species (ntypx) = 10
     Max number of k-points (npk) =  40000
     Max angular momentum in pseudopotentials (lmaxx) =  4

     IMPORTANT: XC functional enforced from input :
     Exchange-correlation= PBE
                           (   1   4   3   4   0   0   0)
     Any further DFT definition will be discarded
     Please, verify this is what you really want


     gamma-point specific algorithms are used
 
     K-points division:     npool     =       2
     R & G space division:  proc/nbgrp/npool/nimage =       2
     Subspace diagonalization in iterative solution of the eigenvalue problem:
     a serial algorithm will be used

     Message from routine divide_et_impera:
     suboptimal parallelization: some nodes have no k-points
 
     Parallelization info
     --------------------
     sticks:   dense  smooth     PW     G-vecs:    dense   smooth      PW
     Min        2268    2268    600               115192   115192   15668
     Max        2269    2269    601               115197   115197   15675
     Sum        4537    4537   1201               230389   230389   31343
 
     Using Slab Decomposition
 


     bravais-lattice index     =            0
     lattice parameter (alat)  =      21.8242  a.u.
     unit-cell volume          =   10394.7549 (a.u.)^3
     number of atoms/cell      =           64
     number of atomic types    =            1
     number of electrons       =       256.00
     number of Kohn-Sham states=          154
     kinetic-energy cutoff     =      30.0000  Ry
     charge density cutoff     =     120.0000  Ry
     scf convergence threshold =      1.0E-06
     mixing beta               =       0.5000
     number of iterations used =            8  plain     mixing
     Exchange-correlation= PBE
                           (   1   4   3   4   0   0   0)

     GPU acceleration is ACTIVE.
     GPU-aware MPI enabled

     Message from routine print_cuda_info:
     High GPU oversubscription detected. Are you sure this is what you want?

     celldm(1)=  21.824188  celldm(2)=   0.000000  celldm(3)=   0.000000
     celldm(4)=   0.000000  celldm(5)=   0.000000  celldm(6)=   0.000000

     crystal axes: (cart. coord. in units of alat)
               a(1) = (   1.000000   0.000000   0.000000 )  
               a(2) = (   0.000000   1.000000   0.000000 )  
               a(3) = (   0.000000   0.000000   1.000000 )  

     reciprocal axes: (cart. coord. in units 2 pi/alat)
               b(1) = (  1.000000  0.000000  0.000000 )  
               b(2) = (  0.000000  1.000000  0.000000 )  
               b(3) = (  0.000000  0.000000  1.000000 )  


     PseudoPot. # 1 for Si read from file:
     /home/ppiaggi/pseudos/Si_ONCV_PBE_sr.upf
     MD5 check sum: 8553c464762ac42b85b1eed164b4d029
     Pseudo is Norm-conserving, Zval =  4.0
     Generated using ONCVPSP code by D. R. Hamann
     Using radial grid of 1510 points,  4 beta functions with: 
                l(1) =   0
                l(2) =   0
                l(3) =   1
                l(4) =   1

     atomic species   valence    mass     pseudopotential
        Si             4.00    28.08500     Si( 1.00)

     No symmetry found



   Cartesian axes

     site n.     atom                  positions (alat units)
         1           Si  tau(   1) = (   0.1048270   0.2474030   0.3081940  )
         2           Si  tau(   2) = (   0.3371710   0.3905670   0.0084670  )
         3           Si  tau(   3) = (   0.6851770   0.3002270   0.6874230  )
         4           Si  tau(   4) = (   0.6713430   0.2269660   0.2156090  )
         5           Si  tau(   5) = (   0.3368650   0.0519004   0.1466370  )
         6           Si  tau(   6) = (   0.8221520   0.8773940   0.3477040  )
         7           Si  tau(   7) = (   0.2871430   0.3597480   0.2212070  )
         8           Si  tau(   8) = (   0.0452747   0.8525720   0.2076590  )
         9           Si  tau(   9) = (   0.7592960   0.3430140   0.0827103  )
        10           Si  tau(  10) = (   0.8399140   0.0085688   0.6685660  )
        11           Si  tau(  11) = (   0.7341630   0.8431110   0.9291440  )
        12           Si  tau(  12) = (   0.2391000   0.0159569   0.7626180  )
        13           Si  tau(  13) = (   0.0563845   0.4562740   0.5880290  )
        14           Si  tau(  14) = (   0.6050040   0.6462200   0.8512590  )
        15           Si  tau(  15) = (   0.9315630   0.6784940   0.2394210  )
        16           Si  tau(  16) = (   0.9433710   0.0027115   0.0915773  )
        17           Si  tau(  17) = (   0.5779790   0.3928310   0.5314560  )
        18           Si  tau(  18) = (   0.3245900   0.1683820   0.3342690  )
        19           Si  tau(  19) = (   0.2566330   0.2287260   0.6966950  )
        20           Si  tau(  20) = (   0.4032720   0.8953650   0.4642390  )
        21           Si  tau(  21) = (   0.1448950   0.6695140   0.2472460  )
        22           Si  tau(  22) = (   0.2307210   0.6299580   0.7492080  )
        23           Si  tau(  23) = (   0.2399070   0.3951070   0.5346400  )
        24           Si  tau(  24) = (   0.5405540   0.8185690   0.9364410  )
        25           Si  tau(  25) = (   0.9110550   0.3302630   0.4565510  )
        26           Si  tau(  26) = (   0.9842680   0.3103800   0.1350620  )
        27           Si  tau(  27) = (   0.4520440   0.5097990   0.2854880  )
        28           Si  tau(  28) = (   0.8151030   0.1940010   0.5939730  )
        29           Si  tau(  29) = (   0.7431640   0.5865200   0.2910000  )
        30           Si  tau(  30) = (   0.2973510   0.5619620   0.1834100  )
        31           Si  tau(  31) = (   0.8513250   0.8208370   0.7474140  )
        32           Si  tau(  32) = (   0.2213800   0.9604000   0.5214480  )
        33           Si  tau(  33) = (   0.7062620   0.1070420   0.7687820  )
        34           Si  tau(  34) = (   0.1030940   0.8870930   0.6502700  )
        35           Si  tau(  35) = (   0.3681270   0.4987790   0.8219680  )
        36           Si  tau(  36) = (   0.7668050   0.4571710   0.4482400  )
        37           Si  tau(  37) = (   0.7247760   0.4895120   0.9373030  )
        38           Si  tau(  38) = (   0.1772680   0.1892190   0.8766870  )
        39           Si  tau(  39) = (   0.6630250   0.7964870   0.2620560  )
        40           Si  tau(  40) = (   0.4879490   0.3046010   0.3903000  )
        41           Si  tau(  41) = (   0.1459560   0.3272380   0.0406812  )
        42           Si  tau(  42) = (   0.5581310   0.8634680   0.6381200  )
        43           Si  tau(  43) = (   0.3309110   0.7000170   0.3146290  )
        44           Si  tau(  44) = (   0.0012856   0.1960080   0.9747300  )
        45           Si  tau(  45) = (   0.0331580   0.6494900   0.6196120  )
        46           Si  tau(  46) = (   0.8074980   0.6295150   0.8096460  )
        47           Si  tau(  47) = (   0.1801140   0.8585330   0.3348620  )
        48           Si  tau(  48) = (   0.2018410   0.4083850   0.7370650  )
        49           Si  tau(  49) = (   0.4081490   0.9255400   0.8212510  )
        50           Si  tau(  50) = (   0.0451167   0.7687520   0.7897600  )
        51           Si  tau(  51) = (   0.2305570   0.8398820   0.8138290  )
        52           Si  tau(  52) = (   0.6088990   0.9956930   0.9038870  )
        53           Si  tau(  53) = (   0.6817430   0.2631370   0.4066310  )
        54           Si  tau(  54) = (   0.8373390   0.8154100   0.1298140  )
        55           Si  tau(  55) = (   0.3778700   0.8874040   0.0396778  )
        56           Si  tau(  56) = (   0.8767140   0.5359840   0.6522770  )
        57           Si  tau(  57) = (   0.7697120   0.8486180   0.5766560  )
        58           Si  tau(  58) = (   0.5040510   0.3427740   0.7608980  )
        59           Si  tau(  59) = (   0.6355720   0.9052310   0.4340860  )
        60           Si  tau(  60) = (   0.3538310   0.8817940   0.2507630  )
        61           Si  tau(  61) = (   0.2292750   0.1862390   0.4944030  )
        62           Si  tau(  62) = (   0.8889400   0.4779190   0.2121600  )
        63           Si  tau(  63) = (   0.5328630   0.4898970   0.9530760  )
        64           Si  tau(  64) = (   0.8024050   0.1583430   0.0890055  )

     number of k points=     1  Fermi-Dirac smearing, width (Ry)=  0.0100
                       cart. coord. in units 2pi/alat
        k(    1) = (   0.0000000   0.0000000   0.0000000), wk =   2.0000000

     Dense  grid:   115195 G-vectors     FFT dimensions: (  80,  80,  80)

     Estimated max dynamical RAM per process >     185.61 MB

     Estimated total dynamical RAM >     714.32 MB

     Initial potential from superposition of free atoms

     starting charge     255.9608, renormalised to     256.0000
     Starting wfcs are  256 randomized atomic wfcs

     total cpu time spent up to now is        4.3 secs

     Self-consistent Calculation

     iteration #  1     ecut=    30.00 Ry     beta= 0.50
     Davidson diagonalization with overlap
     ethr =  1.00E-02,  avg # of iterations =  3.0

     Threshold (ethr) on eigenvalues was too large:
     Diagonalizing with lowered threshold

     Davidson diagonalization with overlap
     ethr =  8.21E-04,  avg # of iterations =  4.0

     total cpu time spent up to now is        4.5 secs

     total energy              =    -499.45669557 Ry
     estimated scf accuracy    <       2.74122622 Ry

     iteration #  2     ecut=    30.00 Ry     beta= 0.50
     Davidson diagonalization with overlap
     ethr =  1.07E-03,  avg # of iterations =  3.0

     total cpu time spent up to now is        4.6 secs

     total energy              =    -498.74865122 Ry
     estimated scf accuracy    <       7.50827798 Ry

     iteration #  3     ecut=    30.00 Ry     beta= 0.50
     Davidson diagonalization with overlap
     ethr =  1.07E-03,  avg # of iterations =  4.0

     total cpu time spent up to now is        4.8 secs

     total energy              =    -499.38713353 Ry
     estimated scf accuracy    <       9.93739434 Ry

     iteration #  4     ecut=    30.00 Ry     beta= 0.50
     Davidson diagonalization with overlap
     ethr =  1.07E-03,  avg # of iterations =  2.0

     total cpu time spent up to now is        4.9 secs

     total energy              =    -500.00344630 Ry
     estimated scf accuracy    <       0.94963201 Ry

     iteration #  5     ecut=    30.00 Ry     beta= 0.50
     Davidson diagonalization with overlap
     ethr =  3.71E-04,  avg # of iterations =  2.0

     total cpu time spent up to now is        5.0 secs

     total energy              =    -500.09648355 Ry
     estimated scf accuracy    <       0.45797900 Ry

     iteration #  6     ecut=    30.00 Ry     beta= 0.50
     Davidson diagonalization with overlap
     ethr =  1.79E-04,  avg # of iterations =  2.0

     total cpu time spent up to now is        5.0 secs

     total energy              =    -500.13434987 Ry
     estimated scf accuracy    <       0.22451286 Ry

     iteration #  7     ecut=    30.00 Ry     beta= 0.50
     Davidson diagonalization with overlap
     ethr =  8.77E-05,  avg # of iterations =  2.0

     total cpu time spent up to now is        5.1 secs

     total energy              =    -500.15240551 Ry
     estimated scf accuracy    <       0.06896327 Ry

     iteration #  8     ecut=    30.00 Ry     beta= 0.50
     Davidson diagonalization with overlap
     ethr =  2.69E-05,  avg # of iterations = 11.0

     total cpu time spent up to now is        5.3 secs

     total energy              =    -500.15776714 Ry
     estimated scf accuracy    <       0.05493287 Ry

     iteration #  9     ecut=    30.00 Ry     beta= 0.50
     Davidson diagonalization with overlap
     ethr =  2.15E-05,  avg # of iterations =  2.0

     total cpu time spent up to now is        5.4 secs

     total energy              =    -500.16220261 Ry
     estimated scf accuracy    <       0.00795359 Ry

     iteration # 10     ecut=    30.00 Ry     beta= 0.50
     Davidson diagonalization with overlap
     ethr =  3.11E-06,  avg # of iterations = 12.0

     total cpu time spent up to now is        5.6 secs

     total energy              =    -500.16274622 Ry
     estimated scf accuracy    <       0.00861964 Ry

     iteration # 11     ecut=    30.00 Ry     beta= 0.50
     Davidson diagonalization with overlap
     ethr =  3.11E-06,  avg # of iterations =  2.0

     total cpu time spent up to now is        5.7 secs

     total energy              =    -500.16342657 Ry
     estimated scf accuracy    <       0.00221580 Ry

     iteration # 12     ecut=    30.00 Ry     beta= 0.50
     Davidson diagonalization with overlap
     ethr =  8.66E-07,  avg # of iterations =  2.0

     total cpu time spent up to now is        5.8 secs

     total energy              =    -500.16365915 Ry
     estimated scf accuracy    <       0.00080546 Ry

     iteration # 13     ecut=    30.00 Ry     beta= 0.50
     Davidson diagonalization with overlap
     ethr =  3.15E-07,  avg # of iterations =  2.0

     total cpu time spent up to now is        5.8 secs

     total energy              =    -500.16373208 Ry
     estimated scf accuracy    <       0.00021694 Ry

     iteration # 14     ecut=    30.00 Ry     beta= 0.50
     Davidson diagonalization with overlap
     ethr =  8.47E-08,  avg # of iterations =  2.0

     total cpu time spent up to now is        5.9 secs

     total energy              =    -500.16375504 Ry
     estimated scf accuracy    <       0.00016139 Ry

     iteration # 15     ecut=    30.00 Ry     beta= 0.50
     Davidson diagonalization with overlap
     ethr =  6.30E-08,  avg # of iterations =  2.0

     total cpu time spent up to now is        6.1 secs

     total energy              =    -500.16376547 Ry
     estimated scf accuracy    <       0.00004324 Ry

     iteration # 16     ecut=    30.00 Ry     beta= 0.50
     Davidson diagonalization with overlap
     ethr =  1.69E-08,  avg # of iterations =  4.0

     total cpu time spent up to now is        6.2 secs

     total energy              =    -500.16376756 Ry
     estimated scf accuracy    <       0.00010677 Ry

     iteration # 17     ecut=    30.00 Ry     beta= 0.50
     Davidson diagonalization with overlap
     ethr =  1.69E-08,  avg # of iterations =  2.0

     total cpu time spent up to now is        6.3 secs

     total energy              =    -500.16377444 Ry
     estimated scf accuracy    <       0.00000620 Ry

     iteration # 18     ecut=    30.00 Ry     beta= 0.50
     Davidson diagonalization with overlap
     ethr =  2.42E-09,  avg # of iterations =  4.0

     total cpu time spent up to now is        6.4 secs

     total energy              =    -500.16377517 Ry
     estimated scf accuracy    <       0.00001171 Ry

     iteration # 19     ecut=    30.00 Ry     beta= 0.50
     Davidson diagonalization with overlap
     ethr =  2.42E-09,  avg # of iterations =  2.0

     total cpu time spent up to now is        6.5 secs

     total energy              =    -500.16377594 Ry
     estimated scf accuracy    <       0.00000274 Ry

     iteration # 20     ecut=    30.00 Ry     beta= 0.50
     Davidson diagonalization with overlap
     ethr =  1.07E-09,  avg # of iterations =  2.0

     total cpu time spent up to now is        6.6 secs

     total energy              =    -500.16377621 Ry
     estimated scf accuracy    <       0.00000161 Ry

     iteration # 21     ecut=    30.00 Ry     beta= 0.50
     Davidson diagonalization with overlap
     ethr =  6.27E-10,  avg # of iterations =  2.0

     total cpu time spent up to now is        6.7 secs

     End of self-consistent calculation

          k = 0.0000 0.0000 0.0000 ( 14336 PWs)   bands (ev):

    -8.1404  -7.9058  -7.6545  -7.5013  -7.3657  -7.2347  -7.1382  -6.9586
    -6.8171  -6.5843  -6.4819  -6.3822  -6.1867  -6.0713  -5.9070  -5.7907
    -5.6209  -5.3712  -5.2170  -5.0390  -4.8653  -4.6205  -4.5948  -4.3614
    -4.3155  -4.1524  -3.9749  -3.7829  -3.7587  -3.6653  -3.5180  -3.4460
    -3.2139  -3.1437  -2.9762  -2.8782  -2.7830  -2.6120  -2.4807  -2.4395
    -2.3102  -2.2129  -2.0167  -1.8984  -1.8730  -1.7994  -1.6748  -1.5162
    -1.4306  -1.3296  -1.1840  -1.0971  -0.9420  -0.9262  -0.7922  -0.7409
    -0.5442  -0.3236  -0.2307  -0.1549  -0.0582   0.0836   0.0934   0.2513
     0.3237   0.3903   0.5157   0.5819   0.6662   0.6753   0.7303   0.7558
     0.8822   0.9224   0.9615   1.1308   1.1657   1.2567   1.3325   1.4148
     1.4578   1.5166   1.5855   1.6536   1.6765   1.8240   1.8493   1.9330
     1.9674   2.0133   2.0980   2.1519   2.2271   2.3358   2.4325   2.5399
     2.5705   2.6892   2.7125   2.7635   2.7934   2.8748   2.8860   2.9856
     3.0123   3.1379   3.1722   3.2076   3.3033   3.3315   3.4423   3.4890
     3.5734   3.6720   3.7584   3.7883   3.8726   3.8917   3.9542   3.9816
     4.0053   4.1187   4.1545   4.2041   4.2627   4.3235   4.3424   4.4391
     4.5135   4.5467   4.6298   4.7019   4.7610   4.8438   4.8765   4.9174
     4.9554   5.0667   5.1180   5.1565   5.3130   5.3564   5.3997   5.4576
     5.5259   5.5765   5.6166   5.6382   5.8113   5.8794   5.9336   5.9762
     6.0317   6.1148

     the Fermi energy is     4.4750 ev

!    total energy              =    -500.16377560 Ry
     estimated scf accuracy    <       0.00000097 Ry
     smearing contrib. (-TS)   =      -0.14852420 Ry
     internal energy E=F+TS    =    -500.01525140 Ry

     The total energy is F=E-TS. E is the sum of the following terms:
     one-electron contribution =      -4.12312001 Ry
     hartree contribution      =      95.31377175 Ry
     xc contribution           =    -151.21865313 Ry
     ewald contribution        =    -439.98725001 Ry

     convergence has been achieved in  21 iterations

     Forces acting on atoms (cartesian axes, Ry/au):

     atom    1 type  1   force =     0.01639698    0.03438064    0.01697333
     atom    2 type  1   force =     0.00663753    0.01356410    0.00969354
     atom    3 type  1   force =    -0.00878907    0.01655057    0.04557271
     atom    4 type  1   force =    -0.05120240   -0.00032909    0.00407886
     atom    5 type  1   force =    -0.00543649    0.03083041    0.01970906
     atom    6 type  1   force =     0.04844487    0.01414017    0.03908325
     atom    7 type  1   force =    -0.02694120   -0.04406540    0.02009137
     atom    8 type  1   force =    -0.04493028    0.02430049   -0.06491007
     atom    9 type  1   force =     0.00901431    0.10370862   -0.00754772
     atom   10 type  1   force =     0.04601011    0.02077940   -0.00817882
     atom   11 type  1   force =     0.10397648   -0.02329721    0.02020416
     atom   12 type  1   force =    -0.01161524    0.13836845   -0.03707613
     atom   13 type  1   force =    -0.02808198   -0.04511642   -0.01129030
     atom   14 type  1   force =    -0.01433407    0.02941511   -0.03473130
     atom   15 type  1   force =     0.01092171   -0.03021778    0.01736687
     atom   16 type  1   force =     0.00432029   -0.01739660   -0.00428033
     atom   17 type  1   force =     0.01370140    0.05136968    0.07393741
     atom   18 type  1   force =     0.08262525    0.02710155   -0.09535891
     atom   19 type  1   force =     0.05782933   -0.05146496   -0.02907023
     atom   20 type  1   force =     0.05664696   -0.02649810    0.00198144
     atom   21 type  1   force =    -0.08182788    0.00012074   -0.00964556
     atom   22 type  1   force =    -0.00507370    0.01314444   -0.01029565
     atom   23 type  1   force =     0.02591234   -0.01269094   -0.02673915
     atom   24 type  1   force =    -0.06040830   -0.08427632    0.02448496
     atom   25 type  1   force =     0.07651056   -0.03731195    0.01025391
     atom   26 type  1   force =    -0.06167649    0.00550170    0.06314970
     atom   27 type  1   force =     0.05160594   -0.02063536    0.04660416
     atom   28 type  1   force =     0.04183151    0.00248974   -0.08425719
     atom   29 type  1   force =    -0.04242547    0.04383682    0.00940296
     atom   30 type  1   force =    -0.03700763   -0.05402658   -0.11388569
     atom   31 type  1   force =     0.01726051   -0.00659633    0.09899325
     atom   32 type  1   force =     0.02573129    0.04315230   -0.04072529
     atom   33 type  1   force =    -0.03353051    0.01148479    0.01048789
     atom   34 type  1   force =    -0.02413410    0.03704320   -0.00888907
     atom   35 type  1   force =    -0.00294881    0.00836301   -0.01175062
     atom   36 type  1   force =    -0.05873546    0.04616815    0.02211854
     atom   37 type  1   force =     0.04394839   -0.02209796    0.00749148
     atom   38 type  1   force =     0.00744626   -0.00303996    0.01659025
     atom   39 type  1   force =    -0.02627341   -0.04921080   -0.04160610
     atom   40 type  1   force =    -0.08381056   -0.02814544   -0.08247887
     atom   41 type  1   force =     0.07901316    0.01404489   -0.02340151
     atom   42 type  1   force =    -0.02390966    0.00913668    0.00027409
     atom   43 type  1   force =     0.07884888    0.02065436    0.09522981
     atom   44 type  1   force =    -0.02982790   -0.06907247   -0.02569642
     atom   45 type  1   force =     0.04345297    0.05765985   -0.01063264
     atom   46 type  1   force =    -0.01380611   -0.00639837    0.03782960
     atom   47 type  1   force =     0.03303842    0.02369055    0.09708905
     atom   48 type  1   force =    -0.02801748    0.06166807    0.03473108
     atom   49 type  1   force =     0.05739106    0.02400711   -0.01144802
     atom   50 type  1   force =    -0.04206940   -0.05505319    0.05632887
     atom   51 type  1   force =    -0.00805833   -0.15449775    0.03974748
     atom   52 type  1   force =    -0.00409024    0.08712502    0.00496713
     atom   53 type  1   force =     0.06067073   -0.03199425    0.03193027
     atom   54 type  1   force =    -0.06322523    0.03550597   -0.05783909
     atom   55 type  1   force =    -0.01863327   -0.00903203   -0.02617836
     atom   56 type  1   force =    -0.05107894   -0.04813794   -0.03791073
     atom   57 type  1   force =    -0.04052139   -0.00548488   -0.07600570
     atom   58 type  1   force =    -0.03023279    0.00465081    0.00816981
     atom   59 type  1   force =    -0.03773652    0.01402177   -0.01119163
     atom   60 type  1   force =     0.05545062    0.03915674   -0.01214531
     atom   61 type  1   force =    -0.07668000   -0.02350043    0.05172746
     atom   62 type  1   force =     0.01596552   -0.02654030   -0.02088242
     atom   63 type  1   force =    -0.03381752   -0.02996160    0.02117803
     atom   64 type  1   force =     0.04028446   -0.09104546   -0.02142302

     Total force =     0.621623     Total SCF correction =     0.001719


     Computing stress (Cartesian axis) and pressure

          total   stress  (Ry/bohr**3)                   (kbar)     P=       32.24
   0.00030140  -0.00002535  -0.00004109           44.34       -3.73       -6.04
  -0.00002535   0.00020747   0.00001752           -3.73       30.52        2.58
  -0.00004109   0.00001752   0.00014865           -6.04        2.58       21.87

 
     init_run     :      0.97s CPU      4.24s WALL (       1 calls)
     electrons    :      2.20s CPU      2.37s WALL (       1 calls)
     forces       :      0.04s CPU      0.04s WALL (       1 calls)
     stress       :      0.17s CPU      0.18s WALL (       1 calls)

     Called by init_run:
     wfcinit      :      0.46s CPU      3.55s WALL (       1 calls)
                                        3.55s GPU  (       1 calls)
     potinit      :      0.04s CPU      0.13s WALL (       1 calls)
     hinit0       :      0.45s CPU      0.48s WALL (       1 calls)

     Called by electrons:
     c_bands      :      1.33s CPU      1.42s WALL (      22 calls)
     sum_band     :      0.41s CPU      0.46s WALL (      22 calls)
     v_of_rho     :      0.19s CPU      0.28s WALL (      22 calls)
     mix_rho      :      0.21s CPU      0.23s WALL (      22 calls)

     Called by c_bands:
     init_us_2    :      0.06s CPU      0.06s WALL (      45 calls)
     init_us_2:gp :      0.05s CPU      0.06s WALL (      45 calls)
     regterg      :      1.16s CPU      1.24s WALL (      22 calls)

     Called by *egterg:
     rdiaghg      :      0.42s CPU      1.05s WALL (      94 calls)
                                        1.03s GPU  (      94 calls)
     h_psi        :      1.00s CPU      3.51s WALL (      96 calls)
                                        3.50s GPU  (      96 calls)
     g_psi        :      0.00s CPU      0.00s WALL (      73 calls)
                                        0.00s GPU  (      73 calls)

     Called by h_psi:
     h_psi:calbec :      0.44s CPU      2.86s WALL (      96 calls)
                                        2.86s GPU  (      96 calls)
     vloc_psi     :      0.51s CPU      0.58s WALL (      96 calls)
                                        0.58s GPU  (      96 calls)
     add_vuspsi   :      0.03s CPU      0.06s WALL (      96 calls)
                                        0.06s GPU  (      96 calls)

     General routines
     calbec       :      0.44s CPU      2.86s WALL (     101 calls)
     fft          :      0.61s CPU      0.74s WALL (     183 calls)
                                        0.12s GPU  (     116 calls)
     ffts         :      0.05s CPU      0.06s WALL (      22 calls)
     fftw         :      0.59s CPU      0.76s WALL (    2296 calls)
                                        0.66s GPU  (    2296 calls)
 
     Parallel routines
 
     PWSCF        :      3.41s CPU      6.91s WALL

 
   This run was terminated on:  14:13:24  10May2023            

=------------------------------------------------------------------------------=
   JOB DONE.
=------------------------------------------------------------------------------=
