An instance of this daemon is already running
An instance of this daemon is already running

     Program PWSCF v.7.1 starts on 10May2023 at 14:14:27 

     This program is part of the open-source Quantum ESPRESSO suite
     for quantum simulation of materials; please cite
         "P. Giannozzi et al., J. Phys.:Condens. Matter 21 395502 (2009);
         "P. Giannozzi et al., J. Phys.:Condens. Matter 29 465901 (2017);
         "P. Giannozzi et al., J. Chem. Phys. 152 154105 (2020);
          URL http://www.quantum-espresso.org", 
     in publications or presentations arising from this work. More details at
     http://www.quantum-espresso.org/quote

     Parallel version (MPI & OpenMP), running on       4 processor cores
     Number of MPI processes:                 4
     Threads/MPI process:                     1

     MPI processes distributed on     1 nodes
     247392 MiB available memory on the printing compute node when the environment starts
 
     Reading input from pw-si-100.in
Warning: card &CELL ignored
Warning: card / ignored

     Current dimensions of program PWSCF are:
     Max number of different atomic species (ntypx) = 10
     Max number of k-points (npk) =  40000
     Max angular momentum in pseudopotentials (lmaxx) =  4

     IMPORTANT: XC functional enforced from input :
     Exchange-correlation= PBE
                           (   1   4   3   4   0   0   0)
     Any further DFT definition will be discarded
     Please, verify this is what you really want


     gamma-point specific algorithms are used
 
     K-points division:     npool     =       2
     R & G space division:  proc/nbgrp/npool/nimage =       2
     Subspace diagonalization in iterative solution of the eigenvalue problem:
     a serial algorithm will be used

     Message from routine divide_et_impera:
     suboptimal parallelization: some nodes have no k-points
 
     Parallelization info
     --------------------
     sticks:   dense  smooth     PW     G-vecs:    dense   smooth      PW
     Min        2287    2287    600               116491   116491   15716
     Max        2290    2290    601               116498   116498   15723
     Sum        4577    4577   1201               232989   232989   31439
 
     Using Slab Decomposition
 


     bravais-lattice index     =            0
     lattice parameter (alat)  =      21.8971  a.u.
     unit-cell volume          =   10499.2784 (a.u.)^3
     number of atoms/cell      =           64
     number of atomic types    =            1
     number of electrons       =       256.00
     number of Kohn-Sham states=          154
     kinetic-energy cutoff     =      30.0000  Ry
     charge density cutoff     =     120.0000  Ry
     scf convergence threshold =      1.0E-06
     mixing beta               =       0.5000
     number of iterations used =            8  plain     mixing
     Exchange-correlation= PBE
                           (   1   4   3   4   0   0   0)

     GPU acceleration is ACTIVE.
     GPU-aware MPI enabled

     Message from routine print_cuda_info:
     High GPU oversubscription detected. Are you sure this is what you want?

     celldm(1)=  21.897094  celldm(2)=   0.000000  celldm(3)=   0.000000
     celldm(4)=   0.000000  celldm(5)=   0.000000  celldm(6)=   0.000000

     crystal axes: (cart. coord. in units of alat)
               a(1) = (   1.000000   0.000000   0.000000 )  
               a(2) = (   0.000000   1.000000   0.000000 )  
               a(3) = (   0.000000   0.000000   1.000000 )  

     reciprocal axes: (cart. coord. in units 2 pi/alat)
               b(1) = (  1.000000  0.000000  0.000000 )  
               b(2) = (  0.000000  1.000000  0.000000 )  
               b(3) = (  0.000000  0.000000  1.000000 )  


     PseudoPot. # 1 for Si read from file:
     /home/ppiaggi/pseudos/Si_ONCV_PBE_sr.upf
     MD5 check sum: 8553c464762ac42b85b1eed164b4d029
     Pseudo is Norm-conserving, Zval =  4.0
     Generated using ONCVPSP code by D. R. Hamann
     Using radial grid of 1510 points,  4 beta functions with: 
                l(1) =   0
                l(2) =   0
                l(3) =   1
                l(4) =   1

     atomic species   valence    mass     pseudopotential
        Si             4.00    28.08500     Si( 1.00)

     No symmetry found



   Cartesian axes

     site n.     atom                  positions (alat units)
         1           Si  tau(   1) = (   0.0767284   0.3140830   0.2809050  )
         2           Si  tau(   2) = (   0.3025810   0.4354220   0.9883380  )
         3           Si  tau(   3) = (   0.6474040   0.2596170   0.6800340  )
         4           Si  tau(   4) = (   0.6391740   0.2093870   0.1824010  )
         5           Si  tau(   5) = (   0.3763630   0.0524198   0.1615840  )
         6           Si  tau(   6) = (   0.7802390   0.9541240   0.3305510  )
         7           Si  tau(   7) = (   0.3061850   0.3401730   0.1663350  )
         8           Si  tau(   8) = (   0.0447314   0.8214970   0.1903990  )
         9           Si  tau(   9) = (   0.7271870   0.3449150   0.0849958  )
        10           Si  tau(  10) = (   0.8597570   0.0493587   0.6660290  )
        11           Si  tau(  11) = (   0.7667990   0.8215370   0.9718040  )
        12           Si  tau(  12) = (   0.2937810   0.0148053   0.7660250  )
        13           Si  tau(  13) = (   0.0328261   0.3893310   0.6316160  )
        14           Si  tau(  14) = (   0.6096030   0.6130970   0.8443430  )
        15           Si  tau(  15) = (   0.9370830   0.6469410   0.2608980  )
        16           Si  tau(  16) = (   0.9745420   0.9725920   0.0665172  )
        17           Si  tau(  17) = (   0.5740300   0.4260470   0.5760660  )
        18           Si  tau(  18) = (   0.3346970   0.1903310   0.3134560  )
        19           Si  tau(  19) = (   0.2824930   0.2052320   0.7003290  )
        20           Si  tau(  20) = (   0.3669270   0.8375630   0.4397040  )
        21           Si  tau(  21) = (   0.1441330   0.6516730   0.2174450  )
        22           Si  tau(  22) = (   0.1892780   0.6311630   0.7901130  )
        23           Si  tau(  23) = (   0.2340070   0.3664640   0.5776170  )
        24           Si  tau(  24) = (   0.5564040   0.7956290   0.9475650  )
        25           Si  tau(  25) = (   0.9130500   0.3235100   0.4235330  )
        26           Si  tau(  26) = (   0.9353010   0.2867490   0.1549680  )
        27           Si  tau(  27) = (   0.3643500   0.4659310   0.3415140  )
        28           Si  tau(  28) = (   0.8057100   0.2138390   0.5594180  )
        29           Si  tau(  29) = (   0.7446480   0.6133880   0.2979940  )
        30           Si  tau(  30) = (   0.3023390   0.5646800   0.1870990  )
        31           Si  tau(  31) = (   0.8458580   0.8495110   0.7379760  )
        32           Si  tau(  32) = (   0.2137930   0.9889730   0.4567980  )
        33           Si  tau(  33) = (   0.7629860   0.1486900   0.8267320  )
        34           Si  tau(  34) = (   0.1559790   0.9014170   0.6520250  )
        35           Si  tau(  35) = (   0.3433480   0.5097180   0.8148240  )
        36           Si  tau(  36) = (   0.7569170   0.4908360   0.4657640  )
        37           Si  tau(  37) = (   0.7325010   0.5082840   0.9455690  )
        38           Si  tau(  38) = (   0.1878810   0.1899550   0.8736750  )
        39           Si  tau(  39) = (   0.6638830   0.7917750   0.2796500  )
        40           Si  tau(  40) = (   0.4886120   0.3167240   0.4144960  )
        41           Si  tau(  41) = (   0.1605140   0.2662230   0.0636428  )
        42           Si  tau(  42) = (   0.5294810   0.9686590   0.5848360  )
        43           Si  tau(  43) = (   0.3346210   0.6799860   0.3292560  )
        44           Si  tau(  44) = (   0.9920860   0.1812440   0.9921620  )
        45           Si  tau(  45) = (   0.0573463   0.5884000   0.6169660  )
        46           Si  tau(  46) = (   0.8360890   0.6565660   0.8070550  )
        47           Si  tau(  47) = (   0.1946290   0.8350320   0.3365330  )
        48           Si  tau(  48) = (   0.1873940   0.3860070   0.7795250  )
        49           Si  tau(  49) = (   0.4737910   0.9306770   0.8039730  )
        50           Si  tau(  50) = (   0.0358683   0.7546890   0.7538800  )
        51           Si  tau(  51) = (   0.2833960   0.8287110   0.8333920  )
        52           Si  tau(  52) = (   0.6422020   0.9595970   0.9125230  )
        53           Si  tau(  53) = (   0.7087830   0.2850550   0.4070160  )
        54           Si  tau(  54) = (   0.8402290   0.8604930   0.1605420  )
        55           Si  tau(  55) = (   0.3737120   0.8853720   0.0646619  )
        56           Si  tau(  56) = (   0.8783330   0.5266940   0.6358600  )
        57           Si  tau(  57) = (   0.7536880   0.9216910   0.5570750  )
        58           Si  tau(  58) = (   0.5066470   0.3916280   0.7431550  )
        59           Si  tau(  59) = (   0.5738190   0.9138560   0.3950470  )
        60           Si  tau(  60) = (   0.4024260   0.8675880   0.2506370  )
        61           Si  tau(  61) = (   0.2197050   0.2010910   0.4622910  )
        62           Si  tau(  62) = (   0.8410750   0.4667990   0.2188880  )
        63           Si  tau(  63) = (   0.5286330   0.4598340   0.9478340  )
        64           Si  tau(  64) = (   0.8036510   0.1356420   0.0940384  )

     number of k points=     1  Fermi-Dirac smearing, width (Ry)=  0.0100
                       cart. coord. in units 2pi/alat
        k(    1) = (   0.0000000   0.0000000   0.0000000), wk =   2.0000000

     Dense  grid:   116495 G-vectors     FFT dimensions: (  80,  80,  80)

     Estimated max dynamical RAM per process >     187.29 MB

     Estimated total dynamical RAM >     720.72 MB

     Initial potential from superposition of free atoms

     starting charge     255.9608, renormalised to     256.0000
     Starting wfcs are  256 randomized atomic wfcs

     total cpu time spent up to now is        4.2 secs

     Self-consistent Calculation

     iteration #  1     ecut=    30.00 Ry     beta= 0.50
     Davidson diagonalization with overlap
     ethr =  1.00E-02,  avg # of iterations =  3.0

     Threshold (ethr) on eigenvalues was too large:
     Diagonalizing with lowered threshold

     Davidson diagonalization with overlap
     ethr =  7.01E-04,  avg # of iterations =  4.0

     total cpu time spent up to now is        4.4 secs

     total energy              =    -499.70032603 Ry
     estimated scf accuracy    <       2.38157196 Ry

     iteration #  2     ecut=    30.00 Ry     beta= 0.50
     Davidson diagonalization with overlap
     ethr =  9.30E-04,  avg # of iterations =  4.0

     total cpu time spent up to now is        4.6 secs

     total energy              =    -499.04916826 Ry
     estimated scf accuracy    <       6.23721987 Ry

     iteration #  3     ecut=    30.00 Ry     beta= 0.50
     Davidson diagonalization with overlap
     ethr =  9.30E-04,  avg # of iterations =  6.0

     total cpu time spent up to now is        4.7 secs

     total energy              =    -499.62181266 Ry
     estimated scf accuracy    <       7.87100919 Ry

     iteration #  4     ecut=    30.00 Ry     beta= 0.50
     Davidson diagonalization with overlap
     ethr =  9.30E-04,  avg # of iterations =  3.0

     total cpu time spent up to now is        4.8 secs

     total energy              =    -500.10292889 Ry
     estimated scf accuracy    <       0.91142761 Ry

     iteration #  5     ecut=    30.00 Ry     beta= 0.50
     Davidson diagonalization with overlap
     ethr =  3.56E-04,  avg # of iterations =  3.0

     total cpu time spent up to now is        4.9 secs

     total energy              =    -500.18470846 Ry
     estimated scf accuracy    <       0.45281750 Ry

     iteration #  6     ecut=    30.00 Ry     beta= 0.50
     Davidson diagonalization with overlap
     ethr =  1.77E-04,  avg # of iterations =  2.0

     total cpu time spent up to now is        5.0 secs

     total energy              =    -500.22563798 Ry
     estimated scf accuracy    <       0.19478504 Ry

     iteration #  7     ecut=    30.00 Ry     beta= 0.50
     Davidson diagonalization with overlap
     ethr =  7.61E-05,  avg # of iterations =  3.0

     total cpu time spent up to now is        5.1 secs

     total energy              =    -500.23899997 Ry
     estimated scf accuracy    <       0.07756025 Ry

     iteration #  8     ecut=    30.00 Ry     beta= 0.50
     Davidson diagonalization with overlap
     ethr =  3.03E-05,  avg # of iterations =  4.0

     total cpu time spent up to now is        5.2 secs

     total energy              =    -500.24641413 Ry
     estimated scf accuracy    <       0.04020446 Ry

     iteration #  9     ecut=    30.00 Ry     beta= 0.50
     Davidson diagonalization with overlap
     ethr =  1.57E-05,  avg # of iterations =  2.0

     total cpu time spent up to now is        5.3 secs

     total energy              =    -500.24947762 Ry
     estimated scf accuracy    <       0.00740843 Ry

     iteration # 10     ecut=    30.00 Ry     beta= 0.50
     Davidson diagonalization with overlap
     ethr =  2.89E-06,  avg # of iterations = 19.0

     total cpu time spent up to now is        5.5 secs

     total energy              =    -500.24992191 Ry
     estimated scf accuracy    <       0.01065189 Ry

     iteration # 11     ecut=    30.00 Ry     beta= 0.50
     Davidson diagonalization with overlap
     ethr =  2.89E-06,  avg # of iterations =  2.0

     total cpu time spent up to now is        5.6 secs

     total energy              =    -500.25065767 Ry
     estimated scf accuracy    <       0.00162876 Ry

     iteration # 12     ecut=    30.00 Ry     beta= 0.50
     Davidson diagonalization with overlap
     ethr =  6.36E-07,  avg # of iterations =  5.0

     total cpu time spent up to now is        5.8 secs

     total energy              =    -500.25081736 Ry
     estimated scf accuracy    <       0.00164076 Ry

     iteration # 13     ecut=    30.00 Ry     beta= 0.50
     Davidson diagonalization with overlap
     ethr =  6.36E-07,  avg # of iterations =  2.0

     total cpu time spent up to now is        5.9 secs

     total energy              =    -500.25092730 Ry
     estimated scf accuracy    <       0.00052986 Ry

     iteration # 14     ecut=    30.00 Ry     beta= 0.50
     Davidson diagonalization with overlap
     ethr =  2.07E-07,  avg # of iterations =  2.0

     total cpu time spent up to now is        6.0 secs

     total energy              =    -500.25098364 Ry
     estimated scf accuracy    <       0.00009522 Ry

     iteration # 15     ecut=    30.00 Ry     beta= 0.50
     Davidson diagonalization with overlap
     ethr =  3.72E-08,  avg # of iterations =  4.0

     total cpu time spent up to now is        6.1 secs

     total energy              =    -500.25098564 Ry
     estimated scf accuracy    <       0.00013184 Ry

     iteration # 16     ecut=    30.00 Ry     beta= 0.50
     Davidson diagonalization with overlap
     ethr =  3.72E-08,  avg # of iterations =  3.0

     total cpu time spent up to now is        6.2 secs

     total energy              =    -500.25099597 Ry
     estimated scf accuracy    <       0.00007604 Ry

     iteration # 17     ecut=    30.00 Ry     beta= 0.50
     Davidson diagonalization with overlap
     ethr =  2.97E-08,  avg # of iterations =  2.0

     total cpu time spent up to now is        6.3 secs

     total energy              =    -500.25100008 Ry
     estimated scf accuracy    <       0.00002124 Ry

     iteration # 18     ecut=    30.00 Ry     beta= 0.50
     Davidson diagonalization with overlap
     ethr =  8.30E-09,  avg # of iterations =  2.0

     total cpu time spent up to now is        6.4 secs

     total energy              =    -500.25100243 Ry
     estimated scf accuracy    <       0.00001048 Ry

     iteration # 19     ecut=    30.00 Ry     beta= 0.50
     Davidson diagonalization with overlap
     ethr =  4.09E-09,  avg # of iterations =  2.0

     total cpu time spent up to now is        6.5 secs

     total energy              =    -500.25100297 Ry
     estimated scf accuracy    <       0.00000397 Ry

     iteration # 20     ecut=    30.00 Ry     beta= 0.50
     Davidson diagonalization with overlap
     ethr =  1.55E-09,  avg # of iterations =  2.0

     total cpu time spent up to now is        6.6 secs

     total energy              =    -500.25100340 Ry
     estimated scf accuracy    <       0.00000295 Ry

     iteration # 21     ecut=    30.00 Ry     beta= 0.50
     Davidson diagonalization with overlap
     ethr =  1.15E-09,  avg # of iterations =  2.0

     total cpu time spent up to now is        6.7 secs

     End of self-consistent calculation

          k = 0.0000 0.0000 0.0000 ( 14520 PWs)   bands (ev):

    -8.3675  -7.8076  -7.4651  -7.3554  -7.1748  -7.0429  -6.9502  -6.8125
    -6.6938  -6.4858  -6.3674  -6.3221  -6.0949  -6.0815  -5.9311  -5.7441
    -5.6575  -5.6320  -5.3311  -5.1234  -4.9094  -4.6485  -4.6249  -4.4651
    -4.1506  -4.0231  -3.9994  -3.8254  -3.6854  -3.6097  -3.4820  -3.3534
    -3.1571  -3.0607  -2.9762  -2.7878  -2.7037  -2.6695  -2.6667  -2.4150
    -2.3908  -2.1422  -2.1144  -1.8693  -1.8498  -1.7925  -1.6768  -1.5609
    -1.4387  -1.2174  -1.2055  -1.1308  -1.0164  -0.8429  -0.7748  -0.7366
    -0.5845  -0.3786  -0.2928  -0.2721  -0.1086  -0.0165   0.1194   0.1645
     0.3016   0.3622   0.4893   0.5324   0.6100   0.6614   0.6811   0.8041
     0.8447   0.8748   0.9691   1.0471   1.1020   1.1616   1.2370   1.3039
     1.3689   1.4620   1.5347   1.6020   1.7180   1.7558   1.7981   1.8811
     1.9436   1.9901   2.0548   2.1843   2.2016   2.2470   2.3144   2.4433
     2.5274   2.5575   2.6082   2.6651   2.7511   2.8026   2.8691   2.9278
     2.9586   3.0061   3.0761   3.0985   3.1965   3.2612   3.4229   3.4665
     3.5567   3.5822   3.6663   3.7219   3.7718   3.8090   3.9693   3.9894
     4.0257   4.1017   4.1554   4.2110   4.2211   4.3333   4.3880   4.4176
     4.5036   4.5247   4.5626   4.6575   4.7105   4.7887   4.9077   4.9770
     5.0189   5.0704   5.0735   5.1179   5.2311   5.2896   5.3175   5.3804
     5.4645   5.5072   5.5852   5.5949   5.6377   5.7570   5.7871   5.8411
     5.9265   5.9996

     the Fermi energy is     4.4601 ev

!    total energy              =    -500.25100298 Ry
     estimated scf accuracy    <       0.00000094 Ry
     smearing contrib. (-TS)   =      -0.15287338 Ry
     internal energy E=F+TS    =    -500.09812960 Ry

     The total energy is F=E-TS. E is the sum of the following terms:
     one-electron contribution =       0.02888546 Ry
     hartree contribution      =      92.61271952 Ry
     xc contribution           =    -150.52096610 Ry
     ewald contribution        =    -442.21876848 Ry

     convergence has been achieved in  21 iterations

     Forces acting on atoms (cartesian axes, Ry/au):

     atom    1 type  1   force =     0.05391566    0.00840924    0.06004578
     atom    2 type  1   force =    -0.01558185    0.00111116    0.06367885
     atom    3 type  1   force =     0.01989444   -0.04453172    0.01899956
     atom    4 type  1   force =    -0.05645655   -0.05090938    0.06822498
     atom    5 type  1   force =     0.00346337    0.05787157    0.04100844
     atom    6 type  1   force =    -0.01535375    0.04126243    0.06336108
     atom    7 type  1   force =     0.03328625   -0.02268020    0.06770127
     atom    8 type  1   force =     0.01145735    0.02333895   -0.01791393
     atom    9 type  1   force =     0.02432698    0.07870863   -0.04825630
     atom   10 type  1   force =     0.01127221    0.02111008    0.02510259
     atom   11 type  1   force =     0.03996403   -0.04320071   -0.01556862
     atom   12 type  1   force =    -0.04897261    0.05357718    0.00593112
     atom   13 type  1   force =    -0.01017995   -0.02772661   -0.00322025
     atom   14 type  1   force =    -0.04593247    0.05540932   -0.03015084
     atom   15 type  1   force =     0.03497576    0.00876083   -0.01054934
     atom   16 type  1   force =     0.02438188    0.02168775   -0.02709072
     atom   17 type  1   force =     0.04011311    0.02114400   -0.10984127
     atom   18 type  1   force =     0.06958626    0.01892400   -0.07658524
     atom   19 type  1   force =     0.03405868    0.01019771   -0.03461065
     atom   20 type  1   force =     0.04750747    0.03979668    0.11571652
     atom   21 type  1   force =    -0.09173605    0.02501903    0.02559971
     atom   22 type  1   force =     0.01507235    0.01207213    0.00221451
     atom   23 type  1   force =     0.01232730    0.02353704   -0.04094150
     atom   24 type  1   force =    -0.06200132   -0.09755915    0.02528144
     atom   25 type  1   force =     0.02038039    0.03822313   -0.01053829
     atom   26 type  1   force =    -0.03005156    0.00173580   -0.02957529
     atom   27 type  1   force =    -0.00124374   -0.01391341    0.04615683
     atom   28 type  1   force =     0.01592142   -0.02307894    0.03547998
     atom   29 type  1   force =    -0.02880835    0.01153797    0.05598594
     atom   30 type  1   force =     0.04915597   -0.11737265   -0.17783272
     atom   31 type  1   force =    -0.01442865    0.00835369   -0.00250048
     atom   32 type  1   force =     0.00333099    0.01969270    0.05510569
     atom   33 type  1   force =    -0.01452115   -0.01329210    0.00518810
     atom   34 type  1   force =     0.02886211    0.00971648    0.00691834
     atom   35 type  1   force =     0.02018350    0.02578489   -0.03772462
     atom   36 type  1   force =    -0.01331625   -0.01919315    0.01294194
     atom   37 type  1   force =     0.07112714   -0.03826076    0.04310663
     atom   38 type  1   force =    -0.01012319   -0.00437779    0.02476684
     atom   39 type  1   force =    -0.00942275   -0.02571217   -0.06591664
     atom   40 type  1   force =     0.00971897   -0.00559500   -0.01105258
     atom   41 type  1   force =    -0.00288478    0.00142408   -0.01199694
     atom   42 type  1   force =     0.00172987   -0.00096404    0.01455850
     atom   43 type  1   force =     0.03551268   -0.00574257    0.07625600
     atom   44 type  1   force =    -0.00666323   -0.04775771   -0.04951149
     atom   45 type  1   force =     0.07902881    0.06917922   -0.01427508
     atom   46 type  1   force =    -0.01379024   -0.03768741    0.01650955
     atom   47 type  1   force =    -0.05520963    0.00857173   -0.05166015
     atom   48 type  1   force =    -0.03549617   -0.01857628    0.02173852
     atom   49 type  1   force =     0.01191161   -0.01660131   -0.04381089
     atom   50 type  1   force =    -0.02584670    0.02158191   -0.00427988
     atom   51 type  1   force =     0.00204818   -0.05562147    0.00338922
     atom   52 type  1   force =     0.04640639    0.15542345   -0.03328861
     atom   53 type  1   force =    -0.05229639    0.01195588   -0.08171768
     atom   54 type  1   force =    -0.04701619   -0.03485870    0.01385946
     atom   55 type  1   force =    -0.00895770   -0.03911549   -0.10108694
     atom   56 type  1   force =    -0.06377453   -0.00647328    0.02645487
     atom   57 type  1   force =    -0.02061168   -0.01300568   -0.02562188
     atom   58 type  1   force =    -0.05048124   -0.00753141    0.11560466
     atom   59 type  1   force =    -0.01343844    0.03708024    0.00569354
     atom   60 type  1   force =     0.03277073    0.00257802    0.02536265
     atom   61 type  1   force =    -0.06493749   -0.02226369    0.03096341
     atom   62 type  1   force =     0.02380383   -0.04078063   -0.03805924
     atom   63 type  1   force =    -0.00621704   -0.03600645    0.00167003
     atom   64 type  1   force =     0.00825593   -0.01438702   -0.01539854

     Total force =     0.595595     Total SCF correction =     0.001553


     Computing stress (Cartesian axis) and pressure

          total   stress  (Ry/bohr**3)                   (kbar)     P=       15.58
   0.00006638  -0.00002959  -0.00002698            9.76       -4.35       -3.97
  -0.00002959   0.00015012   0.00000730           -4.35       22.08        1.07
  -0.00002698   0.00000730   0.00010121           -3.97        1.07       14.89

 
     init_run     :      0.94s CPU      4.16s WALL (       1 calls)
     electrons    :      2.27s CPU      2.44s WALL (       1 calls)
     forces       :      0.03s CPU      0.04s WALL (       1 calls)
     stress       :      0.18s CPU      0.18s WALL (       1 calls)

     Called by init_run:
     wfcinit      :      0.44s CPU      3.48s WALL (       1 calls)
                                        3.48s GPU  (       1 calls)
     potinit      :      0.03s CPU      0.13s WALL (       1 calls)
     hinit0       :      0.45s CPU      0.48s WALL (       1 calls)

     Called by electrons:
     c_bands      :      1.40s CPU      1.48s WALL (      22 calls)
     sum_band     :      0.42s CPU      0.46s WALL (      22 calls)
     v_of_rho     :      0.18s CPU      0.28s WALL (      22 calls)
     mix_rho      :      0.21s CPU      0.23s WALL (      22 calls)

     Called by c_bands:
     init_us_2    :      0.06s CPU      0.06s WALL (      45 calls)
     init_us_2:gp :      0.06s CPU      0.06s WALL (      45 calls)
     regterg      :      1.22s CPU      1.31s WALL (      22 calls)

     Called by *egterg:
     rdiaghg      :      0.46s CPU      1.09s WALL (     102 calls)
                                        1.07s GPU  (     102 calls)
     h_psi        :      1.00s CPU      3.47s WALL (     104 calls)
                                        3.46s GPU  (     104 calls)
     g_psi        :      0.00s CPU      0.00s WALL (      81 calls)
                                        0.00s GPU  (      81 calls)

     Called by h_psi:
     h_psi:calbec :      0.43s CPU      2.82s WALL (     104 calls)
                                        2.82s GPU  (     104 calls)
     vloc_psi     :      0.50s CPU      0.58s WALL (     104 calls)
                                        0.58s GPU  (     104 calls)
     add_vuspsi   :      0.04s CPU      0.06s WALL (     104 calls)
                                        0.06s GPU  (     104 calls)

     General routines
     calbec       :      0.43s CPU      2.82s WALL (     109 calls)
     fft          :      0.61s CPU      0.73s WALL (     183 calls)
                                        0.12s GPU  (     116 calls)
     ffts         :      0.05s CPU      0.06s WALL (      22 calls)
     fftw         :      0.59s CPU      0.76s WALL (    2308 calls)
                                        0.66s GPU  (    2308 calls)
 
     Parallel routines
 
     PWSCF        :      3.45s CPU      6.89s WALL

 
   This run was terminated on:  14:14:34  10May2023            

=------------------------------------------------------------------------------=
   JOB DONE.
=------------------------------------------------------------------------------=
