An instance of this daemon is already running

     Program PWSCF v.7.1 starts on 10May2023 at 11: 0:28 

     This program is part of the open-source Quantum ESPRESSO suite
     for quantum simulation of materials; please cite
         "P. Giannozzi et al., J. Phys.:Condens. Matter 21 395502 (2009);
         "P. Giannozzi et al., J. Phys.:Condens. Matter 29 465901 (2017);
         "P. Giannozzi et al., J. Chem. Phys. 152 154105 (2020);
          URL http://www.quantum-espresso.org", 
     in publications or presentations arising from this work. More details at
     http://www.quantum-espresso.org/quote

     Parallel version (MPI & OpenMP), running on       4 processor cores
     Number of MPI processes:                 4
     Threads/MPI process:                     1

     MPI processes distributed on     1 nodes
     150544 MiB available memory on the printing compute node when the environment starts
 
     Reading input from pw-si-32.in
Warning: card &CELL ignored
Warning: card / ignored

     Current dimensions of program PWSCF are:
     Max number of different atomic species (ntypx) = 10
     Max number of k-points (npk) =  40000
     Max angular momentum in pseudopotentials (lmaxx) =  4

     IMPORTANT: XC functional enforced from input :
     Exchange-correlation= PBE
                           (   1   4   3   4   0   0   0)
     Any further DFT definition will be discarded
     Please, verify this is what you really want


     gamma-point specific algorithms are used
 
     K-points division:     npool     =       2
     R & G space division:  proc/nbgrp/npool/nimage =       2
     Subspace diagonalization in iterative solution of the eigenvalue problem:
     a serial algorithm will be used

     Message from routine divide_et_impera:
     suboptimal parallelization: some nodes have no k-points
 
     Parallelization info
     --------------------
     sticks:   dense  smooth     PW     G-vecs:    dense   smooth      PW
     Min        2066    2066    545                99738    99738   13557
     Max        2067    2067    548                99739    99739   13560
     Sum        4133    4133   1093               199477   199477   27117
 
     Using Slab Decomposition
 


     bravais-lattice index     =            0
     lattice parameter (alat)  =      20.7305  a.u.
     unit-cell volume          =    8985.7376 (a.u.)^3
     number of atoms/cell      =           64
     number of atomic types    =            1
     number of electrons       =       256.00
     number of Kohn-Sham states=          154
     kinetic-energy cutoff     =      30.0000  Ry
     charge density cutoff     =     120.0000  Ry
     scf convergence threshold =      1.0E-06
     mixing beta               =       0.5000
     number of iterations used =            8  plain     mixing
     Exchange-correlation= PBE
                           (   1   4   3   4   0   0   0)

     GPU acceleration is ACTIVE.
     GPU-aware MPI enabled

     Message from routine print_cuda_info:
     High GPU oversubscription detected. Are you sure this is what you want?

     celldm(1)=  20.730500  celldm(2)=   0.000000  celldm(3)=   0.000000
     celldm(4)=   0.000000  celldm(5)=   0.000000  celldm(6)=   0.000000

     crystal axes: (cart. coord. in units of alat)
               a(1) = (   1.000000   0.000000   0.000000 )  
               a(2) = (   0.000000   1.005175   0.000000 )  
               a(3) = (   0.000000   0.000000   1.003420 )  

     reciprocal axes: (cart. coord. in units 2 pi/alat)
               b(1) = (  1.000000  0.000000  0.000000 )  
               b(2) = (  0.000000  0.994851  0.000000 )  
               b(3) = (  0.000000  0.000000  0.996592 )  


     PseudoPot. # 1 for Si read from file:
     /home/ppiaggi/pseudos/Si_ONCV_PBE_sr.upf
     MD5 check sum: 8553c464762ac42b85b1eed164b4d029
     Pseudo is Norm-conserving, Zval =  4.0
     Generated using ONCVPSP code by D. R. Hamann
     Using radial grid of 1510 points,  4 beta functions with: 
                l(1) =   0
                l(2) =   0
                l(3) =   1
                l(4) =   1

     atomic species   valence    mass     pseudopotential
        Si             4.00    28.08500     Si( 1.00)

     No symmetry found



   Cartesian axes

     site n.     atom                  positions (alat units)
         1           Si  tau(   1) = (  -0.0002518   0.0001608   0.0000092  )
         2           Si  tau(   2) = (  -0.0002084   0.2505767   0.2511193  )
         3           Si  tau(   3) = (   0.2479590  -0.0005768   0.2511075  )
         4           Si  tau(   4) = (   0.2480178   0.2504852   0.0008062  )
         5           Si  tau(   5) = (   0.1239249   0.1247883   0.1256157  )
         6           Si  tau(   6) = (   0.4970347   0.0006785  -0.0003106  )
         7           Si  tau(   7) = (   0.4966385   0.2519503   0.2499974  )
         8           Si  tau(   8) = (   0.6224180   0.1254640   0.1251725  )
         9           Si  tau(   9) = (   0.7466469  -0.0003304   0.2500432  )
        10           Si  tau(  10) = (   0.7464695   0.2518472   0.0000237  )
        11           Si  tau(  11) = (   0.0000270   0.5020862   0.0005204  )
        12           Si  tau(  12) = (   0.2482218   0.5032244   0.2509647  )
        13           Si  tau(  13) = (   0.1240140   0.6273045   0.1244448  )
        14           Si  tau(  14) = (   0.3731712   0.3763265   0.1258924  )
        15           Si  tau(  15) = (   0.4968978   0.5015007   0.0002487  )
        16           Si  tau(  16) = (   0.6225837   0.6288660   0.1251795  )
        17           Si  tau(  17) = (   0.8697743   0.3771242   0.1248580  )
        18           Si  tau(  18) = (   0.7453809   0.5030610   0.2512225  )
        19           Si  tau(  19) = (   0.0008106   0.7541933   0.2515118  )
        20           Si  tau(  20) = (   0.2485605   0.7544405  -0.0000120  )
        21           Si  tau(  21) = (   0.3737839   0.8789991   0.1249552  )
        22           Si  tau(  22) = (   0.4966202   0.7528678   0.2508544  )
        23           Si  tau(  23) = (   0.7463676   0.7538893  -0.0008078  )
        24           Si  tau(  24) = (   0.8699643   0.8800321   0.1245192  )
        25           Si  tau(  25) = (  -0.0000885  -0.0008274   0.5012110  )
        26           Si  tau(  26) = (   0.2486177   0.2518299   0.5010379  )
        27           Si  tau(  27) = (   0.1236910   0.1252449   0.6271804  )
        28           Si  tau(  28) = (   0.3724409   0.1258051   0.3758815  )
        29           Si  tau(  29) = (   0.4967947  -0.0003386   0.5014683  )
        30           Si  tau(  30) = (   0.6222394   0.1257423   0.6261248  )
        31           Si  tau(  31) = (   0.8709853   0.1249046   0.3767459  )
        32           Si  tau(  32) = (   0.7456048   0.2502908   0.5004531  )
        33           Si  tau(  33) = (   0.1250755   0.3762465   0.3756306  )
        34           Si  tau(  34) = (  -0.0004245   0.5020531   0.5017731  )
        35           Si  tau(  35) = (   0.1237601   0.6271026   0.6269572  )
        36           Si  tau(  36) = (   0.6222895   0.3761004   0.3757646  )
        37           Si  tau(  37) = (   0.3737010   0.6273989   0.3762408  )
        38           Si  tau(  38) = (   0.3739921   0.3761186   0.6273108  )
        39           Si  tau(  39) = (   0.4969972   0.5019125   0.5019236  )
        40           Si  tau(  40) = (   0.6224459   0.6285940   0.6262900  )
        41           Si  tau(  41) = (   0.8698617   0.6287609   0.3754780  )
        42           Si  tau(  42) = (   0.8706350   0.3766785   0.6260041  )
        43           Si  tau(  43) = (   0.1243051   0.8797350   0.3753761  )
        44           Si  tau(  44) = (   0.2487027   0.7543782   0.5021192  )
        45           Si  tau(  45) = (   0.6209656   0.8784590   0.3757566  )
        46           Si  tau(  46) = (   0.3729758   0.8789411   0.6274930  )
        47           Si  tau(  47) = (   0.7465789   0.7539520   0.5009035  )
        48           Si  tau(  48) = (   0.8706796   0.8790821   0.6264251  )
        49           Si  tau(  49) = (  -0.0006919   0.2513859   0.7525208  )
        50           Si  tau(  50) = (   0.2495876  -0.0002339   0.7527819  )
        51           Si  tau(  51) = (   0.3734116   0.1264323   0.8780086  )
        52           Si  tau(  52) = (   0.4975354   0.2512919   0.7523518  )
        53           Si  tau(  53) = (   0.7462160   0.0006065   0.7525062  )
        54           Si  tau(  54) = (   0.8708849   0.1251747   0.8779116  )
        55           Si  tau(  55) = (   0.1241759   0.3772496   0.8773207  )
        56           Si  tau(  56) = (   0.2489318   0.5021370   0.7525113  )
        57           Si  tau(  57) = (   0.6227252   0.3768876   0.8773584  )
        58           Si  tau(  58) = (   0.3725475   0.6279084   0.8764539  )
        59           Si  tau(  59) = (   0.7469845   0.5018995   0.7526030  )
        60           Si  tau(  60) = (   0.8704672   0.6281797   0.8771045  )
        61           Si  tau(  61) = (   0.0005885   0.7530809   0.7524472  )
        62           Si  tau(  62) = (   0.1249551   0.8798184   0.8765737  )
        63           Si  tau(  63) = (   0.4970582   0.7534459   0.7522521  )
        64           Si  tau(  64) = (   0.6222801   0.8784723   0.8773479  )

     number of k points=     1  Fermi-Dirac smearing, width (Ry)=  0.0100
                       cart. coord. in units 2pi/alat
        k(    1) = (   0.0000000   0.0000000   0.0000000), wk =   2.0000000

     Dense  grid:    99739 G-vectors     FFT dimensions: (  75,  75,  75)

     Estimated max dynamical RAM per process >     160.37 MB

     Estimated total dynamical RAM >     617.11 MB

     Initial potential from superposition of free atoms

     starting charge     255.9608, renormalised to     256.0000
     Starting wfcs are  256 randomized atomic wfcs

     total cpu time spent up to now is        4.0 secs

     Self-consistent Calculation

     iteration #  1     ecut=    30.00 Ry     beta= 0.50
     Davidson diagonalization with overlap
     ethr =  1.00E-02,  avg # of iterations =  3.0

     Threshold (ethr) on eigenvalues was too large:
     Diagonalizing with lowered threshold

     Davidson diagonalization with overlap
     ethr =  6.41E-04,  avg # of iterations =  2.0

     total cpu time spent up to now is        4.2 secs

     total energy              =    -503.98698676 Ry
     estimated scf accuracy    <       1.82332597 Ry

     iteration #  2     ecut=    30.00 Ry     beta= 0.50
     Davidson diagonalization with overlap
     ethr =  7.12E-04,  avg # of iterations =  2.0

     total cpu time spent up to now is        4.3 secs

     total energy              =    -503.96789183 Ry
     estimated scf accuracy    <       0.34531208 Ry

     iteration #  3     ecut=    30.00 Ry     beta= 0.50
     Davidson diagonalization with overlap
     ethr =  1.35E-04,  avg # of iterations =  4.0

     total cpu time spent up to now is        4.4 secs

     total energy              =    -503.98989076 Ry
     estimated scf accuracy    <       0.00601739 Ry

     iteration #  4     ecut=    30.00 Ry     beta= 0.50
     Davidson diagonalization with overlap
     c_bands:  1 eigenvalues not converged
     ethr =  2.35E-06,  avg # of iterations = 20.0

     total cpu time spent up to now is        4.6 secs

     total energy              =    -503.99196416 Ry
     estimated scf accuracy    <       0.00490372 Ry

     iteration #  5     ecut=    30.00 Ry     beta= 0.50
     Davidson diagonalization with overlap
     ethr =  1.92E-06,  avg # of iterations =  6.0

     total cpu time spent up to now is        4.8 secs

     total energy              =    -503.99291744 Ry
     estimated scf accuracy    <       0.00030384 Ry

     iteration #  6     ecut=    30.00 Ry     beta= 0.50
     Davidson diagonalization with overlap
     ethr =  1.19E-07,  avg # of iterations =  2.0

     total cpu time spent up to now is        4.9 secs

     total energy              =    -503.99295462 Ry
     estimated scf accuracy    <       0.00005065 Ry

     iteration #  7     ecut=    30.00 Ry     beta= 0.50
     Davidson diagonalization with overlap
     ethr =  1.98E-08,  avg # of iterations =  5.0

     total cpu time spent up to now is        5.0 secs

     total energy              =    -503.99295826 Ry
     estimated scf accuracy    <       0.00000861 Ry

     iteration #  8     ecut=    30.00 Ry     beta= 0.50
     Davidson diagonalization with overlap
     ethr =  3.36E-09,  avg # of iterations =  5.0

     total cpu time spent up to now is        5.1 secs

     End of self-consistent calculation

          k = 0.0000 0.0000 0.0000 ( 12475 PWs)   bands (ev):

    -5.8414  -4.8196  -4.8028  -4.8007  -4.7959  -4.7899  -4.7546  -3.9070
    -3.9034  -3.8957  -3.8895  -3.8874  -3.8767  -3.8718  -3.8531  -3.8421
    -3.8387  -3.8296  -3.8247  -3.6313  -3.6119  -3.5989  -3.5444  -1.8670
    -1.8607  -1.8393  -1.8346  -1.8213  -1.8001  -1.7191  -1.7126  -1.6996
    -1.6989  -1.6919  -1.6819  -1.6796  -1.6706  -1.6623  -1.6564  -1.6544
    -1.6335  -0.9682  -0.9295  -0.9174  -0.9131   0.4269   0.4314   0.4344
     0.4388   0.4419   0.4485   0.4524   0.4540   0.4648   0.4697   0.4748
     0.4863   2.1483   2.1511   2.1520   2.1543   2.1561   2.1596   2.1637
     2.1659   2.1689   2.1695   2.1740   2.1784   2.2331   2.2343   2.2385
     2.2432   2.2475   2.2482   2.2504   2.2568   2.2577   2.2699   2.2774
     2.2932   2.3458   2.3565   2.3625   2.3656   2.3699   2.3757   3.0866
     3.0951   3.1105   3.1180   3.1395   3.1442   3.9926   3.9979   4.0361
     4.0455   4.0459   4.0501   4.0562   4.0616   4.0698   4.0725   4.0745
     4.0937   4.5267   4.5432   4.5519   4.5576   4.5675   4.5735   4.5877
     4.5935   4.6072   4.6145   4.6219   4.6264   4.6491   4.6663   4.6788
     4.7087   4.7309   4.7380   4.7443   4.8244   5.8371   5.8868   5.9035
     6.5919   6.6013   6.6047   6.6135   6.6649   6.6752   6.9762   7.0111
     7.0153   7.0187   7.0335   7.0388   7.2437   7.2460   7.2485   7.2592
     8.2132   8.2245   8.2373   8.2564   8.2679   8.2726   8.2852   8.2866
     8.2925   8.2945

     the Fermi energy is     6.1952 ev

!    total energy              =    -503.99296035 Ry
     estimated scf accuracy    <       0.00000028 Ry
     smearing contrib. (-TS)   =      -0.04092906 Ry
     internal energy E=F+TS    =    -503.95203129 Ry

     The total energy is F=E-TS. E is the sum of the following terms:
     one-electron contribution =     142.71268462 Ry
     hartree contribution      =      37.04245254 Ry
     xc contribution           =    -153.11696615 Ry
     ewald contribution        =    -530.59020230 Ry

     convergence has been achieved in   8 iterations

     Forces acting on atoms (cartesian axes, Ry/au):

     atom    1 type  1   force =    -0.01219524   -0.00342887   -0.00399048
     atom    2 type  1   force =    -0.01559350    0.00240842   -0.00224883
     atom    3 type  1   force =     0.00599064    0.00084366   -0.00453824
     atom    4 type  1   force =     0.00073856    0.00411889   -0.00356171
     atom    5 type  1   force =    -0.00223643    0.00096735    0.00073393
     atom    6 type  1   force =     0.00643319   -0.00480483   -0.00120536
     atom    7 type  1   force =     0.00645159   -0.00711350    0.00375494
     atom    8 type  1   force =    -0.00333211    0.00289766    0.00014508
     atom    9 type  1   force =    -0.00218600   -0.00016441    0.00533184
     atom   10 type  1   force =     0.00092666   -0.00475210   -0.00300065
     atom   11 type  1   force =    -0.01797624    0.00067288   -0.00615629
     atom   12 type  1   force =     0.00309532   -0.00372893   -0.00223821
     atom   13 type  1   force =    -0.00020780    0.00688760    0.00458761
     atom   14 type  1   force =    -0.00718081    0.00398099   -0.00259513
     atom   15 type  1   force =     0.00412200    0.00563823   -0.00368750
     atom   16 type  1   force =    -0.00630512   -0.00395122   -0.00187063
     atom   17 type  1   force =     0.01766746    0.00008398    0.00664031
     atom   18 type  1   force =     0.00494431   -0.00188797   -0.00363348
     atom   19 type  1   force =    -0.02006684   -0.00261891   -0.00885540
     atom   20 type  1   force =     0.00053154   -0.00404178   -0.00421729
     atom   21 type  1   force =    -0.00481782    0.00339496    0.00278750
     atom   22 type  1   force =     0.00476081    0.00133749   -0.00228641
     atom   23 type  1   force =     0.00287362   -0.00093798    0.00090177
     atom   24 type  1   force =     0.01988289   -0.00475208    0.00233068
     atom   25 type  1   force =    -0.01331502    0.00129016    0.00247645
     atom   26 type  1   force =     0.00032708   -0.00472997    0.00551344
     atom   27 type  1   force =     0.00219514    0.00123089   -0.00131927
     atom   28 type  1   force =     0.00078663   -0.00063012   -0.00033806
     atom   29 type  1   force =     0.00209180    0.00008873   -0.00049161
     atom   30 type  1   force =    -0.00464056   -0.00241194    0.00288255
     atom   31 type  1   force =     0.01266358   -0.00097717   -0.00406574
     atom   32 type  1   force =     0.00656548    0.00327601    0.00319747
     atom   33 type  1   force =    -0.00736042    0.00452650    0.00112731
     atom   34 type  1   force =    -0.01368593    0.00054839   -0.00662194
     atom   35 type  1   force =     0.00239663    0.00242641   -0.00103445
     atom   36 type  1   force =    -0.00620506    0.00332893    0.00051283
     atom   37 type  1   force =    -0.00671211    0.00285577    0.00307920
     atom   38 type  1   force =    -0.00645880    0.00219204   -0.00106593
     atom   39 type  1   force =     0.00741745   -0.00023279   -0.00110467
     atom   40 type  1   force =    -0.00134807   -0.00394798    0.00280311
     atom   41 type  1   force =     0.01995841   -0.00284706    0.00281018
     atom   42 type  1   force =     0.01131898   -0.00308989    0.00166895
     atom   43 type  1   force =     0.00020175   -0.00225538    0.00658865
     atom   44 type  1   force =    -0.00144037   -0.00530596   -0.00327916
     atom   45 type  1   force =     0.00243308    0.00476410   -0.00102216
     atom   46 type  1   force =     0.00057146    0.00286766   -0.00130944
     atom   47 type  1   force =    -0.00103015    0.00087068    0.00102971
     atom   48 type  1   force =     0.01454327    0.00087159    0.00383473
     atom   49 type  1   force =    -0.01273842   -0.00095289   -0.00160197
     atom   50 type  1   force =    -0.00150318    0.00448999   -0.00287041
     atom   51 type  1   force =    -0.00328805   -0.00179235    0.00029468
     atom   52 type  1   force =     0.00553153   -0.00148205    0.00018947
     atom   53 type  1   force =     0.00253045   -0.00471537   -0.00264843
     atom   54 type  1   force =     0.01253765    0.00411205    0.00167784
     atom   55 type  1   force =    -0.00101166   -0.00391961    0.00450477
     atom   56 type  1   force =    -0.00093217   -0.00124281   -0.00414891
     atom   57 type  1   force =    -0.00459874   -0.00026042    0.00272561
     atom   58 type  1   force =     0.00116808    0.00020442    0.00959301
     atom   59 type  1   force =    -0.00090389    0.00353486   -0.00563351
     atom   60 type  1   force =     0.01789859   -0.00158087    0.00472897
     atom   61 type  1   force =    -0.01693226    0.00266829   -0.00215443
     atom   62 type  1   force =    -0.00496977   -0.00066009    0.00694080
     atom   63 type  1   force =     0.00460298   -0.00092953   -0.00147291
     atom   64 type  1   force =    -0.00498603    0.00676726    0.00087522

     Total force =     0.079738     Total SCF correction =     0.000726


     Computing stress (Cartesian axis) and pressure

          total   stress  (Ry/bohr**3)                   (kbar)     P=       -5.60
  -0.00002432   0.00000977   0.00000355           -3.58        1.44        0.52
   0.00000977  -0.00004970   0.00000934            1.44       -7.31        1.37
   0.00000355   0.00000934  -0.00004017            0.52        1.37       -5.91

 
     init_run     :      0.80s CPU      3.96s WALL (       1 calls)
     electrons    :      1.00s CPU      1.08s WALL (       1 calls)
     forces       :      0.03s CPU      0.04s WALL (       1 calls)
     stress       :      0.15s CPU      0.16s WALL (       1 calls)

     Called by init_run:
     wfcinit      :      0.45s CPU      3.47s WALL (       1 calls)
                                        3.47s GPU  (       1 calls)
     potinit      :      0.15s CPU      0.22s WALL (       1 calls)
     hinit0       :      0.18s CPU      0.20s WALL (       1 calls)

     Called by electrons:
     c_bands      :      0.72s CPU      0.76s WALL (       9 calls)
     sum_band     :      0.16s CPU      0.18s WALL (       9 calls)
     v_of_rho     :      0.08s CPU      0.15s WALL (       9 calls)
     mix_rho      :      0.05s CPU      0.06s WALL (       9 calls)

     Called by c_bands:
     init_us_2    :      0.02s CPU      0.02s WALL (      19 calls)
     init_us_2:gp :      0.02s CPU      0.02s WALL (      19 calls)
     regterg      :      0.65s CPU      0.68s WALL (       9 calls)

     Called by *egterg:
     rdiaghg      :      0.27s CPU      0.86s WALL (      57 calls)
                                        0.84s GPU  (      57 calls)
     h_psi        :      0.72s CPU      3.17s WALL (      59 calls)
                                        3.17s GPU  (      59 calls)
     g_psi        :      0.00s CPU      0.00s WALL (      49 calls)
                                        0.00s GPU  (      49 calls)

     Called by h_psi:
     h_psi:calbec :      0.39s CPU      2.77s WALL (      59 calls)
                                        2.77s GPU  (      59 calls)
     vloc_psi     :      0.30s CPU      0.37s WALL (      59 calls)
                                        0.37s GPU  (      59 calls)
     add_vuspsi   :      0.02s CPU      0.03s WALL (      59 calls)
                                        0.03s GPU  (      59 calls)

     General routines
     calbec       :      0.39s CPU      2.77s WALL (      64 calls)
     fft          :      0.19s CPU      0.28s WALL (      79 calls)
                                        0.09s GPU  (      51 calls)
     ffts         :      0.01s CPU      0.02s WALL (       9 calls)
     fftw         :      0.33s CPU      0.45s WALL (    1001 calls)
                                        0.41s GPU  (    1001 calls)
 
     Parallel routines
 
     PWSCF        :      2.02s CPU      5.30s WALL

 
   This run was terminated on:  11: 0:33  10May2023            

=------------------------------------------------------------------------------=
   JOB DONE.
=------------------------------------------------------------------------------=
