An instance of this daemon is already running
An instance of this daemon is already running

     Program PWSCF v.7.1 starts on 10May2023 at 11: 9:11 

     This program is part of the open-source Quantum ESPRESSO suite
     for quantum simulation of materials; please cite
         "P. Giannozzi et al., J. Phys.:Condens. Matter 21 395502 (2009);
         "P. Giannozzi et al., J. Phys.:Condens. Matter 29 465901 (2017);
         "P. Giannozzi et al., J. Chem. Phys. 152 154105 (2020);
          URL http://www.quantum-espresso.org", 
     in publications or presentations arising from this work. More details at
     http://www.quantum-espresso.org/quote

     Parallel version (MPI & OpenMP), running on       4 processor cores
     Number of MPI processes:                 4
     Threads/MPI process:                     1

     MPI processes distributed on     1 nodes
     150773 MiB available memory on the printing compute node when the environment starts
 
     Reading input from pw-si-96.in
Warning: card &CELL ignored
Warning: card / ignored

     Current dimensions of program PWSCF are:
     Max number of different atomic species (ntypx) = 10
     Max number of k-points (npk) =  40000
     Max angular momentum in pseudopotentials (lmaxx) =  4

     IMPORTANT: XC functional enforced from input :
     Exchange-correlation= PBE
                           (   1   4   3   4   0   0   0)
     Any further DFT definition will be discarded
     Please, verify this is what you really want


     gamma-point specific algorithms are used
 
     K-points division:     npool     =       2
     R & G space division:  proc/nbgrp/npool/nimage =       2
     Subspace diagonalization in iterative solution of the eigenvalue problem:
     a serial algorithm will be used

     Message from routine divide_et_impera:
     suboptimal parallelization: some nodes have no k-points
 
     Parallelization info
     --------------------
     sticks:   dense  smooth     PW     G-vecs:    dense   smooth      PW
     Min        2037    2037    539                99333    99333   13507
     Max        2038    2038    542                99334    99334   13514
     Sum        4075    4075   1081               198667   198667   27021
 
     Using Slab Decomposition
 


     bravais-lattice index     =            0
     lattice parameter (alat)  =      20.5463  a.u.
     unit-cell volume          =    8946.3683 (a.u.)^3
     number of atoms/cell      =           64
     number of atomic types    =            1
     number of electrons       =       256.00
     number of Kohn-Sham states=          154
     kinetic-energy cutoff     =      30.0000  Ry
     charge density cutoff     =     120.0000  Ry
     scf convergence threshold =      1.0E-06
     mixing beta               =       0.5000
     number of iterations used =            8  plain     mixing
     Exchange-correlation= PBE
                           (   1   4   3   4   0   0   0)

     GPU acceleration is ACTIVE.
     GPU-aware MPI enabled

     Message from routine print_cuda_info:
     High GPU oversubscription detected. Are you sure this is what you want?

     celldm(1)=  20.546338  celldm(2)=   0.000000  celldm(3)=   0.000000
     celldm(4)=   0.000000  celldm(5)=   0.000000  celldm(6)=   0.000000

     crystal axes: (cart. coord. in units of alat)
               a(1) = (   1.000000   0.000000   0.000000 )  
               a(2) = (   0.000000   1.011892   0.000000 )  
               a(3) = (   0.000000   0.000000   1.019317 )  

     reciprocal axes: (cart. coord. in units 2 pi/alat)
               b(1) = (  1.000000  0.000000  0.000000 )  
               b(2) = (  0.000000  0.988248  0.000000 )  
               b(3) = (  0.000000  0.000000  0.981049 )  


     PseudoPot. # 1 for Si read from file:
     /home/ppiaggi/pseudos/Si_ONCV_PBE_sr.upf
     MD5 check sum: 8553c464762ac42b85b1eed164b4d029
     Pseudo is Norm-conserving, Zval =  4.0
     Generated using ONCVPSP code by D. R. Hamann
     Using radial grid of 1510 points,  4 beta functions with: 
                l(1) =   0
                l(2) =   0
                l(3) =   1
                l(4) =   1

     atomic species   valence    mass     pseudopotential
        Si             4.00    28.08500     Si( 1.00)

     No symmetry found



   Cartesian axes

     site n.     atom                  positions (alat units)
         1           Si  tau(   1) = (   0.0002541  -0.0004447  -0.0000405  )
         2           Si  tau(   2) = (  -0.0004647   0.2530962   0.2560378  )
         3           Si  tau(   3) = (   0.2481949  -0.0003892   0.2556546  )
         4           Si  tau(   4) = (   0.2479121   0.2523282  -0.0007259  )
         5           Si  tau(   5) = (   0.1250448   0.1269057   0.1271240  )
         6           Si  tau(   6) = (   0.4967691   0.0002094  -0.0001970  )
         7           Si  tau(   7) = (   0.4984083   0.2524795   0.2555667  )
         8           Si  tau(   8) = (   0.6222896   0.1265959   0.1283757  )
         9           Si  tau(   9) = (   0.7465720  -0.0008016   0.2568380  )
        10           Si  tau(  10) = (   0.7467285   0.2524653   0.0009149  )
        11           Si  tau(  11) = (   0.0002829   0.5047502   0.0006090  )
        12           Si  tau(  12) = (   0.2482948   0.5045582   0.2555110  )
        13           Si  tau(  13) = (   0.1240073   0.6313779   0.1286562  )
        14           Si  tau(  14) = (   0.3735426   0.3784771   0.1283138  )
        15           Si  tau(  15) = (   0.4967190   0.5038334   0.0002353  )
        16           Si  tau(  16) = (   0.6214576   0.6306576   0.1275010  )
        17           Si  tau(  17) = (   0.8705820   0.3776969   0.1274402  )
        18           Si  tau(  18) = (   0.7468307   0.5037905   0.2556325  )
        19           Si  tau(  19) = (  -0.0006817   0.7568038   0.2564611  )
        20           Si  tau(  20) = (   0.2487191   0.7572762   0.0004521  )
        21           Si  tau(  21) = (   0.3731229   0.8830710   0.1284691  )
        22           Si  tau(  22) = (   0.4975323   0.7572739   0.2556549  )
        23           Si  tau(  23) = (   0.7456348   0.7564471   0.0002349  )
        24           Si  tau(  24) = (   0.8700704   0.8820912   0.1285623  )
        25           Si  tau(  25) = (  -0.0001992   0.0001347   0.5119767  )
        26           Si  tau(  26) = (   0.2492145   0.2515850   0.5115153  )
        27           Si  tau(  27) = (   0.1248771   0.1257393   0.6408662  )
        28           Si  tau(  28) = (   0.3727819   0.1268072   0.3847123  )
        29           Si  tau(  29) = (   0.4979468   0.0004773   0.5118301  )
        30           Si  tau(  30) = (   0.6216106   0.1269181   0.6395436  )
        31           Si  tau(  31) = (   0.8715866   0.1268061   0.3849933  )
        32           Si  tau(  32) = (   0.7456561   0.2524038   0.5130319  )
        33           Si  tau(  33) = (   0.1249260   0.3775746   0.3843488  )
        34           Si  tau(  34) = (   0.0003840   0.5048484   0.5120109  )
        35           Si  tau(  35) = (   0.1248655   0.6301172   0.6407774  )
        36           Si  tau(  36) = (   0.6211770   0.3786741   0.3835348  )
        37           Si  tau(  37) = (   0.3733525   0.6304586   0.3838518  )
        38           Si  tau(  38) = (   0.3737680   0.3778175   0.6397287  )
        39           Si  tau(  39) = (   0.4980849   0.5046458   0.5127711  )
        40           Si  tau(  40) = (   0.6218675   0.6303042   0.6395780  )
        41           Si  tau(  41) = (   0.8703950   0.6311646   0.3838731  )
        42           Si  tau(  42) = (   0.8710422   0.3776692   0.6406781  )
        43           Si  tau(  43) = (   0.1250971   0.8819802   0.3844422  )
        44           Si  tau(  44) = (   0.2495312   0.7570923   0.5121801  )
        45           Si  tau(  45) = (   0.6225479   0.8820313   0.3839289  )
        46           Si  tau(  46) = (   0.3725357   0.8830581   0.6409641  )
        47           Si  tau(  47) = (   0.7455534   0.7572213   0.5117257  )
        48           Si  tau(  48) = (   0.8713057   0.8823969   0.6406068  )
        49           Si  tau(  49) = (  -0.0001562   0.2519123   0.7690778  )
        50           Si  tau(  50) = (   0.2480169   0.0003743   0.7677974  )
        51           Si  tau(  51) = (   0.3739677   0.1267593   0.8959476  )
        52           Si  tau(  52) = (   0.4972800   0.2524582   0.7688604  )
        53           Si  tau(  53) = (   0.7466626   0.0002912   0.7683850  )
        54           Si  tau(  54) = (   0.8699771   0.1258821   0.8968574  )
        55           Si  tau(  55) = (   0.1238111   0.3791454   0.8954317  )
        56           Si  tau(  56) = (   0.2495429   0.5046834   0.7687829  )
        57           Si  tau(  57) = (   0.6222110   0.3777824   0.8959744  )
        58           Si  tau(  58) = (   0.3730534   0.6314494   0.8966986  )
        59           Si  tau(  59) = (   0.7469624   0.5048403   0.7687943  )
        60           Si  tau(  60) = (   0.8712373   0.6301015   0.8962192  )
        61           Si  tau(  61) = (  -0.0000261   0.7574029   0.7673920  )
        62           Si  tau(  62) = (   0.1238350   0.8836719   0.8971156  )
        63           Si  tau(  63) = (   0.4982590   0.7562962   0.7682583  )
        64           Si  tau(  64) = (   0.6213822   0.8827552   0.8954224  )

     number of k points=     1  Fermi-Dirac smearing, width (Ry)=  0.0100
                       cart. coord. in units 2pi/alat
        k(    1) = (   0.0000000   0.0000000   0.0000000), wk =   2.0000000

     Dense  grid:    99334 G-vectors     FFT dimensions: (  72,  75,  75)

     Estimated max dynamical RAM per process >     159.17 MB

     Estimated total dynamical RAM >     612.41 MB

     Initial potential from superposition of free atoms

     starting charge     255.9608, renormalised to     256.0000
     Starting wfcs are  256 randomized atomic wfcs

     total cpu time spent up to now is        4.1 secs

     Self-consistent Calculation

     iteration #  1     ecut=    30.00 Ry     beta= 0.50
     Davidson diagonalization with overlap
     ethr =  1.00E-02,  avg # of iterations =  3.0

     Threshold (ethr) on eigenvalues was too large:
     Diagonalizing with lowered threshold

     Davidson diagonalization with overlap
     ethr =  6.47E-04,  avg # of iterations =  2.0

     total cpu time spent up to now is        4.3 secs

     total energy              =    -503.97690069 Ry
     estimated scf accuracy    <       1.83311411 Ry

     iteration #  2     ecut=    30.00 Ry     beta= 0.50
     Davidson diagonalization with overlap
     ethr =  7.16E-04,  avg # of iterations =  1.0

     total cpu time spent up to now is        4.4 secs

     total energy              =    -503.95792468 Ry
     estimated scf accuracy    <       0.34568620 Ry

     iteration #  3     ecut=    30.00 Ry     beta= 0.50
     Davidson diagonalization with overlap
     ethr =  1.35E-04,  avg # of iterations =  4.0

     total cpu time spent up to now is        4.5 secs

     total energy              =    -503.97982954 Ry
     estimated scf accuracy    <       0.00699339 Ry

     iteration #  4     ecut=    30.00 Ry     beta= 0.50
     Davidson diagonalization with overlap
     c_bands:  3 eigenvalues not converged
     ethr =  2.73E-06,  avg # of iterations = 20.0

     total cpu time spent up to now is        4.7 secs

     total energy              =    -503.98177248 Ry
     estimated scf accuracy    <       0.00883664 Ry

     iteration #  5     ecut=    30.00 Ry     beta= 0.50
     Davidson diagonalization with overlap
     ethr =  2.73E-06,  avg # of iterations = 15.0

     total cpu time spent up to now is        4.9 secs

     total energy              =    -503.98336939 Ry
     estimated scf accuracy    <       0.00042010 Ry

     iteration #  6     ecut=    30.00 Ry     beta= 0.50
     Davidson diagonalization with overlap
     ethr =  1.64E-07,  avg # of iterations =  4.0

     total cpu time spent up to now is        5.0 secs

     total energy              =    -503.98341654 Ry
     estimated scf accuracy    <       0.00010225 Ry

     iteration #  7     ecut=    30.00 Ry     beta= 0.50
     Davidson diagonalization with overlap
     ethr =  3.99E-08,  avg # of iterations =  5.0

     total cpu time spent up to now is        5.1 secs

     total energy              =    -503.98342125 Ry
     estimated scf accuracy    <       0.00002334 Ry

     iteration #  8     ecut=    30.00 Ry     beta= 0.50
     Davidson diagonalization with overlap
     ethr =  9.12E-09,  avg # of iterations =  4.0

     total cpu time spent up to now is        5.2 secs

     total energy              =    -503.98342352 Ry
     estimated scf accuracy    <       0.00000302 Ry

     iteration #  9     ecut=    30.00 Ry     beta= 0.50
     Davidson diagonalization with overlap
     ethr =  1.18E-09,  avg # of iterations =  5.0

     total cpu time spent up to now is        5.4 secs

     total energy              =    -503.98342486 Ry
     estimated scf accuracy    <       0.00000229 Ry

     iteration # 10     ecut=    30.00 Ry     beta= 0.50
     Davidson diagonalization with overlap
     ethr =  8.96E-10,  avg # of iterations =  2.0

     total cpu time spent up to now is        5.4 secs

     End of self-consistent calculation

          k = 0.0000 0.0000 0.0000 ( 12432 PWs)   bands (ev):

    -5.8313  -4.8222  -4.8063  -4.7904  -4.7635  -4.7567  -4.7281  -3.9196
    -3.9101  -3.9001  -3.8696  -3.8542  -3.8401  -3.8375  -3.8356  -3.8230
    -3.8072  -3.7891  -3.7798  -3.6228  -3.5750  -3.5569  -3.5058  -1.8824
    -1.8566  -1.8396  -1.8173  -1.7601  -1.7347  -1.7060  -1.6898  -1.6802
    -1.6663  -1.6626  -1.6481  -1.6407  -1.6341  -1.6149  -1.5998  -1.5983
    -1.5960  -0.9489  -0.9234  -0.9022  -0.8567   0.4346   0.4382   0.4636
     0.4680   0.4730   0.4793   0.4918   0.4974   0.5023   0.5163   0.5339
     0.5493   2.1472   2.1501   2.1584   2.1650   2.1703   2.1778   2.1788
     2.1817   2.1867   2.1921   2.1963   2.2047   2.2317   2.2432   2.2477
     2.2696   2.2776   2.2811   2.2915   2.3037   2.3272   2.3314   2.3430
     2.3534   2.3682   2.3807   2.3908   2.4132   2.4514   2.4736   3.0625
     3.0768   3.1534   3.1659   3.1990   3.2275   3.9907   3.9915   4.0408
     4.0547   4.0634   4.0783   4.0912   4.1166   4.1251   4.1468   4.1742
     4.1766   4.5031   4.5304   4.5325   4.5533   4.5764   4.5999   4.6108
     4.6284   4.6358   4.6487   4.6762   4.6816   4.7058   4.7109   4.7382
     4.7774   4.8091   4.8375   4.8590   4.8873   5.8465   5.9084   6.0059
     6.5596   6.5763   6.6576   6.6761   6.7246   6.7634   6.9585   6.9920
     7.0559   7.0788   7.1183   7.1413   7.2828   7.2976   7.3025   7.3061
     8.1933   8.2053   8.2087   8.2721   8.2991   8.3083   8.3236   8.3329
     8.3649   8.3982

     the Fermi energy is     6.2325 ev

!    total energy              =    -503.98342448 Ry
     estimated scf accuracy    <       0.00000054 Ry
     smearing contrib. (-TS)   =      -0.04333681 Ry
     internal energy E=F+TS    =    -503.94008767 Ry

     The total energy is F=E-TS. E is the sum of the following terms:
     one-electron contribution =     143.67069813 Ry
     hartree contribution      =      36.94783372 Ry
     xc contribution           =    -153.24760402 Ry
     ewald contribution        =    -531.31101550 Ry

     convergence has been achieved in  10 iterations

     Forces acting on atoms (cartesian axes, Ry/au):

     atom    1 type  1   force =    -0.01875147   -0.00373170    0.01835133
     atom    2 type  1   force =    -0.00971147   -0.00453351   -0.00128199
     atom    3 type  1   force =     0.00225526   -0.00398962    0.00318606
     atom    4 type  1   force =     0.00627691    0.00445170    0.01434776
     atom    5 type  1   force =    -0.00775258   -0.00444944    0.00652233
     atom    6 type  1   force =     0.00604205   -0.00886005    0.01601119
     atom    7 type  1   force =    -0.00558615   -0.00144224    0.00335726
     atom    8 type  1   force =     0.00014967   -0.00748148    0.00118002
     atom    9 type  1   force =     0.00312707   -0.00226755   -0.00073513
     atom   10 type  1   force =    -0.00188779   -0.00213113    0.00994578
     atom   11 type  1   force =    -0.01474193    0.00061006    0.01271864
     atom   12 type  1   force =     0.00228288   -0.00032662    0.00353619
     atom   13 type  1   force =    -0.00129045   -0.00122816    0.00022104
     atom   14 type  1   force =    -0.00586890   -0.00370495   -0.00022211
     atom   15 type  1   force =     0.00447003    0.00280310    0.01134883
     atom   16 type  1   force =     0.00052485   -0.00343535    0.00478971
     atom   17 type  1   force =     0.01673608    0.00451049    0.00501713
     atom   18 type  1   force =    -0.00156675    0.00455945   -0.00019507
     atom   19 type  1   force =    -0.01146932    0.00179798    0.00055009
     atom   20 type  1   force =    -0.00146489    0.00143637    0.01477592
     atom   21 type  1   force =    -0.00109042    0.00944485   -0.00017915
     atom   22 type  1   force =     0.00131855   -0.00274212    0.00155462
     atom   23 type  1   force =     0.00369639    0.00150569    0.01023600
     atom   24 type  1   force =     0.01551016    0.01055897   -0.00017907
     atom   25 type  1   force =    -0.00883385   -0.00999175    0.00127008
     atom   26 type  1   force =    -0.00269887    0.00252264    0.00599589
     atom   27 type  1   force =    -0.00629155    0.00233429   -0.00472794
     atom   28 type  1   force =     0.00354656   -0.00656637   -0.00780466
     atom   29 type  1   force =    -0.00202037   -0.01205299    0.00046873
     atom   30 type  1   force =     0.00034522   -0.00531533    0.00634353
     atom   31 type  1   force =     0.00783505   -0.00272424   -0.00221615
     atom   32 type  1   force =     0.00411491    0.00299450   -0.00679004
     atom   33 type  1   force =    -0.00392017    0.00463470   -0.00097756
     atom   34 type  1   force =    -0.01509721   -0.00227595    0.00023364
     atom   35 type  1   force =    -0.00076133    0.00344488   -0.00301480
     atom   36 type  1   force =     0.00565654   -0.00101423    0.00434109
     atom   37 type  1   force =    -0.00037452    0.00054145    0.00126023
     atom   38 type  1   force =    -0.00353455    0.00197690    0.00254096
     atom   39 type  1   force =    -0.00307248   -0.00092707   -0.00595017
     atom   40 type  1   force =     0.00380391    0.00122849    0.00443387
     atom   41 type  1   force =     0.01366330   -0.00378612    0.00229297
     atom   42 type  1   force =     0.01354045    0.00349566   -0.00084351
     atom   43 type  1   force =    -0.00634818    0.01238760   -0.00075227
     atom   44 type  1   force =    -0.00122738   -0.00368347    0.00147208
     atom   45 type  1   force =    -0.00562336    0.01370411    0.00076257
     atom   46 type  1   force =     0.00494522    0.00888268   -0.00256605
     atom   47 type  1   force =     0.00667720   -0.00210445    0.00334645
     atom   48 type  1   force =     0.00854246    0.01180272   -0.00373642
     atom   49 type  1   force =    -0.01389199   -0.00104154   -0.00455762
     atom   50 type  1   force =     0.00513898   -0.00948581    0.00509623
     atom   51 type  1   force =    -0.00864376   -0.00375690   -0.01438293
     atom   52 type  1   force =     0.00422696   -0.00050424   -0.00714650
     atom   53 type  1   force =    -0.00172645   -0.00886577   -0.00541196
     atom   54 type  1   force =     0.01821343   -0.00205116   -0.01342035
     atom   55 type  1   force =     0.00030083   -0.00180760   -0.01090317
     atom   56 type  1   force =     0.00005532   -0.00065488   -0.00528763
     atom   57 type  1   force =    -0.00043933    0.00374851   -0.01126016
     atom   58 type  1   force =     0.00118695   -0.00282459   -0.01457146
     atom   59 type  1   force =    -0.00037157   -0.00257987   -0.00580113
     atom   60 type  1   force =     0.01353893    0.00524429   -0.01220084
     atom   61 type  1   force =    -0.01068881   -0.00322747    0.00435430
     atom   62 type  1   force =     0.00067202    0.00425923   -0.02045984
     atom   63 type  1   force =    -0.00428283    0.00203145   -0.00447602
     atom   64 type  1   force =     0.00263652    0.01065296   -0.00981082

     Total force =     0.096518     Total SCF correction =     0.001500


     Computing stress (Cartesian axis) and pressure

          total   stress  (Ry/bohr**3)                   (kbar)     P=       -1.93
   0.00003789  -0.00001703   0.00001069            5.57       -2.51        1.57
  -0.00001703  -0.00001707   0.00001347           -2.51       -2.51        1.98
   0.00001069   0.00001347  -0.00006012            1.57        1.98       -8.84

 
     init_run     :      0.90s CPU      4.08s WALL (       1 calls)
     electrons    :      1.21s CPU      1.31s WALL (       1 calls)
     forces       :      0.04s CPU      0.04s WALL (       1 calls)
     stress       :      0.15s CPU      0.15s WALL (       1 calls)

     Called by init_run:
     wfcinit      :      0.43s CPU      3.46s WALL (       1 calls)
                                        3.46s GPU  (       1 calls)
     potinit      :      0.15s CPU      0.23s WALL (       1 calls)
     hinit0       :      0.30s CPU      0.33s WALL (       1 calls)

     Called by electrons:
     c_bands      :      0.85s CPU      0.91s WALL (      11 calls)
     sum_band     :      0.20s CPU      0.22s WALL (      11 calls)
     v_of_rho     :      0.09s CPU      0.17s WALL (      11 calls)
     mix_rho      :      0.07s CPU      0.08s WALL (      11 calls)

     Called by c_bands:
     init_us_2    :      0.03s CPU      0.03s WALL (      23 calls)
     init_us_2:gp :      0.03s CPU      0.03s WALL (      23 calls)
     regterg      :      0.77s CPU      0.82s WALL (      11 calls)

     Called by *egterg:
     rdiaghg      :      0.35s CPU      0.95s WALL (      75 calls)
                                        0.93s GPU  (      75 calls)
     h_psi        :      0.73s CPU      3.17s WALL (      77 calls)
                                        3.17s GPU  (      77 calls)
     g_psi        :      0.00s CPU      0.00s WALL (      65 calls)
                                        0.00s GPU  (      65 calls)

     Called by h_psi:
     h_psi:calbec :      0.39s CPU      2.78s WALL (      77 calls)
                                        2.77s GPU  (      77 calls)
     vloc_psi     :      0.30s CPU      0.35s WALL (      77 calls)
                                        0.35s GPU  (      77 calls)
     add_vuspsi   :      0.03s CPU      0.04s WALL (      77 calls)
                                        0.04s GPU  (      77 calls)

     General routines
     calbec       :      0.40s CPU      2.78s WALL (      82 calls)
     fft          :      0.32s CPU      0.43s WALL (      95 calls)
                                        0.10s GPU  (      61 calls)
     ffts         :      0.02s CPU      0.02s WALL (      11 calls)
     fftw         :      0.34s CPU      0.45s WALL (    1227 calls)
                                        0.40s GPU  (    1227 calls)
 
     Parallel routines
 
     PWSCF        :      2.33s CPU      5.65s WALL

 
   This run was terminated on:  11: 9:17  10May2023            

=------------------------------------------------------------------------------=
   JOB DONE.
=------------------------------------------------------------------------------=
