An instance of this daemon is already running

     Program PWSCF v.7.1 starts on 10May2023 at 11: 9: 4 

     This program is part of the open-source Quantum ESPRESSO suite
     for quantum simulation of materials; please cite
         "P. Giannozzi et al., J. Phys.:Condens. Matter 21 395502 (2009);
         "P. Giannozzi et al., J. Phys.:Condens. Matter 29 465901 (2017);
         "P. Giannozzi et al., J. Chem. Phys. 152 154105 (2020);
          URL http://www.quantum-espresso.org", 
     in publications or presentations arising from this work. More details at
     http://www.quantum-espresso.org/quote

     Parallel version (MPI & OpenMP), running on       4 processor cores
     Number of MPI processes:                 4
     Threads/MPI process:                     1

     MPI processes distributed on     1 nodes
     150774 MiB available memory on the printing compute node when the environment starts
 
     Reading input from pw-si-95.in
Warning: card &CELL ignored
Warning: card / ignored

     Current dimensions of program PWSCF are:
     Max number of different atomic species (ntypx) = 10
     Max number of k-points (npk) =  40000
     Max angular momentum in pseudopotentials (lmaxx) =  4

     IMPORTANT: XC functional enforced from input :
     Exchange-correlation= PBE
                           (   1   4   3   4   0   0   0)
     Any further DFT definition will be discarded
     Please, verify this is what you really want


     gamma-point specific algorithms are used
 
     K-points division:     npool     =       2
     R & G space division:  proc/nbgrp/npool/nimage =       2
     Subspace diagonalization in iterative solution of the eigenvalue problem:
     a serial algorithm will be used

     Message from routine divide_et_impera:
     suboptimal parallelization: some nodes have no k-points
 
     Parallelization info
     --------------------
     sticks:   dense  smooth     PW     G-vecs:    dense   smooth      PW
     Min        2076    2076    547                99505    99505   13523
     Max        2077    2077    550                99508    99508   13526
     Sum        4153    4153   1097               199013   199013   27049
 
     Using Slab Decomposition
 


     bravais-lattice index     =            0
     lattice parameter (alat)  =      20.8557  a.u.
     unit-cell volume          =    8964.9872 (a.u.)^3
     number of atoms/cell      =           64
     number of atomic types    =            1
     number of electrons       =       256.00
     number of Kohn-Sham states=          154
     kinetic-energy cutoff     =      30.0000  Ry
     charge density cutoff     =     120.0000  Ry
     scf convergence threshold =      1.0E-06
     mixing beta               =       0.5000
     number of iterations used =            8  plain     mixing
     Exchange-correlation= PBE
                           (   1   4   3   4   0   0   0)

     GPU acceleration is ACTIVE.
     GPU-aware MPI enabled

     Message from routine print_cuda_info:
     High GPU oversubscription detected. Are you sure this is what you want?

     celldm(1)=  20.855683  celldm(2)=   0.000000  celldm(3)=   0.000000
     celldm(4)=   0.000000  celldm(5)=   0.000000  celldm(6)=   0.000000

     crystal axes: (cart. coord. in units of alat)
               a(1) = (   1.000000   0.000000   0.000000 )  
               a(2) = (   0.000000   0.997934   0.000000 )  
               a(3) = (   0.000000   0.000000   0.990318 )  

     reciprocal axes: (cart. coord. in units 2 pi/alat)
               b(1) = (  1.000000  0.000000  0.000000 )  
               b(2) = (  0.000000  1.002070  0.000000 )  
               b(3) = (  0.000000  0.000000  1.009777 )  


     PseudoPot. # 1 for Si read from file:
     /home/ppiaggi/pseudos/Si_ONCV_PBE_sr.upf
     MD5 check sum: 8553c464762ac42b85b1eed164b4d029
     Pseudo is Norm-conserving, Zval =  4.0
     Generated using ONCVPSP code by D. R. Hamann
     Using radial grid of 1510 points,  4 beta functions with: 
                l(1) =   0
                l(2) =   0
                l(3) =   1
                l(4) =   1

     atomic species   valence    mass     pseudopotential
        Si             4.00    28.08500     Si( 1.00)

     No symmetry found



   Cartesian axes

     site n.     atom                  positions (alat units)
         1           Si  tau(   1) = (  -0.0003572  -0.0000754  -0.0002444  )
         2           Si  tau(   2) = (   0.0001715   0.2494510   0.2448783  )
         3           Si  tau(   3) = (   0.2488861   0.0008084   0.2459046  )
         4           Si  tau(   4) = (   0.2490202   0.2491352   0.0001580  )
         5           Si  tau(   5) = (   0.1251625   0.1243461   0.1228905  )
         6           Si  tau(   6) = (   0.5001978   0.0003543   0.0003968  )
         7           Si  tau(   7) = (   0.4992825   0.2483502   0.2455637  )
         8           Si  tau(   8) = (   0.6253053   0.1253830   0.1221514  )
         9           Si  tau(   9) = (   0.7492381   0.0001613   0.2446212  )
        10           Si  tau(  10) = (   0.7495583   0.2491121   0.0005748  )
        11           Si  tau(  11) = (   0.0007709   0.4971550  -0.0006182  )
        12           Si  tau(  12) = (   0.2503048   0.4971451   0.2452481  )
        13           Si  tau(  13) = (   0.1254219   0.6229661   0.1222673  )
        14           Si  tau(  14) = (   0.3740942   0.3725607   0.1226943  )
        15           Si  tau(  15) = (   0.5002298   0.4979454   0.0001561  )
        16           Si  tau(  16) = (   0.6245875   0.6224063   0.1229836  )
        17           Si  tau(  17) = (   0.8739743   0.3736898   0.1234467  )
        18           Si  tau(  18) = (   0.7496125   0.4974231   0.2447482  )
        19           Si  tau(  19) = (   0.0007774   0.7472822   0.2461208  )
        20           Si  tau(  20) = (   0.2493239   0.7461743  -0.0005326  )
        21           Si  tau(  21) = (   0.3743662   0.8708634   0.1229282  )
        22           Si  tau(  22) = (   0.4992376   0.7476431   0.2452730  )
        23           Si  tau(  23) = (   0.7499660   0.7467839   0.0005219  )
        24           Si  tau(  24) = (   0.8741691   0.8709620   0.1217504  )
        25           Si  tau(  25) = (  -0.0006235   0.0000699   0.4896091  )
        26           Si  tau(  26) = (   0.2499613   0.2487881   0.4911388  )
        27           Si  tau(  27) = (   0.1252459   0.1250813   0.6128545  )
        28           Si  tau(  28) = (   0.3748326   0.1236849   0.3681422  )
        29           Si  tau(  29) = (   0.5002323  -0.0000210   0.4905382  )
        30           Si  tau(  30) = (   0.6247265   0.1244786   0.6126378  )
        31           Si  tau(  31) = (   0.8751186   0.1245857   0.3686790  )
        32           Si  tau(  32) = (   0.7486440   0.2485741   0.4899957  )
        33           Si  tau(  33) = (   0.1250353   0.3740555   0.3676591  )
        34           Si  tau(  34) = (  -0.0003586   0.4978253   0.4898072  )
        35           Si  tau(  35) = (   0.1242156   0.6231009   0.6136456  )
        36           Si  tau(  36) = (   0.6237977   0.3726392   0.3680763  )
        37           Si  tau(  37) = (   0.3739066   0.6226111   0.3677309  )
        38           Si  tau(  38) = (   0.3755268   0.3732167   0.6139800  )
        39           Si  tau(  39) = (   0.4987468   0.4981547   0.4900086  )
        40           Si  tau(  40) = (   0.6242304   0.6220340   0.6129485  )
        41           Si  tau(  41) = (   0.8748497   0.6219137   0.3675765  )
        42           Si  tau(  42) = (   0.8740758   0.3737728   0.6137597  )
        43           Si  tau(  43) = (   0.1240349   0.8720778   0.3676489  )
        44           Si  tau(  44) = (   0.2490258   0.7466330   0.4898916  )
        45           Si  tau(  45) = (   0.6242843   0.8720980   0.3682429  )
        46           Si  tau(  46) = (   0.3751769   0.8712635   0.6123353  )
        47           Si  tau(  47) = (   0.7486809   0.7472709   0.4896055  )
        48           Si  tau(  48) = (   0.8747777   0.8716689   0.6139844  )
        49           Si  tau(  49) = (  -0.0007262   0.2482377   0.7353797  )
        50           Si  tau(  50) = (   0.2497650   0.0005630   0.7350500  )
        51           Si  tau(  51) = (   0.3742298   0.1236321   0.8582092  )
        52           Si  tau(  52) = (   0.4986833   0.2483340   0.7356722  )
        53           Si  tau(  53) = (   0.7492475  -0.0004695   0.7353121  )
        54           Si  tau(  54) = (   0.8750355   0.1235816   0.8581633  )
        55           Si  tau(  55) = (   0.1249091   0.3732257   0.8584671  )
        56           Si  tau(  56) = (   0.2495040   0.4981053   0.7360608  )
        57           Si  tau(  57) = (   0.6241721   0.3734380   0.8588397  )
        58           Si  tau(  58) = (   0.3741768   0.6222209   0.8587988  )
        59           Si  tau(  59) = (   0.7491338   0.4988085   0.7349592  )
        60           Si  tau(  60) = (   0.8744114   0.6215633   0.8587538  )
        61           Si  tau(  61) = (   0.0007266   0.7470263   0.7363633  )
        62           Si  tau(  62) = (   0.1247169   0.8704659   0.8587284  )
        63           Si  tau(  63) = (   0.4997216   0.7473098   0.7349382  )
        64           Si  tau(  64) = (   0.6252013   0.8717520   0.8591807  )

     number of k points=     1  Fermi-Dirac smearing, width (Ry)=  0.0100
                       cart. coord. in units 2pi/alat
        k(    1) = (   0.0000000   0.0000000   0.0000000), wk =   2.0000000

     Dense  grid:    99507 G-vectors     FFT dimensions: (  75,  75,  75)

     Estimated max dynamical RAM per process >     160.04 MB

     Estimated total dynamical RAM >     615.88 MB

     Initial potential from superposition of free atoms

     starting charge     255.9608, renormalised to     256.0000
     Starting wfcs are  256 randomized atomic wfcs

     total cpu time spent up to now is        3.9 secs

     Self-consistent Calculation

     iteration #  1     ecut=    30.00 Ry     beta= 0.50
     Davidson diagonalization with overlap
     ethr =  1.00E-02,  avg # of iterations =  3.0

     Threshold (ethr) on eigenvalues was too large:
     Diagonalizing with lowered threshold

     Davidson diagonalization with overlap
     ethr =  6.44E-04,  avg # of iterations =  4.0

     total cpu time spent up to now is        4.2 secs

     total energy              =    -503.97193751 Ry
     estimated scf accuracy    <       1.82855581 Ry

     iteration #  2     ecut=    30.00 Ry     beta= 0.50
     Davidson diagonalization with overlap
     ethr =  7.14E-04,  avg # of iterations =  1.0

     total cpu time spent up to now is        4.3 secs

     total energy              =    -503.95309694 Ry
     estimated scf accuracy    <       0.34538983 Ry

     iteration #  3     ecut=    30.00 Ry     beta= 0.50
     Davidson diagonalization with overlap
     ethr =  1.35E-04,  avg # of iterations =  4.0

     total cpu time spent up to now is        4.4 secs

     total energy              =    -503.97489042 Ry
     estimated scf accuracy    <       0.00712961 Ry

     iteration #  4     ecut=    30.00 Ry     beta= 0.50
     Davidson diagonalization with overlap
     c_bands:  2 eigenvalues not converged
     ethr =  2.79E-06,  avg # of iterations = 20.0

     total cpu time spent up to now is        4.6 secs

     total energy              =    -503.97675962 Ry
     estimated scf accuracy    <       0.00885832 Ry

     iteration #  5     ecut=    30.00 Ry     beta= 0.50
     Davidson diagonalization with overlap
     ethr =  2.79E-06,  avg # of iterations =  5.0

     total cpu time spent up to now is        4.7 secs

     total energy              =    -503.97841208 Ry
     estimated scf accuracy    <       0.00048389 Ry

     iteration #  6     ecut=    30.00 Ry     beta= 0.50
     Davidson diagonalization with overlap
     ethr =  1.89E-07,  avg # of iterations =  4.0

     total cpu time spent up to now is        4.8 secs

     total energy              =    -503.97845443 Ry
     estimated scf accuracy    <       0.00011117 Ry

     iteration #  7     ecut=    30.00 Ry     beta= 0.50
     Davidson diagonalization with overlap
     ethr =  4.34E-08,  avg # of iterations =  5.0

     total cpu time spent up to now is        4.9 secs

     total energy              =    -503.97846227 Ry
     estimated scf accuracy    <       0.00001649 Ry

     iteration #  8     ecut=    30.00 Ry     beta= 0.50
     Davidson diagonalization with overlap
     ethr =  6.44E-09,  avg # of iterations =  5.0

     total cpu time spent up to now is        5.0 secs

     End of self-consistent calculation

          k = 0.0000 0.0000 0.0000 ( 12471 PWs)   bands (ev):

    -5.8420  -4.8317  -4.8134  -4.8050  -4.7927  -4.7825  -4.7112  -3.9245
    -3.9221  -3.9137  -3.9026  -3.8917  -3.8748  -3.8683  -3.8529  -3.8113
    -3.7947  -3.7900  -3.7798  -3.6460  -3.5991  -3.5876  -3.4658  -1.8837
    -1.8735  -1.8444  -1.8329  -1.8097  -1.7534  -1.7297  -1.7186  -1.7055
    -1.6882  -1.6769  -1.6708  -1.6481  -1.6346  -1.6290  -1.6237  -1.6003
    -1.5851  -0.9850  -0.9139  -0.8977  -0.8881   0.4334   0.4364   0.4432
     0.4501   0.4566   0.4627   0.4663   0.4672   0.4770   0.4868   0.5239
     0.5268   2.1344   2.1378   2.1420   2.1445   2.1495   2.1523   2.1544
     2.1575   2.1752   2.1807   2.1829   2.1849   2.2408   2.2450   2.2477
     2.2497   2.2545   2.2590   2.2652   2.2706   2.2768   2.3016   2.3064
     2.3456   2.3839   2.4053   2.4095   2.4123   2.4216   2.4361   3.0672
     3.0842   3.1303   3.1380   3.1790   3.1835   3.9655   3.9706   4.0541
     4.0591   4.0647   4.0759   4.0813   4.0908   4.1038   4.1074   4.1142
     4.1479   4.4975   4.5226   4.5307   4.5368   4.5821   4.5907   4.6077
     4.6140   4.6204   4.6394   4.6517   4.6628   4.6662   4.6703   4.6875
     4.7469   4.7547   4.7861   4.8138   4.9532   5.8317   5.9230   5.9471
     6.5715   6.5887   6.6059   6.6161   6.7225   6.7295   6.9634   7.0332
     7.0395   7.0556   7.0639   7.0733   7.2639   7.2683   7.2711   7.2909
     8.1899   8.2153   8.2162   8.2861   8.2920   8.2953   8.3118   8.3187
     8.3260   8.3336

     the Fermi energy is     6.2125 ev

!    total energy              =    -503.97846607 Ry
     estimated scf accuracy    <       0.00000041 Ry
     smearing contrib. (-TS)   =      -0.04279485 Ry
     internal energy E=F+TS    =    -503.93567122 Ry

     The total energy is F=E-TS. E is the sum of the following terms:
     one-electron contribution =     143.00112879 Ry
     hartree contribution      =      37.09474917 Ry
     xc contribution           =    -153.18727262 Ry
     ewald contribution        =    -530.84427656 Ry

     convergence has been achieved in   8 iterations

     Forces acting on atoms (cartesian axes, Ry/au):

     atom    1 type  1   force =     0.00082633   -0.00737204   -0.02433490
     atom    2 type  1   force =    -0.00227059   -0.00180128    0.00359326
     atom    3 type  1   force =     0.00455308   -0.01165159   -0.00278412
     atom    4 type  1   force =     0.00265404   -0.00320094   -0.02890227
     atom    5 type  1   force =    -0.00469137    0.00063088   -0.00547428
     atom    6 type  1   force =    -0.00340292   -0.00755379   -0.02574242
     atom    7 type  1   force =    -0.00014332   -0.00007671   -0.00238472
     atom    8 type  1   force =    -0.00416004   -0.00356515    0.00041750
     atom    9 type  1   force =     0.00375541   -0.00546545    0.00260068
     atom   10 type  1   force =     0.00375841    0.00116120   -0.03181620
     atom   11 type  1   force =    -0.00541251    0.00230416   -0.02072817
     atom   12 type  1   force =    -0.00273500    0.00519053   -0.00258997
     atom   13 type  1   force =    -0.00258102   -0.00545961    0.00023973
     atom   14 type  1   force =     0.00527850    0.00211424   -0.00428297
     atom   15 type  1   force =    -0.00509107   -0.00108634   -0.02466004
     atom   16 type  1   force =    -0.00021512    0.00165815   -0.00280956
     atom   17 type  1   force =     0.00645957   -0.00144685   -0.00946254
     atom   18 type  1   force =    -0.00354510    0.00206487    0.00576242
     atom   19 type  1   force =    -0.00682119   -0.00126668   -0.00728402
     atom   20 type  1   force =     0.00388845    0.00477794   -0.02417746
     atom   21 type  1   force =    -0.00240485    0.01116480   -0.00555867
     atom   22 type  1   force =     0.00165272   -0.00286027    0.00247828
     atom   23 type  1   force =    -0.00239298   -0.00242135   -0.02960399
     atom   24 type  1   force =     0.00527654    0.00781183    0.00387670
     atom   25 type  1   force =     0.00178548   -0.00559866    0.00984097
     atom   26 type  1   force =     0.00205667    0.00392221   -0.00266392
     atom   27 type  1   force =    -0.00502755   -0.00475789   -0.00161438
     atom   28 type  1   force =    -0.00113081    0.00216567    0.00065816
     atom   29 type  1   force =    -0.00246695   -0.00585745    0.00150865
     atom   30 type  1   force =    -0.00185390   -0.00085266    0.00350165
     atom   31 type  1   force =    -0.00336905    0.00034961   -0.00928526
     atom   32 type  1   force =     0.00565134    0.00324666    0.00483848
     atom   33 type  1   force =     0.00080723   -0.00475048    0.00086761
     atom   34 type  1   force =    -0.00046758    0.00087833    0.00720015
     atom   35 type  1   force =     0.00172497   -0.00484039   -0.00396266
     atom   36 type  1   force =     0.00111288    0.00452570   -0.00365849
     atom   37 type  1   force =     0.00216259   -0.00027401   -0.00287534
     atom   38 type  1   force =    -0.00593089    0.00240745   -0.00353607
     atom   39 type  1   force =     0.00248334   -0.00115653    0.00325580
     atom   40 type  1   force =    -0.00088555    0.00380026   -0.00437034
     atom   41 type  1   force =    -0.00214175    0.00325659   -0.00139889
     atom   42 type  1   force =     0.00043568   -0.00283064   -0.00599026
     atom   43 type  1   force =     0.00368714    0.00505652    0.00147029
     atom   44 type  1   force =     0.00025284    0.00427187    0.00350913
     atom   45 type  1   force =     0.00077863    0.00526817   -0.00633870
     atom   46 type  1   force =    -0.00386989    0.00692298    0.00017478
     atom   47 type  1   force =     0.00618241   -0.00141643    0.00617270
     atom   48 type  1   force =     0.00013030    0.00203397   -0.00599976
     atom   49 type  1   force =     0.00160119    0.00371909    0.00538300
     atom   50 type  1   force =    -0.00156994   -0.01315421    0.00486741
     atom   51 type  1   force =     0.00065188    0.00216427    0.02935748
     atom   52 type  1   force =     0.00643426   -0.00007465    0.00661864
     atom   53 type  1   force =     0.00114468   -0.00318192    0.00604275
     atom   54 type  1   force =    -0.00358927    0.00186276    0.02697574
     atom   55 type  1   force =    -0.00182489   -0.00273159    0.02284473
     atom   56 type  1   force =     0.00058997   -0.00078481    0.00148690
     atom   57 type  1   force =     0.00216272   -0.00090521    0.02179185
     atom   58 type  1   force =     0.00495972    0.00148224    0.02300065
     atom   59 type  1   force =    -0.00063804   -0.00451299    0.00906718
     atom   60 type  1   force =     0.00339431    0.00343985    0.02431588
     atom   61 type  1   force =    -0.00915499   -0.00098373    0.00369645
     atom   62 type  1   force =     0.00404552    0.01279727    0.02407912
     atom   63 type  1   force =    -0.00017938   -0.00109056    0.01019786
     atom   64 type  1   force =    -0.00237125    0.00253277    0.02259780

     Total force =     0.117294     Total SCF correction =     0.000884


     Computing stress (Cartesian axis) and pressure

          total   stress  (Ry/bohr**3)                   (kbar)     P=       -3.38
  -0.00004151   0.00002017   0.00000846           -6.11        2.97        1.25
   0.00002017  -0.00003030  -0.00000094            2.97       -4.46       -0.14
   0.00000846  -0.00000094   0.00000281            1.25       -0.14        0.41

 
     init_run     :      1.02s CPU      3.87s WALL (       1 calls)
     electrons    :      1.02s CPU      1.11s WALL (       1 calls)
     forces       :      0.03s CPU      0.04s WALL (       1 calls)
     stress       :      0.15s CPU      0.16s WALL (       1 calls)

     Called by init_run:
     wfcinit      :      0.68s CPU      3.40s WALL (       1 calls)
                                        3.40s GPU  (       1 calls)
     potinit      :      0.15s CPU      0.21s WALL (       1 calls)
     hinit0       :      0.17s CPU      0.20s WALL (       1 calls)

     Called by electrons:
     c_bands      :      0.72s CPU      0.77s WALL (       9 calls)
     sum_band     :      0.17s CPU      0.20s WALL (       9 calls)
     v_of_rho     :      0.08s CPU      0.14s WALL (       9 calls)
     mix_rho      :      0.05s CPU      0.06s WALL (       9 calls)

     Called by c_bands:
     init_us_2    :      0.02s CPU      0.03s WALL (      19 calls)
     init_us_2:gp :      0.02s CPU      0.02s WALL (      19 calls)
     regterg      :      0.66s CPU      0.70s WALL (       9 calls)

     Called by *egterg:
     rdiaghg      :      0.26s CPU      0.85s WALL (      59 calls)
                                        0.84s GPU  (      59 calls)
     h_psi        :      0.95s CPU      3.12s WALL (      61 calls)
                                        3.12s GPU  (      61 calls)
     g_psi        :      0.00s CPU      0.00s WALL (      51 calls)
                                        0.00s GPU  (      51 calls)

     Called by h_psi:
     h_psi:calbec :      0.62s CPU      2.72s WALL (      61 calls)
                                        2.72s GPU  (      61 calls)
     vloc_psi     :      0.31s CPU      0.36s WALL (      61 calls)
                                        0.36s GPU  (      61 calls)
     add_vuspsi   :      0.02s CPU      0.03s WALL (      61 calls)
                                        0.03s GPU  (      61 calls)

     General routines
     calbec       :      0.62s CPU      2.73s WALL (      66 calls)
     fft          :      0.19s CPU      0.28s WALL (      79 calls)
                                        0.09s GPU  (      51 calls)
     ffts         :      0.02s CPU      0.02s WALL (       9 calls)
     fftw         :      0.33s CPU      0.46s WALL (    1001 calls)
                                        0.42s GPU  (    1001 calls)
 
     Parallel routines
 
     PWSCF        :      2.26s CPU      5.25s WALL

 
   This run was terminated on:  11: 9: 9  10May2023            

=------------------------------------------------------------------------------=
   JOB DONE.
=------------------------------------------------------------------------------=
