An instance of this daemon is already running

     Program PWSCF v.7.1 starts on 10May2023 at 11: 7:43 

     This program is part of the open-source Quantum ESPRESSO suite
     for quantum simulation of materials; please cite
         "P. Giannozzi et al., J. Phys.:Condens. Matter 21 395502 (2009);
         "P. Giannozzi et al., J. Phys.:Condens. Matter 29 465901 (2017);
         "P. Giannozzi et al., J. Chem. Phys. 152 154105 (2020);
          URL http://www.quantum-espresso.org", 
     in publications or presentations arising from this work. More details at
     http://www.quantum-espresso.org/quote

     Parallel version (MPI & OpenMP), running on       4 processor cores
     Number of MPI processes:                 4
     Threads/MPI process:                     1

     MPI processes distributed on     1 nodes
     152822 MiB available memory on the printing compute node when the environment starts
 
     Reading input from pw-si-85.in
Warning: card &CELL ignored
Warning: card / ignored

     Current dimensions of program PWSCF are:
     Max number of different atomic species (ntypx) = 10
     Max number of k-points (npk) =  40000
     Max angular momentum in pseudopotentials (lmaxx) =  4

     IMPORTANT: XC functional enforced from input :
     Exchange-correlation= PBE
                           (   1   4   3   4   0   0   0)
     Any further DFT definition will be discarded
     Please, verify this is what you really want


     gamma-point specific algorithms are used
 
     K-points division:     npool     =       2
     R & G space division:  proc/nbgrp/npool/nimage =       2
     Subspace diagonalization in iterative solution of the eigenvalue problem:
     a serial algorithm will be used

     Message from routine divide_et_impera:
     suboptimal parallelization: some nodes have no k-points
 
     Parallelization info
     --------------------
     sticks:   dense  smooth     PW     G-vecs:    dense   smooth      PW
     Min        2038    2038    542                97565    97565   13282
     Max        2039    2039    543                97566    97566   13287
     Sum        4077    4077   1085               195131   195131   26569
 
     Using Slab Decomposition
 


     bravais-lattice index     =            0
     lattice parameter (alat)  =      20.7120  a.u.
     unit-cell volume          =    8794.6803 (a.u.)^3
     number of atoms/cell      =           64
     number of atomic types    =            1
     number of electrons       =       256.00
     number of Kohn-Sham states=          154
     kinetic-energy cutoff     =      30.0000  Ry
     charge density cutoff     =     120.0000  Ry
     scf convergence threshold =      1.0E-06
     mixing beta               =       0.5000
     number of iterations used =            8  plain     mixing
     Exchange-correlation= PBE
                           (   1   4   3   4   0   0   0)

     GPU acceleration is ACTIVE.
     GPU-aware MPI enabled

     Message from routine print_cuda_info:
     High GPU oversubscription detected. Are you sure this is what you want?

     celldm(1)=  20.712008  celldm(2)=   0.000000  celldm(3)=   0.000000
     celldm(4)=   0.000000  celldm(5)=   0.000000  celldm(6)=   0.000000

     crystal axes: (cart. coord. in units of alat)
               a(1) = (   1.000000   0.000000   0.000000 )  
               a(2) = (   0.000000   0.997681   0.000000 )  
               a(3) = (   0.000000   0.000000   0.992114 )  

     reciprocal axes: (cart. coord. in units 2 pi/alat)
               b(1) = (  1.000000  0.000000  0.000000 )  
               b(2) = (  0.000000  1.002324  0.000000 )  
               b(3) = (  0.000000  0.000000  1.007949 )  


     PseudoPot. # 1 for Si read from file:
     /home/ppiaggi/pseudos/Si_ONCV_PBE_sr.upf
     MD5 check sum: 8553c464762ac42b85b1eed164b4d029
     Pseudo is Norm-conserving, Zval =  4.0
     Generated using ONCVPSP code by D. R. Hamann
     Using radial grid of 1510 points,  4 beta functions with: 
                l(1) =   0
                l(2) =   0
                l(3) =   1
                l(4) =   1

     atomic species   valence    mass     pseudopotential
        Si             4.00    28.08500     Si( 1.00)

     No symmetry found



   Cartesian axes

     site n.     atom                  positions (alat units)
         1           Si  tau(   1) = (  -0.0006287  -0.0000839  -0.0000723  )
         2           Si  tau(   2) = (  -0.0003091   0.2470140   0.2478990  )
         3           Si  tau(   3) = (   0.2508184  -0.0004672   0.2473411  )
         4           Si  tau(   4) = (   0.2514208   0.2474621  -0.0007608  )
         5           Si  tau(   5) = (   0.1251981   0.1235660   0.1237571  )
         6           Si  tau(   6) = (   0.5028736   0.0003131  -0.0008327  )
         7           Si  tau(   7) = (   0.5040157   0.2464554   0.2472801  )
         8           Si  tau(   8) = (   0.6298426   0.1231491   0.1245085  )
         9           Si  tau(   9) = (   0.7540363  -0.0005129   0.2472342  )
        10           Si  tau(  10) = (   0.7543563   0.2464940  -0.0001531  )
        11           Si  tau(  11) = (  -0.0005789   0.4947779   0.0002025  )
        12           Si  tau(  12) = (   0.2521784   0.4932484   0.2474471  )
        13           Si  tau(  13) = (   0.1266982   0.6179994   0.1237083  )
        14           Si  tau(  14) = (   0.3770521   0.3710534   0.1240930  )
        15           Si  tau(  15) = (   0.5035621   0.4939165  -0.0005862  )
        16           Si  tau(  16) = (   0.6292450   0.6182867   0.1233118  )
        17           Si  tau(  17) = (   0.8805047   0.3708147   0.1241768  )
        18           Si  tau(  18) = (   0.7551331   0.4932613   0.2464537  )
        19           Si  tau(  19) = (  -0.0006984   0.7414103   0.2473984  )
        20           Si  tau(  20) = (   0.2521255   0.7410521  -0.0001700  )
        21           Si  tau(  21) = (   0.3764651   0.8648346   0.1241827  )
        22           Si  tau(  22) = (   0.5029307   0.7407601   0.2470012  )
        23           Si  tau(  23) = (   0.7541403   0.7411018  -0.0003977  )
        24           Si  tau(  24) = (   0.8808586   0.8652360   0.1243443  )
        25           Si  tau(  25) = (  -0.0003990   0.0005822   0.4953221  )
        26           Si  tau(  26) = (   0.2524213   0.2466210   0.4947943  )
        27           Si  tau(  27) = (   0.1251215   0.1241512   0.6177680  )
        28           Si  tau(  28) = (   0.3771050   0.1229923   0.3717344  )
        29           Si  tau(  29) = (   0.5032070  -0.0003741   0.4946126  )
        30           Si  tau(  30) = (   0.6297920   0.1236590   0.6175584  )
        31           Si  tau(  31) = (   0.8806146   0.1229030   0.3704201  )
        32           Si  tau(  32) = (   0.7538181   0.2469089   0.4944383  )
        33           Si  tau(  33) = (   0.1265737   0.3703899   0.3716618  )
        34           Si  tau(  34) = (   0.0000414   0.4934355   0.4939770  )
        35           Si  tau(  35) = (   0.1253079   0.6174609   0.6173258  )
        36           Si  tau(  36) = (   0.6292956   0.3711743   0.3716111  )
        37           Si  tau(  37) = (   0.3765269   0.6166282   0.3704807  )
        38           Si  tau(  38) = (   0.3779767   0.3701070   0.6178149  )
        39           Si  tau(  39) = (   0.5032505   0.4941897   0.4940166  )
        40           Si  tau(  40) = (   0.6295254   0.6169050   0.6182508  )
        41           Si  tau(  41) = (   0.8802081   0.6178815   0.3707065  )
        42           Si  tau(  42) = (   0.8803538   0.3708341   0.6183631  )
        43           Si  tau(  43) = (   0.1262219   0.8636172   0.3707492  )
        44           Si  tau(  44) = (   0.2511980   0.7411131   0.4941977  )
        45           Si  tau(  45) = (   0.6295788   0.8640608   0.3710200  )
        46           Si  tau(  46) = (   0.3779757   0.8647801   0.6177048  )
        47           Si  tau(  47) = (   0.7538387   0.7402109   0.4952942  )
        48           Si  tau(  48) = (   0.8807740   0.8640786   0.6176885  )
        49           Si  tau(  49) = (   0.0005660   0.2477961   0.7408713  )
        50           Si  tau(  50) = (   0.2508311   0.0005043   0.7417723  )
        51           Si  tau(  51) = (   0.3777695   0.1235610   0.8653511  )
        52           Si  tau(  52) = (   0.5039062   0.2466472   0.7412809  )
        53           Si  tau(  53) = (   0.7540073  -0.0004446   0.7422624  )
        54           Si  tau(  54) = (   0.8805409   0.1227481   0.8645529  )
        55           Si  tau(  55) = (   0.1264542   0.3700189   0.8645778  )
        56           Si  tau(  56) = (   0.2509853   0.4938115   0.7409827  )
        57           Si  tau(  57) = (   0.6294001   0.3700948   0.8645163  )
        58           Si  tau(  58) = (   0.3780177   0.6168606   0.8647200  )
        59           Si  tau(  59) = (   0.7552847   0.4943649   0.7417190  )
        60           Si  tau(  60) = (   0.8809227   0.6167082   0.8659749  )
        61           Si  tau(  61) = (   0.0008553   0.7401216   0.7423631  )
        62           Si  tau(  62) = (   0.1253584   0.8641465   0.8652895  )
        63           Si  tau(  63) = (   0.5034925   0.7414309   0.7421147  )
        64           Si  tau(  64) = (   0.6282753   0.8651708   0.8646883  )

     number of k points=     1  Fermi-Dirac smearing, width (Ry)=  0.0100
                       cart. coord. in units 2pi/alat
        k(    1) = (   0.0000000   0.0000000   0.0000000), wk =   2.0000000

     Dense  grid:    97566 G-vectors     FFT dimensions: (  75,  75,  72)

     Estimated max dynamical RAM per process >     156.56 MB

     Estimated total dynamical RAM >     602.42 MB

     Initial potential from superposition of free atoms

     starting charge     255.9608, renormalised to     256.0000
     Starting wfcs are  256 randomized atomic wfcs

     total cpu time spent up to now is        4.1 secs

     Self-consistent Calculation

     iteration #  1     ecut=    30.00 Ry     beta= 0.50
     Davidson diagonalization with overlap
     ethr =  1.00E-02,  avg # of iterations =  3.0

     Threshold (ethr) on eigenvalues was too large:
     Diagonalizing with lowered threshold

     Davidson diagonalization with overlap
     ethr =  6.66E-04,  avg # of iterations =  2.0

     total cpu time spent up to now is        4.3 secs

     total energy              =    -503.95000993 Ry
     estimated scf accuracy    <       1.88495347 Ry

     iteration #  2     ecut=    30.00 Ry     beta= 0.50
     Davidson diagonalization with overlap
     ethr =  7.36E-04,  avg # of iterations =  1.0

     total cpu time spent up to now is        4.4 secs

     total energy              =    -503.93119319 Ry
     estimated scf accuracy    <       0.35054324 Ry

     iteration #  3     ecut=    30.00 Ry     beta= 0.50
     Davidson diagonalization with overlap
     ethr =  1.37E-04,  avg # of iterations =  4.0

     total cpu time spent up to now is        4.5 secs

     total energy              =    -503.95376445 Ry
     estimated scf accuracy    <       0.01039678 Ry

     iteration #  4     ecut=    30.00 Ry     beta= 0.50
     Davidson diagonalization with overlap
     c_bands:  2 eigenvalues not converged
     ethr =  4.06E-06,  avg # of iterations = 20.0

     total cpu time spent up to now is        4.7 secs

     total energy              =    -503.95623820 Ry
     estimated scf accuracy    <       0.00929050 Ry

     iteration #  5     ecut=    30.00 Ry     beta= 0.50
     Davidson diagonalization with overlap
     ethr =  3.63E-06,  avg # of iterations =  5.0

     total cpu time spent up to now is        4.9 secs

     total energy              =    -503.95793925 Ry
     estimated scf accuracy    <       0.00076709 Ry

     iteration #  6     ecut=    30.00 Ry     beta= 0.50
     Davidson diagonalization with overlap
     ethr =  3.00E-07,  avg # of iterations =  2.0

     total cpu time spent up to now is        5.0 secs

     total energy              =    -503.95798537 Ry
     estimated scf accuracy    <       0.00015438 Ry

     iteration #  7     ecut=    30.00 Ry     beta= 0.50
     Davidson diagonalization with overlap
     ethr =  6.03E-08,  avg # of iterations =  5.0

     total cpu time spent up to now is        5.1 secs

     total energy              =    -503.95800522 Ry
     estimated scf accuracy    <       0.00000878 Ry

     iteration #  8     ecut=    30.00 Ry     beta= 0.50
     Davidson diagonalization with overlap
     ethr =  3.43E-09,  avg # of iterations =  4.0

     total cpu time spent up to now is        5.2 secs

     total energy              =    -503.95800860 Ry
     estimated scf accuracy    <       0.00000215 Ry

     iteration #  9     ecut=    30.00 Ry     beta= 0.50
     Davidson diagonalization with overlap
     ethr =  8.40E-10,  avg # of iterations =  4.0

     total cpu time spent up to now is        5.3 secs

     End of self-consistent calculation

          k = 0.0000 0.0000 0.0000 ( 12180 PWs)   bands (ev):

    -5.7834  -4.7693  -4.7497  -4.7299  -4.6887  -4.6817  -4.6447  -3.8576
    -3.8502  -3.8258  -3.7941  -3.7864  -3.7741  -3.7592  -3.7370  -3.7200
    -3.7116  -3.6727  -3.6631  -3.5312  -3.4819  -3.4585  -3.3383  -1.7683
    -1.7605  -1.7153  -1.7013  -1.6691  -1.6423  -1.5924  -1.5833  -1.5637
    -1.5491  -1.5403  -1.5336  -1.5143  -1.4801  -1.4731  -1.4592  -1.4505
    -1.4093  -0.8910  -0.8263  -0.7998  -0.7428   0.5738   0.5783   0.5887
     0.5951   0.6207   0.6331   0.6413   0.6450   0.6607   0.6620   0.6723
     0.6770   2.2172   2.2243   2.2345   2.2398   2.2557   2.2599   2.2672
     2.2709   2.2818   2.2917   2.3084   2.3116   2.3543   2.3672   2.3740
     2.3849   2.3944   2.4116   2.4222   2.4276   2.4309   2.4359   2.4451
     2.4567   2.5480   2.5638   2.6048   2.6125   2.6268   2.6403   3.2295
     3.2409   3.2634   3.2828   3.2903   3.3328   4.1587   4.1669   4.1747
     4.1795   4.1865   4.2138   4.2441   4.2464   4.2569   4.2787   4.2993
     4.3570   4.6223   4.6977   4.7206   4.7214   4.7434   4.7519   4.7586
     4.7697   4.7962   4.8059   4.8198   4.8361   4.8590   4.8766   4.8832
     4.9196   4.9279   4.9582   4.9917   5.2046   6.0281   6.0654   6.1976
     6.7059   6.7302   6.7806   6.8106   6.8430   6.8930   7.1657   7.1870
     7.1958   7.2320   7.2561   7.2682   7.5131   7.5257   7.5335   7.5551
     8.4237   8.4374   8.4433   8.4493   8.4603   8.4703   8.4765   8.4913
     8.5416   8.5470

     the Fermi energy is     6.3921 ev

!    total energy              =    -503.95800865 Ry
     estimated scf accuracy    <       0.00000065 Ry
     smearing contrib. (-TS)   =      -0.04728108 Ry
     internal energy E=F+TS    =    -503.91072757 Ry

     The total energy is F=E-TS. E is the sum of the following terms:
     one-electron contribution =     147.38969727 Ry
     hartree contribution      =      36.63441042 Ry
     xc contribution           =    -153.81113821 Ry
     ewald contribution        =    -534.12369704 Ry

     convergence has been achieved in   9 iterations

     Forces acting on atoms (cartesian axes, Ry/au):

     atom    1 type  1   force =     0.01953285   -0.02719253   -0.00673375
     atom    2 type  1   force =     0.02290956    0.00181130   -0.00095619
     atom    3 type  1   force =     0.00094022   -0.02410165    0.00155574
     atom    4 type  1   force =     0.00153383   -0.00249932   -0.00372945
     atom    5 type  1   force =     0.00414595   -0.00256179   -0.00367665
     atom    6 type  1   force =    -0.00059178   -0.02734700   -0.00078702
     atom    7 type  1   force =    -0.00586742    0.00325266    0.00360381
     atom    8 type  1   force =    -0.00554555   -0.00438782   -0.00847514
     atom    9 type  1   force =     0.00265964   -0.02770383    0.00321570
     atom   10 type  1   force =     0.00254775    0.00155017   -0.00862163
     atom   11 type  1   force =     0.02777362   -0.00448135   -0.00763913
     atom   12 type  1   force =    -0.00657256    0.00410597   -0.00079415
     atom   13 type  1   force =    -0.00126686   -0.00188104   -0.00010667
     atom   14 type  1   force =     0.00670014   -0.00706968   -0.00579063
     atom   15 type  1   force =    -0.00069719    0.00074087   -0.00684069
     atom   16 type  1   force =    -0.00153891   -0.00567857   -0.00119228
     atom   17 type  1   force =    -0.01863946   -0.00644244   -0.00696527
     atom   18 type  1   force =    -0.00613362    0.00837520    0.00442383
     atom   19 type  1   force =     0.02487137    0.00103304   -0.00032613
     atom   20 type  1   force =    -0.00015669    0.00303684   -0.01099745
     atom   21 type  1   force =     0.00577504    0.02745107   -0.00458579
     atom   22 type  1   force =    -0.00199252    0.00483266    0.00245473
     atom   23 type  1   force =     0.00247457    0.00819943   -0.00858458
     atom   24 type  1   force =    -0.02394488    0.02561665   -0.00913132
     atom   25 type  1   force =     0.02063936   -0.03368195   -0.00268285
     atom   26 type  1   force =    -0.00299379    0.00100795    0.00080049
     atom   27 type  1   force =     0.00691977   -0.00497996    0.00100241
     atom   28 type  1   force =     0.00346781   -0.00418964   -0.00711054
     atom   29 type  1   force =     0.00191805   -0.02638807   -0.00018347
     atom   30 type  1   force =    -0.00422123   -0.00791097    0.00236122
     atom   31 type  1   force =    -0.02453452   -0.00195322    0.00248185
     atom   32 type  1   force =     0.00623005    0.00137261   -0.00067064
     atom   33 type  1   force =     0.00144906   -0.00431024   -0.00352894
     atom   34 type  1   force =     0.01761784    0.00482338    0.00072439
     atom   35 type  1   force =     0.00437432   -0.00135194    0.00106317
     atom   36 type  1   force =    -0.00152810   -0.00439527   -0.00655539
     atom   37 type  1   force =     0.00537876    0.00489370    0.00127839
     atom   38 type  1   force =     0.00083876    0.00056275    0.00168750
     atom   39 type  1   force =    -0.00237873    0.00203319    0.00333831
     atom   40 type  1   force =    -0.00580316    0.00160370    0.00239903
     atom   41 type  1   force =    -0.02085169   -0.00431237    0.00006804
     atom   42 type  1   force =    -0.02080532   -0.00304558   -0.00423788
     atom   43 type  1   force =    -0.00311846    0.03335061    0.00105524
     atom   44 type  1   force =     0.00411465    0.00167858    0.00239935
     atom   45 type  1   force =    -0.00510754    0.02636707   -0.00061939
     atom   46 type  1   force =    -0.00322268    0.02606285    0.00242767
     atom   47 type  1   force =     0.00341784    0.00629144   -0.00300691
     atom   48 type  1   force =    -0.01941496    0.02708881    0.00397563
     atom   49 type  1   force =     0.01497598   -0.00405411    0.00599609
     atom   50 type  1   force =     0.00170522   -0.02907042    0.00013097
     atom   51 type  1   force =    -0.00155130   -0.00190790    0.00659937
     atom   52 type  1   force =    -0.00295387    0.00003947    0.00117396
     atom   53 type  1   force =     0.00108966   -0.02718801   -0.00465079
     atom   54 type  1   force =    -0.01836121    0.00105185    0.01025793
     atom   55 type  1   force =    -0.00291108    0.00412632    0.01328548
     atom   56 type  1   force =     0.00423188    0.00241621    0.00013103
     atom   57 type  1   force =    -0.00034864   -0.00033057    0.01215658
     atom   58 type  1   force =    -0.00248208    0.00151270    0.00999529
     atom   59 type  1   force =    -0.00306505   -0.00082628    0.00270282
     atom   60 type  1   force =    -0.02306117    0.00555949    0.00683553
     atom   61 type  1   force =     0.01388197    0.00601774   -0.00268954
     atom   62 type  1   force =     0.00666771    0.02859167    0.01075338
     atom   63 type  1   force =    -0.00224728    0.00023490   -0.00383647
     atom   64 type  1   force =     0.00312607    0.02455068    0.01337183

     Total force =     0.151051     Total SCF correction =     0.001551


     Computing stress (Cartesian axis) and pressure

          total   stress  (Ry/bohr**3)                   (kbar)     P=       14.01
   0.00007812   0.00000871   0.00003086           11.49        1.28        4.54
   0.00000871   0.00008811  -0.00003179            1.28       12.96       -4.68
   0.00003086  -0.00003179   0.00011958            4.54       -4.68       17.59

 
     init_run     :      0.86s CPU      4.07s WALL (       1 calls)
     electrons    :      1.07s CPU      1.19s WALL (       1 calls)
     forces       :      0.04s CPU      0.04s WALL (       1 calls)
     stress       :      0.15s CPU      0.15s WALL (       1 calls)

     Called by init_run:
     wfcinit      :      0.42s CPU      3.49s WALL (       1 calls)
                                        3.49s GPU  (       1 calls)
     potinit      :      0.15s CPU      0.24s WALL (       1 calls)
     hinit0       :      0.26s CPU      0.28s WALL (       1 calls)

     Called by electrons:
     c_bands      :      0.76s CPU      0.83s WALL (      10 calls)
     sum_band     :      0.18s CPU      0.20s WALL (      10 calls)
     v_of_rho     :      0.08s CPU      0.17s WALL (      10 calls)
     mix_rho      :      0.05s CPU      0.06s WALL (      10 calls)

     Called by c_bands:
     init_us_2    :      0.03s CPU      0.03s WALL (      21 calls)
     init_us_2:gp :      0.03s CPU      0.03s WALL (      21 calls)
     regterg      :      0.68s CPU      0.75s WALL (      10 calls)

     Called by *egterg:
     rdiaghg      :      0.28s CPU      0.93s WALL (      59 calls)
                                        0.92s GPU  (      59 calls)
     h_psi        :      0.71s CPU      3.17s WALL (      61 calls)
                                        3.17s GPU  (      61 calls)
     g_psi        :      0.00s CPU      0.00s WALL (      50 calls)
                                        0.00s GPU  (      50 calls)

     Called by h_psi:
     h_psi:calbec :      0.38s CPU      2.78s WALL (      61 calls)
                                        2.78s GPU  (      61 calls)
     vloc_psi     :      0.30s CPU      0.36s WALL (      61 calls)
                                        0.35s GPU  (      61 calls)
     add_vuspsi   :      0.02s CPU      0.03s WALL (      61 calls)
                                        0.03s GPU  (      61 calls)

     General routines
     calbec       :      0.38s CPU      2.78s WALL (      66 calls)
     fft          :      0.28s CPU      0.39s WALL (      87 calls)
                                        0.11s GPU  (      56 calls)
     ffts         :      0.02s CPU      0.02s WALL (      10 calls)
     fftw         :      0.34s CPU      0.45s WALL (    1100 calls)
                                        0.41s GPU  (    1100 calls)
 
     Parallel routines
 
     PWSCF        :      2.15s CPU      5.51s WALL

 
   This run was terminated on:  11: 7:48  10May2023            

=------------------------------------------------------------------------------=
   JOB DONE.
=------------------------------------------------------------------------------=
