An instance of this daemon is already running

     Program PWSCF v.7.1 starts on 10May2023 at 10:56:59 

     This program is part of the open-source Quantum ESPRESSO suite
     for quantum simulation of materials; please cite
         "P. Giannozzi et al., J. Phys.:Condens. Matter 21 395502 (2009);
         "P. Giannozzi et al., J. Phys.:Condens. Matter 29 465901 (2017);
         "P. Giannozzi et al., J. Chem. Phys. 152 154105 (2020);
          URL http://www.quantum-espresso.org", 
     in publications or presentations arising from this work. More details at
     http://www.quantum-espresso.org/quote

     Parallel version (MPI & OpenMP), running on       4 processor cores
     Number of MPI processes:                 4
     Threads/MPI process:                     1

     MPI processes distributed on     1 nodes
     152956 MiB available memory on the printing compute node when the environment starts
 
     Reading input from pw-si-7.in
Warning: card &CELL ignored
Warning: card / ignored

     Current dimensions of program PWSCF are:
     Max number of different atomic species (ntypx) = 10
     Max number of k-points (npk) =  40000
     Max angular momentum in pseudopotentials (lmaxx) =  4

     IMPORTANT: XC functional enforced from input :
     Exchange-correlation= PBE
                           (   1   4   3   4   0   0   0)
     Any further DFT definition will be discarded
     Please, verify this is what you really want


     gamma-point specific algorithms are used
 
     K-points division:     npool     =       2
     R & G space division:  proc/nbgrp/npool/nimage =       2
     Subspace diagonalization in iterative solution of the eigenvalue problem:
     a serial algorithm will be used

     Message from routine divide_et_impera:
     suboptimal parallelization: some nodes have no k-points
 
     Parallelization info
     --------------------
     sticks:   dense  smooth     PW     G-vecs:    dense   smooth      PW
     Min        2053    2053    544                99689    99689   13569
     Max        2054    2054    545                99690    99690   13572
     Sum        4107    4107   1089               199379   199379   27141
 
     Using Slab Decomposition
 


     bravais-lattice index     =            0
     lattice parameter (alat)  =      20.8559  a.u.
     unit-cell volume          =    8981.7834 (a.u.)^3
     number of atoms/cell      =           64
     number of atomic types    =            1
     number of electrons       =       256.00
     number of Kohn-Sham states=          154
     kinetic-energy cutoff     =      30.0000  Ry
     charge density cutoff     =     120.0000  Ry
     scf convergence threshold =      1.0E-06
     mixing beta               =       0.5000
     number of iterations used =            8  plain     mixing
     Exchange-correlation= PBE
                           (   1   4   3   4   0   0   0)

     GPU acceleration is ACTIVE.
     GPU-aware MPI enabled

     Message from routine print_cuda_info:
     High GPU oversubscription detected. Are you sure this is what you want?

     celldm(1)=  20.855908  celldm(2)=   0.000000  celldm(3)=   0.000000
     celldm(4)=   0.000000  celldm(5)=   0.000000  celldm(6)=   0.000000

     crystal axes: (cart. coord. in units of alat)
               a(1) = (   1.000000   0.000000   0.000000 )  
               a(2) = (   0.000000   0.987966   0.000000 )  
               a(3) = (   0.000000   0.000000   1.002151 )  

     reciprocal axes: (cart. coord. in units 2 pi/alat)
               b(1) = (  1.000000  0.000000  0.000000 )  
               b(2) = (  0.000000  1.012180  0.000000 )  
               b(3) = (  0.000000  0.000000  0.997854 )  


     PseudoPot. # 1 for Si read from file:
     /home/ppiaggi/pseudos/Si_ONCV_PBE_sr.upf
     MD5 check sum: 8553c464762ac42b85b1eed164b4d029
     Pseudo is Norm-conserving, Zval =  4.0
     Generated using ONCVPSP code by D. R. Hamann
     Using radial grid of 1510 points,  4 beta functions with: 
                l(1) =   0
                l(2) =   0
                l(3) =   1
                l(4) =   1

     atomic species   valence    mass     pseudopotential
        Si             4.00    28.08500     Si( 1.00)

     No symmetry found



   Cartesian axes

     site n.     atom                  positions (alat units)
         1           Si  tau(   1) = (  -0.0002468  -0.0008585   0.0006065  )
         2           Si  tau(   2) = (  -0.0006408   0.2451639   0.2516752  )
         3           Si  tau(   3) = (   0.2521338  -0.0004515   0.2515384  )
         4           Si  tau(   4) = (   0.2519040   0.2465011  -0.0005023  )
         5           Si  tau(   5) = (   0.1264476   0.1238420   0.1260881  )
         6           Si  tau(   6) = (   0.5034168  -0.0004935   0.0001265  )
         7           Si  tau(   7) = (   0.5031467   0.2456027   0.2510773  )
         8           Si  tau(   8) = (   0.6303116   0.1226660   0.1248616  )
         9           Si  tau(   9) = (   0.7565387  -0.0003187   0.2510171  )
        10           Si  tau(  10) = (   0.7564225   0.2454811  -0.0007944  )
        11           Si  tau(  11) = (  -0.0008467   0.4927919   0.0005691  )
        12           Si  tau(  12) = (   0.2527223   0.4916786   0.2513261  )
        13           Si  tau(  13) = (   0.1265083   0.6148766   0.1254669  )
        14           Si  tau(  14) = (   0.3782154   0.3689381   0.1249638  )
        15           Si  tau(  15) = (   0.5046181   0.4925600  -0.0008928  )
        16           Si  tau(  16) = (   0.6292238   0.6156351   0.1261989  )
        17           Si  tau(  17) = (   0.8821244   0.3698949   0.1255256  )
        18           Si  tau(  18) = (   0.7558964   0.4922642   0.2509762  )
        19           Si  tau(  19) = (   0.0008115   0.7385996   0.2512316  )
        20           Si  tau(  20) = (   0.2519297   0.7389192   0.0002977  )
        21           Si  tau(  21) = (   0.3779084   0.8613765   0.1262041  )
        22           Si  tau(  22) = (   0.5047226   0.7387983   0.2521322  )
        23           Si  tau(  23) = (   0.7553987   0.7387717  -0.0004000  )
        24           Si  tau(  24) = (   0.8821578   0.8617641   0.1254604  )
        25           Si  tau(  25) = (   0.0001775   0.0005904   0.5034612  )
        26           Si  tau(  26) = (   0.2521701   0.2457802   0.5028848  )
        27           Si  tau(  27) = (   0.1262697   0.1237740   0.6293820  )
        28           Si  tau(  28) = (   0.3779150   0.1233334   0.3772201  )
        29           Si  tau(  29) = (   0.5032694   0.0007111   0.5019851  )
        30           Si  tau(  30) = (   0.6303584   0.1233671   0.6282379  )
        31           Si  tau(  31) = (   0.8822789   0.1233457   0.3765849  )
        32           Si  tau(  32) = (   0.7548921   0.2466439   0.5027194  )
        33           Si  tau(  33) = (   0.1264036   0.3689854   0.3779463  )
        34           Si  tau(  34) = (   0.0008590   0.4914533   0.5026093  )
        35           Si  tau(  35) = (   0.1259050   0.6147549   0.6283077  )
        36           Si  tau(  36) = (   0.6301340   0.3693864   0.3770093  )
        37           Si  tau(  37) = (   0.3787605   0.6149917   0.3771330  )
        38           Si  tau(  38) = (   0.3770551   0.3693163   0.6286192  )
        39           Si  tau(  39) = (   0.5039147   0.4921411   0.5033963  )
        40           Si  tau(  40) = (   0.6292822   0.6144127   0.6282320  )
        41           Si  tau(  41) = (   0.8810380   0.6144547   0.3771780  )
        42           Si  tau(  42) = (   0.8823301   0.3689181   0.6280969  )
        43           Si  tau(  43) = (   0.1266115   0.8603276   0.3776714  )
        44           Si  tau(  44) = (   0.2521103   0.7377157   0.5031652  )
        45           Si  tau(  45) = (   0.6301572   0.8614973   0.3772191  )
        46           Si  tau(  46) = (   0.3775552   0.8603872   0.6286502  )
        47           Si  tau(  47) = (   0.7559584   0.7376583   0.5021081  )
        48           Si  tau(  48) = (   0.8813644   0.8610018   0.6285678  )
        49           Si  tau(  49) = (   0.0000659   0.2451763   0.7544797  )
        50           Si  tau(  50) = (   0.2510713  -0.0004101   0.7536037  )
        51           Si  tau(  51) = (   0.3770594   0.1223627   0.8801807  )
        52           Si  tau(  52) = (   0.5041591   0.2462372   0.7537287  )
        53           Si  tau(  53) = (   0.7563793   0.0002571   0.7536958  )
        54           Si  tau(  54) = (   0.8821716   0.1237646   0.8803058  )
        55           Si  tau(  55) = (   0.1256608   0.3687807   0.8805648  )
        56           Si  tau(  56) = (   0.2517746   0.4920875   0.7535590  )
        57           Si  tau(  57) = (   0.6288903   0.3694659   0.8790329  )
        58           Si  tau(  58) = (   0.3776610   0.6144921   0.8798179  )
        59           Si  tau(  59) = (   0.7563163   0.4915205   0.7545466  )
        60           Si  tau(  60) = (   0.8809288   0.6146217   0.8806145  )
        61           Si  tau(  61) = (   0.0003642   0.7374984   0.7533568  )
        62           Si  tau(  62) = (   0.1268138   0.8606526   0.8800922  )
        63           Si  tau(  63) = (   0.5042268   0.7378383   0.7546070  )
        64           Si  tau(  64) = (   0.6295808   0.8607262   0.8795667  )

     number of k points=     1  Fermi-Dirac smearing, width (Ry)=  0.0100
                       cart. coord. in units 2pi/alat
        k(    1) = (   0.0000000   0.0000000   0.0000000), wk =   2.0000000

     Dense  grid:    99690 G-vectors     FFT dimensions: (  75,  72,  75)

     Estimated max dynamical RAM per process >     159.71 MB

     Estimated total dynamical RAM >     614.50 MB

     Initial potential from superposition of free atoms

     starting charge     255.9608, renormalised to     256.0000
     Starting wfcs are  256 randomized atomic wfcs

     total cpu time spent up to now is        4.9 secs

     Self-consistent Calculation

     iteration #  1     ecut=    30.00 Ry     beta= 0.50
     Davidson diagonalization with overlap
     ethr =  1.00E-02,  avg # of iterations =  3.0

     Threshold (ethr) on eigenvalues was too large:
     Diagonalizing with lowered threshold

     Davidson diagonalization with overlap
     ethr =  6.42E-04,  avg # of iterations =  4.0

     total cpu time spent up to now is        5.1 secs

     total energy              =    -503.96985769 Ry
     estimated scf accuracy    <       1.82201930 Ry

     iteration #  2     ecut=    30.00 Ry     beta= 0.50
     Davidson diagonalization with overlap
     ethr =  7.12E-04,  avg # of iterations =  1.0

     total cpu time spent up to now is        5.1 secs

     total energy              =    -503.95114199 Ry
     estimated scf accuracy    <       0.34449154 Ry

     iteration #  3     ecut=    30.00 Ry     beta= 0.50
     Davidson diagonalization with overlap
     ethr =  1.35E-04,  avg # of iterations =  4.0

     total cpu time spent up to now is        5.2 secs

     total energy              =    -503.97252213 Ry
     estimated scf accuracy    <       0.00772918 Ry

     iteration #  4     ecut=    30.00 Ry     beta= 0.50
     Davidson diagonalization with overlap
     c_bands:  3 eigenvalues not converged
     ethr =  3.02E-06,  avg # of iterations = 20.0

     total cpu time spent up to now is        5.5 secs

     total energy              =    -503.97453760 Ry
     estimated scf accuracy    <       0.00944287 Ry

     iteration #  5     ecut=    30.00 Ry     beta= 0.50
     Davidson diagonalization with overlap
     ethr =  3.02E-06,  avg # of iterations =  6.0

     total cpu time spent up to now is        5.6 secs

     total energy              =    -503.97626522 Ry
     estimated scf accuracy    <       0.00052891 Ry

     iteration #  6     ecut=    30.00 Ry     beta= 0.50
     Davidson diagonalization with overlap
     ethr =  2.07E-07,  avg # of iterations =  3.0

     total cpu time spent up to now is        5.7 secs

     total energy              =    -503.97630783 Ry
     estimated scf accuracy    <       0.00012807 Ry

     iteration #  7     ecut=    30.00 Ry     beta= 0.50
     Davidson diagonalization with overlap
     ethr =  5.00E-08,  avg # of iterations =  5.0

     total cpu time spent up to now is        5.8 secs

     total energy              =    -503.97631621 Ry
     estimated scf accuracy    <       0.00001952 Ry

     iteration #  8     ecut=    30.00 Ry     beta= 0.50
     Davidson diagonalization with overlap
     ethr =  7.63E-09,  avg # of iterations =  4.0

     total cpu time spent up to now is        5.9 secs

     End of self-consistent calculation

          k = 0.0000 0.0000 0.0000 ( 12498 PWs)   bands (ev):

    -5.8491  -4.8473  -4.8326  -4.8088  -4.7881  -4.7592  -4.7514  -3.9691
    -3.9473  -3.9243  -3.8979  -3.8779  -3.8748  -3.8621  -3.8527  -3.8428
    -3.8107  -3.8027  -3.7838  -3.6343  -3.5944  -3.5756  -3.5305  -1.9209
    -1.8977  -1.8886  -1.8259  -1.7938  -1.7683  -1.7396  -1.7271  -1.7069
    -1.6969  -1.6724  -1.6685  -1.6598  -1.6524  -1.6508  -1.6370  -1.6323
    -1.6143  -0.9861  -0.9457  -0.9247  -0.8697   0.3997   0.4095   0.4175
     0.4252   0.4458   0.4570   0.4622   0.4672   0.4719   0.4855   0.4963
     0.5007   2.0829   2.0933   2.0995   2.1091   2.1392   2.1476   2.1576
     2.1652   2.1694   2.1733   2.1825   2.1915   2.2206   2.2360   2.2444
     2.2477   2.2559   2.2598   2.2698   2.2797   2.2874   2.3104   2.3202
     2.3303   2.3352   2.3569   2.3639   2.3681   2.4133   2.4323   3.0456
     3.0586   3.1097   3.1435   3.1621   3.1745   3.9704   3.9763   3.9892
     4.0146   4.0342   4.0501   4.0548   4.0749   4.1115   4.1181   4.1292
     4.1323   4.3837   4.4817   4.5063   4.5228   4.5307   4.5618   4.6214
     4.6270   4.6320   4.6472   4.6504   4.6572   4.6643   4.6739   4.6785
     4.7594   4.7689   4.7900   4.8065   4.8311   5.8085   5.8745   5.9615
     6.5268   6.5475   6.6085   6.6534   6.6947   6.7087   6.9346   6.9629
     7.0370   7.0517   7.0705   7.0725   7.2319   7.2411   7.2468   7.2621
     8.1626   8.1750   8.1773   8.2050   8.2304   8.2650   8.3149   8.3264
     8.3355   8.3377

     the Fermi energy is     6.1954 ev

!    total energy              =    -503.97632011 Ry
     estimated scf accuracy    <       0.00000091 Ry
     smearing contrib. (-TS)   =      -0.04290930 Ry
     internal energy E=F+TS    =    -503.93341081 Ry

     The total energy is F=E-TS. E is the sum of the following terms:
     one-electron contribution =     142.61397073 Ry
     hartree contribution      =      37.11679903 Ry
     xc contribution           =    -153.12162773 Ry
     ewald contribution        =    -530.54255284 Ry

     convergence has been achieved in   8 iterations

     Forces acting on atoms (cartesian axes, Ry/au):

     atom    1 type  1   force =     0.02928675   -0.00557381    0.00733360
     atom    2 type  1   force =     0.02905157    0.00958400   -0.00259980
     atom    3 type  1   force =    -0.00121386   -0.00786568    0.00147515
     atom    4 type  1   force =     0.00046316   -0.00197687    0.01291452
     atom    5 type  1   force =     0.00088502   -0.00646290   -0.00050109
     atom    6 type  1   force =     0.00097621   -0.01020256    0.00849066
     atom    7 type  1   force =     0.00506580    0.00200069   -0.00072045
     atom    8 type  1   force =    -0.00133726   -0.00105643    0.00422261
     atom    9 type  1   force =    -0.00492945   -0.00823033    0.00091446
     atom   10 type  1   force =    -0.00794128    0.00829156    0.01243144
     atom   11 type  1   force =     0.03056563   -0.00278622    0.00860194
     atom   12 type  1   force =    -0.00116918    0.00095134    0.00024751
     atom   13 type  1   force =     0.00213723    0.00173876    0.00345858
     atom   14 type  1   force =     0.00212608    0.00095343    0.00097964
     atom   15 type  1   force =    -0.00464442   -0.00054121    0.01499269
     atom   16 type  1   force =     0.00376426    0.00034393   -0.00192336
     atom   17 type  1   force =    -0.02619484   -0.00740351    0.00337982
     atom   18 type  1   force =    -0.00494735   -0.00019458    0.00008408
     atom   19 type  1   force =     0.01903107   -0.00363556    0.00194619
     atom   20 type  1   force =     0.00387824   -0.00471029    0.00992242
     atom   21 type  1   force =     0.00259777    0.00904578    0.00159436
     atom   22 type  1   force =    -0.00526328    0.00021977   -0.00174369
     atom   23 type  1   force =    -0.00186900   -0.00074809    0.01436901
     atom   24 type  1   force =    -0.02459435    0.00524386    0.00232681
     atom   25 type  1   force =     0.02345242   -0.01336090   -0.00126655
     atom   26 type  1   force =    -0.00065221    0.00131651    0.00096987
     atom   27 type  1   force =     0.00157483   -0.00471431   -0.00422841
     atom   28 type  1   force =    -0.00153862   -0.00284787   -0.00215372
     atom   29 type  1   force =     0.00211301   -0.01419849    0.00526219
     atom   30 type  1   force =    -0.00332060   -0.00324837   -0.00048117
     atom   31 type  1   force =    -0.02938950   -0.00464975    0.00685616
     atom   32 type  1   force =     0.00393533   -0.00187566   -0.00255760
     atom   33 type  1   force =     0.00219111   -0.00344043   -0.00608207
     atom   34 type  1   force =     0.01921286    0.00376268   -0.00057846
     atom   35 type  1   force =     0.00358218    0.00018495   -0.00121367
     atom   36 type  1   force =    -0.00467206   -0.00093894   -0.00161320
     atom   37 type  1   force =    -0.00085502    0.00087531    0.00097361
     atom   38 type  1   force =     0.00542868   -0.00253956   -0.00123658
     atom   39 type  1   force =    -0.00243560   -0.00252113   -0.00370052
     atom   40 type  1   force =     0.00587093    0.00302685    0.00293370
     atom   41 type  1   force =    -0.01532763    0.00268562   -0.00257775
     atom   42 type  1   force =    -0.02424495   -0.00237936    0.00251218
     atom   43 type  1   force =     0.00044575    0.01569001    0.00080201
     atom   44 type  1   force =     0.00103199   -0.00113597   -0.00208331
     atom   45 type  1   force =     0.00130036    0.01233400    0.00069793
     atom   46 type  1   force =     0.00397474    0.01438947   -0.00069605
     atom   47 type  1   force =    -0.00570636    0.00194043    0.00389459
     atom   48 type  1   force =    -0.02001208    0.01099848   -0.00318042
     atom   49 type  1   force =     0.02374976    0.00682767   -0.00189658
     atom   50 type  1   force =     0.00426399   -0.01082018    0.00173862
     atom   51 type  1   force =     0.00430015    0.00051286   -0.01447129
     atom   52 type  1   force =    -0.00658169   -0.00289681    0.00033662
     atom   53 type  1   force =    -0.00504533   -0.01079324    0.00252576
     atom   54 type  1   force =    -0.02335444   -0.00950717   -0.01211136
     atom   55 type  1   force =     0.00066521    0.00407863   -0.01379384
     atom   56 type  1   force =    -0.00276314   -0.00102096    0.00384151
     atom   57 type  1   force =     0.00741383   -0.00487262   -0.00713219
     atom   58 type  1   force =     0.00016444    0.00452316   -0.00992186
     atom   59 type  1   force =    -0.00538398    0.00166976   -0.00527796
     atom   60 type  1   force =    -0.02115693    0.00655083   -0.01617994
     atom   61 type  1   force =     0.02012116    0.00132259    0.00565419
     atom   62 type  1   force =    -0.00476404    0.01258223   -0.01252477
     atom   63 type  1   force =    -0.00379916   -0.00058279   -0.00384847
     atom   64 type  1   force =     0.00048605    0.01608736   -0.01038829

     Total force =     0.124228     Total SCF correction =     0.001655


     Computing stress (Cartesian axis) and pressure

          total   stress  (Ry/bohr**3)                   (kbar)     P=       -5.08
  -0.00005290  -0.00001553   0.00001073           -7.78       -2.28        1.58
  -0.00001553   0.00001065  -0.00002755           -2.28        1.57       -4.05
   0.00001073  -0.00002755  -0.00006134            1.58       -4.05       -9.02

 
     init_run     :      1.14s CPU      4.79s WALL (       1 calls)
     electrons    :      0.96s CPU      1.04s WALL (       1 calls)
     forces       :      0.04s CPU      0.04s WALL (       1 calls)
     stress       :      0.15s CPU      0.15s WALL (       1 calls)

     Called by init_run:
     wfcinit      :      0.57s CPU      3.97s WALL (       1 calls)
                                        3.97s GPU  (       1 calls)
     potinit      :      0.15s CPU      0.34s WALL (       1 calls)
     hinit0       :      0.40s CPU      0.42s WALL (       1 calls)

     Called by electrons:
     c_bands      :      0.68s CPU      0.71s WALL (       9 calls)
     sum_band     :      0.16s CPU      0.19s WALL (       9 calls)
     v_of_rho     :      0.07s CPU      0.26s WALL (       9 calls)
     mix_rho      :      0.05s CPU      0.05s WALL (       9 calls)

     Called by c_bands:
     init_us_2    :      0.02s CPU      0.02s WALL (      19 calls)
     init_us_2:gp :      0.02s CPU      0.02s WALL (      19 calls)
     regterg      :      0.61s CPU      0.64s WALL (       9 calls)

     Called by *egterg:
     rdiaghg      :      0.27s CPU      1.04s WALL (      58 calls)
                                        1.03s GPU  (      58 calls)
     h_psi        :      0.80s CPU      3.45s WALL (      60 calls)
                                        3.45s GPU  (      60 calls)
     g_psi        :      0.00s CPU      0.00s WALL (      50 calls)
                                        0.00s GPU  (      50 calls)

     Called by h_psi:
     h_psi:calbec :      0.51s CPU      3.10s WALL (      60 calls)
                                        3.10s GPU  (      60 calls)
     vloc_psi     :      0.26s CPU      0.31s WALL (      60 calls)
                                        0.31s GPU  (      60 calls)
     add_vuspsi   :      0.02s CPU      0.03s WALL (      60 calls)
                                        0.03s GPU  (      60 calls)

     General routines
     calbec       :      0.52s CPU      3.11s WALL (      65 calls)
     fft          :      0.40s CPU      0.59s WALL (      79 calls)
                                        0.19s GPU  (      51 calls)
     ffts         :      0.02s CPU      0.02s WALL (       9 calls)
     fftw         :      0.29s CPU      0.39s WALL (     999 calls)
                                        0.35s GPU  (     999 calls)
 
     Parallel routines
 
     PWSCF        :      2.32s CPU      6.12s WALL

 
   This run was terminated on:  10:57: 5  10May2023            

=------------------------------------------------------------------------------=
   JOB DONE.
=------------------------------------------------------------------------------=
