An instance of this daemon is already running

     Program PWSCF v.7.1 starts on 10May2023 at 11: 8: 7 

     This program is part of the open-source Quantum ESPRESSO suite
     for quantum simulation of materials; please cite
         "P. Giannozzi et al., J. Phys.:Condens. Matter 21 395502 (2009);
         "P. Giannozzi et al., J. Phys.:Condens. Matter 29 465901 (2017);
         "P. Giannozzi et al., J. Chem. Phys. 152 154105 (2020);
          URL http://www.quantum-espresso.org", 
     in publications or presentations arising from this work. More details at
     http://www.quantum-espresso.org/quote

     Parallel version (MPI & OpenMP), running on       4 processor cores
     Number of MPI processes:                 4
     Threads/MPI process:                     1

     MPI processes distributed on     1 nodes
     150427 MiB available memory on the printing compute node when the environment starts
 
     Reading input from pw-si-88.in
Warning: card &CELL ignored
Warning: card / ignored

     Current dimensions of program PWSCF are:
     Max number of different atomic species (ntypx) = 10
     Max number of k-points (npk) =  40000
     Max angular momentum in pseudopotentials (lmaxx) =  4

     IMPORTANT: XC functional enforced from input :
     Exchange-correlation= PBE
                           (   1   4   3   4   0   0   0)
     Any further DFT definition will be discarded
     Please, verify this is what you really want


     gamma-point specific algorithms are used
 
     K-points division:     npool     =       2
     R & G space division:  proc/nbgrp/npool/nimage =       2
     Subspace diagonalization in iterative solution of the eigenvalue problem:
     a serial algorithm will be used

     Message from routine divide_et_impera:
     suboptimal parallelization: some nodes have no k-points
 
     Parallelization info
     --------------------
     sticks:   dense  smooth     PW     G-vecs:    dense   smooth      PW
     Min        2025    2025    542                98957    98957   13466
     Max        2026    2026    543                98962    98962   13471
     Sum        4051    4051   1085               197919   197919   26937
 
     Using Slab Decomposition
 


     bravais-lattice index     =            0
     lattice parameter (alat)  =      20.6337  a.u.
     unit-cell volume          =    8914.6078 (a.u.)^3
     number of atoms/cell      =           64
     number of atomic types    =            1
     number of electrons       =       256.00
     number of Kohn-Sham states=          154
     kinetic-energy cutoff     =      30.0000  Ry
     charge density cutoff     =     120.0000  Ry
     scf convergence threshold =      1.0E-06
     mixing beta               =       0.5000
     number of iterations used =            8  plain     mixing
     Exchange-correlation= PBE
                           (   1   4   3   4   0   0   0)

     GPU acceleration is ACTIVE.
     GPU-aware MPI enabled

     Message from routine print_cuda_info:
     High GPU oversubscription detected. Are you sure this is what you want?

     celldm(1)=  20.633711  celldm(2)=   0.000000  celldm(3)=   0.000000
     celldm(4)=   0.000000  celldm(5)=   0.000000  celldm(6)=   0.000000

     crystal axes: (cart. coord. in units of alat)
               a(1) = (   1.000000   0.000000   0.000000 )  
               a(2) = (   0.000000   1.000857   0.000000 )  
               a(3) = (   0.000000   0.000000   1.013907 )  

     reciprocal axes: (cart. coord. in units 2 pi/alat)
               b(1) = (  1.000000  0.000000  0.000000 )  
               b(2) = (  0.000000  0.999144  0.000000 )  
               b(3) = (  0.000000  0.000000  0.986284 )  


     PseudoPot. # 1 for Si read from file:
     /home/ppiaggi/pseudos/Si_ONCV_PBE_sr.upf
     MD5 check sum: 8553c464762ac42b85b1eed164b4d029
     Pseudo is Norm-conserving, Zval =  4.0
     Generated using ONCVPSP code by D. R. Hamann
     Using radial grid of 1510 points,  4 beta functions with: 
                l(1) =   0
                l(2) =   0
                l(3) =   1
                l(4) =   1

     atomic species   valence    mass     pseudopotential
        Si             4.00    28.08500     Si( 1.00)

     No symmetry found



   Cartesian axes

     site n.     atom                  positions (alat units)
         1           Si  tau(   1) = (   0.0005708  -0.0004724  -0.0003375  )
         2           Si  tau(   2) = (   0.0007865   0.2480809   0.2549937  )
         3           Si  tau(   3) = (   0.2522056  -0.0000174   0.2550026  )
         4           Si  tau(   4) = (   0.2516924   0.2473933  -0.0003528  )
         5           Si  tau(   5) = (   0.1263513   0.1245073   0.1269906  )
         6           Si  tau(   6) = (   0.5041240  -0.0002755  -0.0008758  )
         7           Si  tau(   7) = (   0.5027076   0.2488960   0.2547602  )
         8           Si  tau(   8) = (   0.6286819   0.1239603   0.1264240  )
         9           Si  tau(   9) = (   0.7555192  -0.0007979   0.2548959  )
        10           Si  tau(  10) = (   0.7544624   0.2473929  -0.0003895  )
        11           Si  tau(  11) = (  -0.0007888   0.4969615  -0.0000142  )
        12           Si  tau(  12) = (   0.2521660   0.4952371   0.2546036  )
        13           Si  tau(  13) = (   0.1262805   0.6195844   0.1269346  )
        14           Si  tau(  14) = (   0.3777417   0.3715328   0.1280151  )
        15           Si  tau(  15) = (   0.5031320   0.4955092  -0.0000550  )
        16           Si  tau(  16) = (   0.6302116   0.6194030   0.1269717  )
        17           Si  tau(  17) = (   0.8802250   0.3716834   0.1279049  )
        18           Si  tau(  18) = (   0.7546134   0.4956720   0.2554888  )
        19           Si  tau(  19) = (   0.0003486   0.7447758   0.2546706  )
        20           Si  tau(  20) = (   0.2522857   0.7447677  -0.0003307  )
        21           Si  tau(  21) = (   0.3771775   0.8684824   0.1277570  )
        22           Si  tau(  22) = (   0.5043063   0.7449932   0.2550033  )
        23           Si  tau(  23) = (   0.7556759   0.7441414   0.0001689  )
        24           Si  tau(  24) = (   0.8817558   0.8683593   0.1265411  )
        25           Si  tau(  25) = (   0.0007328  -0.0007653   0.5099881  )
        26           Si  tau(  26) = (   0.2511225   0.2487374   0.5092887  )
        27           Si  tau(  27) = (   0.1266515   0.1238221   0.6366604  )
        28           Si  tau(  28) = (   0.3772858   0.1236349   0.3820039  )
        29           Si  tau(  29) = (   0.5026228   0.0005591   0.5090160  )
        30           Si  tau(  30) = (   0.6287288   0.1246600   0.6373153  )
        31           Si  tau(  31) = (   0.8804590   0.1244943   0.3816640  )
        32           Si  tau(  32) = (   0.7559961   0.2481571   0.5094914  )
        33           Si  tau(  33) = (   0.1267747   0.3728474   0.3824278  )
        34           Si  tau(  34) = (  -0.0005199   0.4963547   0.5088490  )
        35           Si  tau(  35) = (   0.1256880   0.6210529   0.6370964  )
        36           Si  tau(  36) = (   0.6296291   0.3717065   0.3817624  )
        37           Si  tau(  37) = (   0.3779735   0.6193110   0.3827531  )
        38           Si  tau(  38) = (   0.3776133   0.3728558   0.6370344  )
        39           Si  tau(  39) = (   0.5031334   0.4962441   0.5090346  )
        40           Si  tau(  40) = (   0.6297426   0.6199915   0.6365586  )
        41           Si  tau(  41) = (   0.8813028   0.6204747   0.3816072  )
        42           Si  tau(  42) = (   0.8808115   0.3719734   0.6369918  )
        43           Si  tau(  43) = (   0.1255066   0.8687666   0.3811420  )
        44           Si  tau(  44) = (   0.2521713   0.7448213   0.5096037  )
        45           Si  tau(  45) = (   0.6300048   0.8677756   0.3812295  )
        46           Si  tau(  46) = (   0.3779272   0.8675793   0.6358246  )
        47           Si  tau(  47) = (   0.7560798   0.7444913   0.5096642  )
        48           Si  tau(  48) = (   0.8818235   0.8673257   0.6364689  )
        49           Si  tau(  49) = (  -0.0006023   0.2475666   0.7628492  )
        50           Si  tau(  50) = (   0.2524479   0.0002121   0.7641750  )
        51           Si  tau(  51) = (   0.3772081   0.1238625   0.8903938  )
        52           Si  tau(  52) = (   0.5031355   0.2472254   0.7634948  )
        53           Si  tau(  53) = (   0.7548398   0.0001669   0.7637788  )
        54           Si  tau(  54) = (   0.8814933   0.1231527   0.8910165  )
        55           Si  tau(  55) = (   0.1259998   0.3725308   0.8907621  )
        56           Si  tau(  56) = (   0.2519883   0.4967000   0.7642445  )
        57           Si  tau(  57) = (   0.6291063   0.3711965   0.8908048  )
        58           Si  tau(  58) = (   0.3779409   0.6203333   0.8918782  )
        59           Si  tau(  59) = (   0.7557499   0.4954787   0.7636749  )
        60           Si  tau(  60) = (   0.8813971   0.6194128   0.8905545  )
        61           Si  tau(  61) = (   0.0007021   0.7446596   0.7642304  )
        62           Si  tau(  62) = (   0.1255139   0.8683047   0.8914267  )
        63           Si  tau(  63) = (   0.5036466   0.7438497   0.7636796  )
        64           Si  tau(  64) = (   0.6289195   0.8688193   0.8906061  )

     number of k points=     1  Fermi-Dirac smearing, width (Ry)=  0.0100
                       cart. coord. in units 2pi/alat
        k(    1) = (   0.0000000   0.0000000   0.0000000), wk =   2.0000000

     Dense  grid:    98960 G-vectors     FFT dimensions: (  72,  75,  75)

     Estimated max dynamical RAM per process >     158.66 MB

     Estimated total dynamical RAM >     610.47 MB

     Initial potential from superposition of free atoms

     starting charge     255.9608, renormalised to     256.0000
     Starting wfcs are  256 randomized atomic wfcs

     total cpu time spent up to now is        4.4 secs

     Self-consistent Calculation

     iteration #  1     ecut=    30.00 Ry     beta= 0.50
     Davidson diagonalization with overlap
     ethr =  1.00E-02,  avg # of iterations =  3.0

     Threshold (ethr) on eigenvalues was too large:
     Diagonalizing with lowered threshold

     Davidson diagonalization with overlap
     ethr =  6.50E-04,  avg # of iterations =  4.0

     total cpu time spent up to now is        4.7 secs

     total energy              =    -503.95781403 Ry
     estimated scf accuracy    <       1.84400704 Ry

     iteration #  2     ecut=    30.00 Ry     beta= 0.50
     Davidson diagonalization with overlap
     ethr =  7.20E-04,  avg # of iterations =  1.0

     total cpu time spent up to now is        4.7 secs

     total energy              =    -503.93926118 Ry
     estimated scf accuracy    <       0.34620152 Ry

     iteration #  3     ecut=    30.00 Ry     beta= 0.50
     Davidson diagonalization with overlap
     ethr =  1.35E-04,  avg # of iterations =  4.0

     total cpu time spent up to now is        4.8 secs

     total energy              =    -503.96090967 Ry
     estimated scf accuracy    <       0.00872206 Ry

     iteration #  4     ecut=    30.00 Ry     beta= 0.50
     Davidson diagonalization with overlap
     c_bands:  1 eigenvalues not converged
     ethr =  3.41E-06,  avg # of iterations = 20.0

     total cpu time spent up to now is        5.1 secs

     total energy              =    -503.96322034 Ry
     estimated scf accuracy    <       0.00939296 Ry

     iteration #  5     ecut=    30.00 Ry     beta= 0.50
     Davidson diagonalization with overlap
     c_bands:  1 eigenvalues not converged
     ethr =  3.41E-06,  avg # of iterations = 20.0

     total cpu time spent up to now is        5.3 secs

     total energy              =    -503.96494747 Ry
     estimated scf accuracy    <       0.00065849 Ry

     iteration #  6     ecut=    30.00 Ry     beta= 0.50
     Davidson diagonalization with overlap
     c_bands:  1 eigenvalues not converged
     ethr =  2.57E-07,  avg # of iterations = 20.0

     total cpu time spent up to now is        5.5 secs

     total energy              =    -503.96499646 Ry
     estimated scf accuracy    <       0.00012893 Ry

     iteration #  7     ecut=    30.00 Ry     beta= 0.50
     Davidson diagonalization with overlap
     ethr =  5.04E-08,  avg # of iterations =  5.0

     total cpu time spent up to now is        5.6 secs

     total energy              =    -503.96501044 Ry
     estimated scf accuracy    <       0.00001139 Ry

     iteration #  8     ecut=    30.00 Ry     beta= 0.50
     Davidson diagonalization with overlap
     ethr =  4.45E-09,  avg # of iterations =  4.0

     total cpu time spent up to now is        5.7 secs

     total energy              =    -503.96501373 Ry
     estimated scf accuracy    <       0.00000117 Ry

     iteration #  9     ecut=    30.00 Ry     beta= 0.50
     Davidson diagonalization with overlap
     ethr =  4.57E-10,  avg # of iterations =  5.0

     total cpu time spent up to now is        5.8 secs

     End of self-consistent calculation

          k = 0.0000 0.0000 0.0000 ( 12388 PWs)   bands (ev):

    -5.8288  -4.8187  -4.8163  -4.7984  -4.7596  -4.7195  -4.7022  -3.9446
    -3.9197  -3.9114  -3.8627  -3.8566  -3.8292  -3.8226  -3.8091  -3.8031
    -3.7784  -3.7496  -3.7240  -3.6086  -3.5582  -3.5341  -3.4346  -1.9073
    -1.8536  -1.8147  -1.7710  -1.7581  -1.7246  -1.6942  -1.6722  -1.6696
    -1.6533  -1.6321  -1.6206  -1.6138  -1.5786  -1.5724  -1.5654  -1.5532
    -1.5361  -0.9691  -0.9028  -0.8656  -0.8254   0.4583   0.4663   0.4811
     0.4894   0.4956   0.4999   0.5068   0.5161   0.5527   0.5650   0.5701
     0.5744   2.1321   2.1332   2.1441   2.1475   2.1639   2.1745   2.1881
     2.1965   2.2062   2.2074   2.2143   2.2216   2.2706   2.2711   2.2894
     2.2932   2.3110   2.3160   2.3230   2.3352   2.3429   2.3552   2.3586
     2.3855   2.4315   2.4510   2.4633   2.4701   2.4973   2.5078   3.1059
     3.1255   3.1413   3.1580   3.2373   3.2553   4.0045   4.0267   4.0367
     4.0696   4.1098   4.1165   4.1416   4.1450   4.1556   4.1944   4.1997
     4.2061   4.4255   4.5587   4.5869   4.5962   4.6078   4.6291   4.6314
     4.6419   4.6895   4.6946   4.7113   4.7160   4.7284   4.7399   4.7916
     4.8110   4.8321   4.8774   4.8921   5.0086   5.8525   5.9996   6.0233
     6.5800   6.6267   6.6320   6.6757   6.7767   6.7979   7.0325   7.0352
     7.0705   7.0923   7.1489   7.1716   7.3311   7.3323   7.3424   7.3661
     8.2137   8.2671   8.2782   8.2890   8.3187   8.3293   8.3386   8.3697
     8.3934   8.4304

     the Fermi energy is     6.2632 ev

!    total energy              =    -503.96501376 Ry
     estimated scf accuracy    <       0.00000051 Ry
     smearing contrib. (-TS)   =      -0.04526749 Ry
     internal energy E=F+TS    =    -503.91974628 Ry

     The total energy is F=E-TS. E is the sum of the following terms:
     one-electron contribution =     144.22009660 Ry
     hartree contribution      =      36.98311517 Ry
     xc contribution           =    -153.36331115 Ry
     ewald contribution        =    -531.75964691 Ry

     convergence has been achieved in   9 iterations

     Forces acting on atoms (cartesian axes, Ry/au):

     atom    1 type  1   force =     0.02184463   -0.02370572    0.01819499
     atom    2 type  1   force =     0.01918295    0.00223407   -0.00073388
     atom    3 type  1   force =    -0.00371609   -0.02198132   -0.00344692
     atom    4 type  1   force =     0.00095271    0.00533657    0.01341897
     atom    5 type  1   force =     0.00128620   -0.00741330    0.00373584
     atom    6 type  1   force =    -0.00639988   -0.02304977    0.01501209
     atom    7 type  1   force =     0.00396015   -0.00750090    0.00037389
     atom    8 type  1   force =     0.00142183   -0.00432331    0.00836633
     atom    9 type  1   force =    -0.00427408   -0.01880176   -0.00547774
     atom   10 type  1   force =     0.00249646    0.00038466    0.01464668
     atom   11 type  1   force =     0.02498528   -0.00877732    0.01742815
     atom   12 type  1   force =     0.00022181    0.00616871    0.00026350
     atom   13 type  1   force =     0.00251559    0.00360248    0.00341141
     atom   14 type  1   force =    -0.00193857   -0.00034897   -0.00439779
     atom   15 type  1   force =     0.00228611    0.00098271    0.01537022
     atom   16 type  1   force =    -0.00464142    0.00287136    0.00359258
     atom   17 type  1   force =    -0.01816758   -0.00048572   -0.00088328
     atom   18 type  1   force =     0.00117468    0.00299451   -0.00282901
     atom   19 type  1   force =     0.02130297   -0.00065247   -0.00380020
     atom   20 type  1   force =    -0.00282519    0.00093744    0.01709676
     atom   21 type  1   force =     0.00564624    0.02379560    0.00014456
     atom   22 type  1   force =    -0.00447363   -0.00525429   -0.00342008
     atom   23 type  1   force =    -0.00386223    0.00302200    0.00849124
     atom   24 type  1   force =    -0.02077507    0.02408294    0.00287940
     atom   25 type  1   force =     0.01521043   -0.01914053   -0.00412160
     atom   26 type  1   force =     0.00523985   -0.00184246    0.00115750
     atom   27 type  1   force =     0.00021943   -0.00293693   -0.00042403
     atom   28 type  1   force =    -0.00006277    0.00301938    0.00108117
     atom   29 type  1   force =     0.00591771   -0.02703011    0.00016800
     atom   30 type  1   force =     0.00317190   -0.00661043   -0.00702570
     atom   31 type  1   force =    -0.01383004   -0.00905545    0.00453368
     atom   32 type  1   force =    -0.00824417   -0.00030582   -0.00005235
     atom   33 type  1   force =    -0.00327372   -0.00324467   -0.00114037
     atom   34 type  1   force =     0.02388821    0.00180900    0.00382403
     atom   35 type  1   force =     0.00405902   -0.00318904   -0.00364122
     atom   36 type  1   force =    -0.00294814   -0.00082134    0.00502664
     atom   37 type  1   force =    -0.00080230    0.00655862   -0.00502185
     atom   38 type  1   force =     0.00022568   -0.00412921   -0.00190882
     atom   39 type  1   force =     0.00441589   -0.00182442    0.00216607
     atom   40 type  1   force =     0.00031739   -0.00054451   -0.00106695
     atom   41 type  1   force =    -0.02272003    0.00001687    0.00062874
     atom   42 type  1   force =    -0.01839500    0.00017485   -0.00527377
     atom   43 type  1   force =     0.00673630    0.02157659    0.00553478
     atom   44 type  1   force =    -0.00445071   -0.00038522   -0.00554883
     atom   45 type  1   force =    -0.00057300    0.02766757    0.00771866
     atom   46 type  1   force =     0.00150679    0.02776861    0.00434586
     atom   47 type  1   force =    -0.00547629    0.00041200   -0.00320832
     atom   48 type  1   force =    -0.02167051    0.03026895    0.00062613
     atom   49 type  1   force =     0.02603575    0.00047923    0.00380893
     atom   50 type  1   force =    -0.00287489   -0.02830614   -0.00492136
     atom   51 type  1   force =     0.00466667   -0.00395338   -0.00915877
     atom   52 type  1   force =    -0.00257531    0.00603122    0.00014267
     atom   53 type  1   force =    -0.00006626   -0.02569783   -0.00330252
     atom   54 type  1   force =    -0.02433698    0.00145404   -0.01486412
     atom   55 type  1   force =    -0.00146152   -0.00335314   -0.01217604
     atom   56 type  1   force =    -0.00101292    0.00226298   -0.00194016
     atom   57 type  1   force =    -0.00081918    0.00114397   -0.01441523
     atom   58 type  1   force =     0.00087480   -0.00009361   -0.01682859
     atom   59 type  1   force =    -0.00701475    0.00209657   -0.00013036
     atom   60 type  1   force =    -0.02455456    0.00789863   -0.01474960
     atom   61 type  1   force =     0.01769677   -0.00000274   -0.00042878
     atom   62 type  1   force =     0.00627601    0.02553028   -0.01434905
     atom   63 type  1   force =    -0.00056594    0.00333787   -0.00133185
     atom   64 type  1   force =     0.00306654    0.01884157   -0.01117031

     Total force =     0.148672     Total SCF correction =     0.001353


     Computing stress (Cartesian axis) and pressure

          total   stress  (Ry/bohr**3)                   (kbar)     P=        1.62
   0.00003618  -0.00001534   0.00002946            5.32       -2.26        4.33
  -0.00001534   0.00003189  -0.00002612           -2.26        4.69       -3.84
   0.00002946  -0.00002612  -0.00003499            4.33       -3.84       -5.15

 
     init_run     :      1.00s CPU      4.36s WALL (       1 calls)
     electrons    :      1.28s CPU      1.36s WALL (       1 calls)
     forces       :      0.04s CPU      0.04s WALL (       1 calls)
     stress       :      0.15s CPU      0.16s WALL (       1 calls)

     Called by init_run:
     wfcinit      :      0.52s CPU      3.73s WALL (       1 calls)
                                        3.73s GPU  (       1 calls)
     potinit      :      0.15s CPU      0.24s WALL (       1 calls)
     hinit0       :      0.31s CPU      0.33s WALL (       1 calls)

     Called by electrons:
     c_bands      :      0.95s CPU      0.99s WALL (      10 calls)
     sum_band     :      0.19s CPU      0.21s WALL (      10 calls)
     v_of_rho     :      0.09s CPU      0.17s WALL (      10 calls)
     mix_rho      :      0.06s CPU      0.07s WALL (      10 calls)

     Called by c_bands:
     init_us_2    :      0.03s CPU      0.03s WALL (      21 calls)
     init_us_2:gp :      0.03s CPU      0.03s WALL (      21 calls)
     regterg      :      0.88s CPU      0.91s WALL (      10 calls)

     Called by *egterg:
     rdiaghg      :      0.44s CPU      1.09s WALL (      95 calls)
                                        1.07s GPU  (      95 calls)
     h_psi        :      0.82s CPU      3.39s WALL (      97 calls)
                                        3.39s GPU  (      97 calls)
     g_psi        :      0.00s CPU      0.00s WALL (      86 calls)
                                        0.00s GPU  (      86 calls)

     Called by h_psi:
     h_psi:calbec :      0.48s CPU      2.99s WALL (      97 calls)
                                        2.99s GPU  (      97 calls)
     vloc_psi     :      0.29s CPU      0.34s WALL (      97 calls)
                                        0.34s GPU  (      97 calls)
     add_vuspsi   :      0.04s CPU      0.05s WALL (      97 calls)
                                        0.05s GPU  (      97 calls)

     General routines
     calbec       :      0.48s CPU      3.00s WALL (     102 calls)
     fft          :      0.33s CPU      0.44s WALL (      87 calls)
                                        0.11s GPU  (      56 calls)
     ffts         :      0.02s CPU      0.02s WALL (      10 calls)
     fftw         :      0.32s CPU      0.43s WALL (    1176 calls)
                                        0.38s GPU  (    1176 calls)
 
     Parallel routines
 
     PWSCF        :      2.50s CPU      6.01s WALL

 
   This run was terminated on:  11: 8:13  10May2023            

=------------------------------------------------------------------------------=
   JOB DONE.
=------------------------------------------------------------------------------=
