An instance of this daemon is already running
An instance of this daemon is already running

     Program PWSCF v.7.1 starts on 10May2023 at 11: 5:16 

     This program is part of the open-source Quantum ESPRESSO suite
     for quantum simulation of materials; please cite
         "P. Giannozzi et al., J. Phys.:Condens. Matter 21 395502 (2009);
         "P. Giannozzi et al., J. Phys.:Condens. Matter 29 465901 (2017);
         "P. Giannozzi et al., J. Chem. Phys. 152 154105 (2020);
          URL http://www.quantum-espresso.org", 
     in publications or presentations arising from this work. More details at
     http://www.quantum-espresso.org/quote

     Parallel version (MPI & OpenMP), running on       4 processor cores
     Number of MPI processes:                 4
     Threads/MPI process:                     1

     MPI processes distributed on     1 nodes
     152803 MiB available memory on the printing compute node when the environment starts
 
     Reading input from pw-si-67.in
Warning: card &CELL ignored
Warning: card / ignored

     Current dimensions of program PWSCF are:
     Max number of different atomic species (ntypx) = 10
     Max number of k-points (npk) =  40000
     Max angular momentum in pseudopotentials (lmaxx) =  4

     IMPORTANT: XC functional enforced from input :
     Exchange-correlation= PBE
                           (   1   4   3   4   0   0   0)
     Any further DFT definition will be discarded
     Please, verify this is what you really want


     gamma-point specific algorithms are used
 
     K-points division:     npool     =       2
     R & G space division:  proc/nbgrp/npool/nimage =       2
     Subspace diagonalization in iterative solution of the eigenvalue problem:
     a serial algorithm will be used

     Message from routine divide_et_impera:
     suboptimal parallelization: some nodes have no k-points
 
     Parallelization info
     --------------------
     sticks:   dense  smooth     PW     G-vecs:    dense   smooth      PW
     Min        2044    2044    542                98656    98656   13438
     Max        2047    2047    543                98659    98659   13439
     Sum        4091    4091   1085               197315   197315   26877
 
     Using Slab Decomposition
 


     bravais-lattice index     =            0
     lattice parameter (alat)  =      20.6131  a.u.
     unit-cell volume          =    8888.3569 (a.u.)^3
     number of atoms/cell      =           64
     number of atomic types    =            1
     number of electrons       =       256.00
     number of Kohn-Sham states=          154
     kinetic-energy cutoff     =      30.0000  Ry
     charge density cutoff     =     120.0000  Ry
     scf convergence threshold =      1.0E-06
     mixing beta               =       0.5000
     number of iterations used =            8  plain     mixing
     Exchange-correlation= PBE
                           (   1   4   3   4   0   0   0)

     GPU acceleration is ACTIVE.
     GPU-aware MPI enabled

     Message from routine print_cuda_info:
     High GPU oversubscription detected. Are you sure this is what you want?

     celldm(1)=  20.613148  celldm(2)=   0.000000  celldm(3)=   0.000000
     celldm(4)=   0.000000  celldm(5)=   0.000000  celldm(6)=   0.000000

     crystal axes: (cart. coord. in units of alat)
               a(1) = (   1.000000   0.000000   0.000000 )  
               a(2) = (   0.000000   1.010196   0.000000 )  
               a(3) = (   0.000000   0.000000   1.004576 )  

     reciprocal axes: (cart. coord. in units 2 pi/alat)
               b(1) = (  1.000000  0.000000  0.000000 )  
               b(2) = (  0.000000  0.989907  0.000000 )  
               b(3) = (  0.000000  0.000000  0.995445 )  


     PseudoPot. # 1 for Si read from file:
     /home/ppiaggi/pseudos/Si_ONCV_PBE_sr.upf
     MD5 check sum: 8553c464762ac42b85b1eed164b4d029
     Pseudo is Norm-conserving, Zval =  4.0
     Generated using ONCVPSP code by D. R. Hamann
     Using radial grid of 1510 points,  4 beta functions with: 
                l(1) =   0
                l(2) =   0
                l(3) =   1
                l(4) =   1

     atomic species   valence    mass     pseudopotential
        Si             4.00    28.08500     Si( 1.00)

     No symmetry found



   Cartesian axes

     site n.     atom                  positions (alat units)
         1           Si  tau(   1) = (   0.0000254   0.0002327   0.0000370  )
         2           Si  tau(   2) = (  -0.0004375   0.2547805   0.2511104  )
         3           Si  tau(   3) = (   0.2486956  -0.0003294   0.2514472  )
         4           Si  tau(   4) = (   0.2479119   0.2537014  -0.0004483  )
         5           Si  tau(   5) = (   0.1238886   0.1270169   0.1257752  )
         6           Si  tau(   6) = (   0.4958593  -0.0009051  -0.0004788  )
         7           Si  tau(   7) = (   0.4971703   0.2554642   0.2516269  )
         8           Si  tau(   8) = (   0.6209571   0.1276870   0.1256420  )
         9           Si  tau(   9) = (   0.7452034  -0.0005892   0.2514789  )
        10           Si  tau(  10) = (   0.7444521   0.2546393   0.0005168  )
        11           Si  tau(  11) = (  -0.0005437   0.5082692  -0.0003211  )
        12           Si  tau(  12) = (   0.2484922   0.5100439   0.2506863  )
        13           Si  tau(  13) = (   0.1245751   0.6369261   0.1250724  )
        14           Si  tau(  14) = (   0.3728526   0.3823844   0.1251780  )
        15           Si  tau(  15) = (   0.4970810   0.5099883  -0.0002150  )
        16           Si  tau(  16) = (   0.6206825   0.6372364   0.1252790  )
        17           Si  tau(  17) = (   0.8686859   0.3822288   0.1252535  )
        18           Si  tau(  18) = (   0.7440863   0.5084827   0.2514145  )
        19           Si  tau(  19) = (  -0.0001098   0.7643373   0.2507892  )
        20           Si  tau(  20) = (   0.2483453   0.7643509  -0.0009049  )
        21           Si  tau(  21) = (   0.3718376   0.8908959   0.1246916  )
        22           Si  tau(  22) = (   0.4974962   0.7628438   0.2516189  )
        23           Si  tau(  23) = (   0.7455424   0.7646155  -0.0006006  )
        24           Si  tau(  24) = (   0.8685393   0.8915501   0.1252330  )
        25           Si  tau(  25) = (  -0.0005130  -0.0008637   0.5021555  )
        26           Si  tau(  26) = (   0.2476875   0.2550847   0.5027944  )
        27           Si  tau(  27) = (   0.1250387   0.1273755   0.6276391  )
        28           Si  tau(  28) = (   0.3727884   0.1268068   0.3771154  )
        29           Si  tau(  29) = (   0.4969074   0.0003017   0.5019343  )
        30           Si  tau(  30) = (   0.6207964   0.1272202   0.6283906  )
        31           Si  tau(  31) = (   0.8682067   0.1272689   0.3768030  )
        32           Si  tau(  32) = (   0.7444148   0.2537407   0.5026792  )
        33           Si  tau(  33) = (   0.1249348   0.3815080   0.3763736  )
        34           Si  tau(  34) = (  -0.0007057   0.5090738   0.5024771  )
        35           Si  tau(  35) = (   0.1247721   0.6364642   0.6278215  )
        36           Si  tau(  36) = (   0.6216075   0.3823061   0.3759689  )
        37           Si  tau(  37) = (   0.3723464   0.6372106   0.3761701  )
        38           Si  tau(  38) = (   0.3729623   0.3817911   0.6276374  )
        39           Si  tau(  39) = (   0.4967385   0.5100306   0.5013671  )
        40           Si  tau(  40) = (   0.6200023   0.6361584   0.6276625  )
        41           Si  tau(  41) = (   0.8696949   0.6356485   0.3756867  )
        42           Si  tau(  42) = (   0.8682757   0.3826573   0.6279629  )
        43           Si  tau(  43) = (   0.1237615   0.8902314   0.3771224  )
        44           Si  tau(  44) = (   0.2474328   0.7633266   0.5025374  )
        45           Si  tau(  45) = (   0.6209427   0.8908266   0.3772542  )
        46           Si  tau(  46) = (   0.3729914   0.8906861   0.6265856  )
        47           Si  tau(  47) = (   0.7447985   0.7628840   0.5018006  )
        48           Si  tau(  48) = (   0.8695875   0.8916390   0.6276523  )
        49           Si  tau(  49) = (   0.0008649   0.2542746   0.7530282  )
        50           Si  tau(  50) = (   0.2474871   0.0008672   0.7530432  )
        51           Si  tau(  51) = (   0.3720071   0.1280936   0.8781370  )
        52           Si  tau(  52) = (   0.4963314   0.2544085   0.7533951  )
        53           Si  tau(  53) = (   0.7445405   0.0005226   0.7524393  )
        54           Si  tau(  54) = (   0.8690122   0.1272838   0.8781572  )
        55           Si  tau(  55) = (   0.1248102   0.3826964   0.8778812  )
        56           Si  tau(  56) = (   0.2477630   0.5087885   0.7522695  )
        57           Si  tau(  57) = (   0.6204741   0.3825329   0.8787792  )
        58           Si  tau(  58) = (   0.3725850   0.6362369   0.8793054  )
        59           Si  tau(  59) = (   0.7443457   0.5092501   0.7522295  )
        60           Si  tau(  60) = (   0.8697133   0.6362320   0.8793558  )
        61           Si  tau(  61) = (  -0.0008805   0.7634553   0.7521376  )
        62           Si  tau(  62) = (   0.1237648   0.8902536   0.8780572  )
        63           Si  tau(  63) = (   0.4963925   0.7642425   0.7529977  )
        64           Si  tau(  64) = (   0.6207677   0.8912555   0.8793028  )

     number of k points=     1  Fermi-Dirac smearing, width (Ry)=  0.0100
                       cart. coord. in units 2pi/alat
        k(    1) = (   0.0000000   0.0000000   0.0000000), wk =   2.0000000

     Dense  grid:    98658 G-vectors     FFT dimensions: (  72,  75,  75)

     Estimated max dynamical RAM per process >     158.24 MB

     Estimated total dynamical RAM >     608.89 MB

     Initial potential from superposition of free atoms

     starting charge     255.9608, renormalised to     256.0000
     Starting wfcs are  256 randomized atomic wfcs

     total cpu time spent up to now is        4.2 secs

     Self-consistent Calculation

     iteration #  1     ecut=    30.00 Ry     beta= 0.50
     Davidson diagonalization with overlap
     ethr =  1.00E-02,  avg # of iterations =  3.0

     Threshold (ethr) on eigenvalues was too large:
     Diagonalizing with lowered threshold

     Davidson diagonalization with overlap
     ethr =  6.55E-04,  avg # of iterations =  2.0

     total cpu time spent up to now is        4.3 secs

     total energy              =    -503.96512411 Ry
     estimated scf accuracy    <       1.85360542 Ry

     iteration #  2     ecut=    30.00 Ry     beta= 0.50
     Davidson diagonalization with overlap
     ethr =  7.24E-04,  avg # of iterations =  2.0

     total cpu time spent up to now is        4.4 secs

     total energy              =    -503.94626442 Ry
     estimated scf accuracy    <       0.34776080 Ry

     iteration #  3     ecut=    30.00 Ry     beta= 0.50
     Davidson diagonalization with overlap
     ethr =  1.36E-04,  avg # of iterations =  4.0

     total cpu time spent up to now is        4.5 secs

     total energy              =    -503.96822906 Ry
     estimated scf accuracy    <       0.00869223 Ry

     iteration #  4     ecut=    30.00 Ry     beta= 0.50
     Davidson diagonalization with overlap
     c_bands:  5 eigenvalues not converged
     ethr =  3.40E-06,  avg # of iterations = 20.0

     total cpu time spent up to now is        4.8 secs

     total energy              =    -503.97049790 Ry
     estimated scf accuracy    <       0.00943535 Ry

     iteration #  5     ecut=    30.00 Ry     beta= 0.50
     Davidson diagonalization with overlap
     ethr =  3.40E-06,  avg # of iterations =  6.0

     total cpu time spent up to now is        4.9 secs

     total energy              =    -503.97223811 Ry
     estimated scf accuracy    <       0.00069449 Ry

     iteration #  6     ecut=    30.00 Ry     beta= 0.50
     Davidson diagonalization with overlap
     ethr =  2.71E-07,  avg # of iterations =  3.0

     total cpu time spent up to now is        5.0 secs

     total energy              =    -503.97228376 Ry
     estimated scf accuracy    <       0.00016399 Ry

     iteration #  7     ecut=    30.00 Ry     beta= 0.50
     Davidson diagonalization with overlap
     ethr =  6.41E-08,  avg # of iterations =  5.0

     total cpu time spent up to now is        5.1 secs

     total energy              =    -503.97229818 Ry
     estimated scf accuracy    <       0.00001945 Ry

     iteration #  8     ecut=    30.00 Ry     beta= 0.50
     Davidson diagonalization with overlap
     ethr =  7.60E-09,  avg # of iterations =  4.0

     total cpu time spent up to now is        5.2 secs

     total energy              =    -503.97230232 Ry
     estimated scf accuracy    <       0.00000110 Ry

     iteration #  9     ecut=    30.00 Ry     beta= 0.50
     Davidson diagonalization with overlap
     ethr =  4.32E-10,  avg # of iterations =  4.0

     total cpu time spent up to now is        5.3 secs

     End of self-consistent calculation

          k = 0.0000 0.0000 0.0000 ( 12344 PWs)   bands (ev):

    -5.8162  -4.8086  -4.7944  -4.7611  -4.7584  -4.7079  -4.6968  -3.9182
    -3.9011  -3.8828  -3.8590  -3.8383  -3.8137  -3.8080  -3.7890  -3.7835
    -3.7593  -3.7347  -3.7110  -3.5889  -3.5280  -3.5246  -3.4356  -1.8419
    -1.8353  -1.8123  -1.7605  -1.7231  -1.7035  -1.6707  -1.6458  -1.6356
    -1.6288  -1.6085  -1.5946  -1.5746  -1.5701  -1.5633  -1.5600  -1.5416
    -1.5206  -0.9348  -0.8862  -0.8694  -0.8007   0.4856   0.4866   0.5239
     0.5298   0.5349   0.5380   0.5429   0.5479   0.5554   0.5731   0.5764
     0.5871   2.1510   2.1593   2.1604   2.1666   2.2036   2.2125   2.2132
     2.2222   2.2272   2.2303   2.2411   2.2464   2.2751   2.2969   2.3021
     2.3332   2.3390   2.3421   2.3470   2.3520   2.3609   2.3730   2.3787
     2.4017   2.4337   2.4679   2.4824   2.4873   2.5044   2.5235   3.1452
     3.1559   3.1864   3.1980   3.2167   3.2577   4.0507   4.0613   4.0717
     4.1273   4.1275   4.1373   4.1503   4.1521   4.1610   4.2023   4.2263
     4.2371   4.4847   4.5793   4.6169   4.6364   4.6396   4.6636   4.6832
     4.6864   4.7141   4.7287   4.7303   4.7477   4.7534   4.7809   4.7877
     4.8424   4.8611   4.8935   4.8980   4.9748   5.9239   5.9740   6.0648
     6.6287   6.6319   6.6952   6.7187   6.7628   6.8105   7.0534   7.0958
     7.1120   7.1198   7.1486   7.1846   7.3717   7.3854   7.3931   7.4038
     8.2874   8.3138   8.3194   8.3251   8.3608   8.3681   8.3822   8.3865
     8.4103   8.4710

     the Fermi energy is     6.2914 ev

!    total energy              =    -503.97230269 Ry
     estimated scf accuracy    <       0.00000044 Ry
     smearing contrib. (-TS)   =      -0.04469722 Ry
     internal energy E=F+TS    =    -503.92760547 Ry

     The total energy is F=E-TS. E is the sum of the following terms:
     one-electron contribution =     144.99269770 Ry
     hartree contribution      =      36.87236541 Ry
     xc contribution           =    -153.46491720 Ry
     ewald contribution        =    -532.32775138 Ry

     convergence has been achieved in   9 iterations

     Forces acting on atoms (cartesian axes, Ry/au):

     atom    1 type  1   force =    -0.02051375    0.02118421   -0.00145433
     atom    2 type  1   force =    -0.01848834   -0.00066010    0.00002603
     atom    3 type  1   force =    -0.00275713    0.02447215    0.00023576
     atom    4 type  1   force =     0.00111327    0.00687022    0.00217470
     atom    5 type  1   force =    -0.00175180    0.00343154    0.00113010
     atom    6 type  1   force =     0.00269640    0.03395777    0.00122654
     atom    7 type  1   force =    -0.00242712   -0.00355072   -0.00247886
     atom    8 type  1   force =    -0.00366031   -0.00200648    0.00079389
     atom    9 type  1   force =    -0.00195839    0.02824494   -0.00121075
     atom   10 type  1   force =     0.00447314    0.00029348   -0.00581998
     atom   11 type  1   force =    -0.01365898    0.00297033    0.00145896
     atom   12 type  1   force =     0.00026628   -0.00440194    0.00001093
     atom   13 type  1   force =    -0.00641013   -0.00046261   -0.00171275
     atom   14 type  1   force =    -0.00263698   -0.00107109   -0.00041135
     atom   15 type  1   force =    -0.00053160   -0.00316611    0.00091706
     atom   16 type  1   force =     0.00474206   -0.00250938   -0.00019912
     atom   17 type  1   force =     0.01864517   -0.00124766    0.00185362
     atom   18 type  1   force =     0.00742232    0.00483716   -0.00641161
     atom   19 type  1   force =    -0.01924505   -0.00630667   -0.00221324
     atom   20 type  1   force =    -0.00124355   -0.00691974    0.00060549
     atom   21 type  1   force =     0.00300087   -0.02817073    0.00648136
     atom   22 type  1   force =    -0.00447134    0.00549602   -0.00431344
     atom   23 type  1   force =     0.00049537   -0.00706071    0.00190562
     atom   24 type  1   force =     0.02459950   -0.02410648   -0.00165022
     atom   25 type  1   force =    -0.01621927    0.03094005    0.00149019
     atom   26 type  1   force =     0.00647009   -0.00336139   -0.00353316
     atom   27 type  1   force =    -0.01012089    0.00169085   -0.00328921
     atom   28 type  1   force =    -0.00253917    0.00930125   -0.00134121
     atom   29 type  1   force =     0.00188799    0.02382655    0.00198529
     atom   30 type  1   force =    -0.00369909    0.00393802   -0.00319561
     atom   31 type  1   force =     0.02321757    0.00190251    0.00005126
     atom   32 type  1   force =     0.00324725    0.00572904   -0.00065684
     atom   33 type  1   force =    -0.00730085    0.00565462    0.00058740
     atom   34 type  1   force =    -0.01334685   -0.00218580   -0.00242394
     atom   35 type  1   force =    -0.00933858   -0.00182218   -0.00187877
     atom   36 type  1   force =    -0.00410777   -0.00215869    0.00781852
     atom   37 type  1   force =    -0.00230916   -0.00201262    0.00240114
     atom   38 type  1   force =    -0.00114778    0.00296381   -0.00265764
     atom   39 type  1   force =    -0.00069449   -0.00578478    0.00046194
     atom   40 type  1   force =     0.00171195    0.00381326   -0.00093165
     atom   41 type  1   force =     0.01588550    0.00292045    0.00206531
     atom   42 type  1   force =     0.02257837   -0.00593183   -0.00175203
     atom   43 type  1   force =    -0.00080124   -0.02161705   -0.00279292
     atom   44 type  1   force =     0.00518803   -0.00192055   -0.00242724
     atom   45 type  1   force =     0.00067666   -0.02557365   -0.00229180
     atom   46 type  1   force =    -0.00723745   -0.02009185    0.00557562
     atom   47 type  1   force =     0.00605112   -0.00179174    0.00246895
     atom   48 type  1   force =     0.01307264   -0.02900713   -0.00383230
     atom   49 type  1   force =    -0.02284842    0.00345610   -0.00032203
     atom   50 type  1   force =     0.00692787    0.01724421   -0.00159936
     atom   51 type  1   force =     0.00016044   -0.00309434    0.00303695
     atom   52 type  1   force =     0.00290215    0.00302520    0.00036825
     atom   53 type  1   force =     0.00416369    0.02112069    0.00564995
     atom   54 type  1   force =     0.01896919    0.00518001    0.00316003
     atom   55 type  1   force =    -0.00569121   -0.00499954    0.00428162
     atom   56 type  1   force =     0.00750433    0.00234436    0.00412215
     atom   57 type  1   force =     0.00157453   -0.00159243    0.00004504
     atom   58 type  1   force =    -0.00293757    0.00129346   -0.00582764
     atom   59 type  1   force =     0.00329800    0.00142362    0.00755291
     atom   60 type  1   force =     0.01427685   -0.00062857   -0.00513449
     atom   61 type  1   force =    -0.01524119   -0.00330333    0.00458634
     atom   62 type  1   force =    -0.00451887   -0.02045376    0.00042782
     atom   63 type  1   force =     0.00146618   -0.00565344    0.00263972
     atom   64 type  1   force =     0.00116953   -0.02490076   -0.00583295

     Total force =     0.133604     Total SCF correction =     0.001185


     Computing stress (Cartesian axis) and pressure

          total   stress  (Ry/bohr**3)                   (kbar)     P=        4.19
   0.00005273  -0.00000019  -0.00003438            7.76       -0.03       -5.06
  -0.00000019  -0.00000115   0.00001474           -0.03       -0.17        2.17
  -0.00003438   0.00001474   0.00003384           -5.06        2.17        4.98

 
     init_run     :      1.03s CPU      4.10s WALL (       1 calls)
     electrons    :      1.06s CPU      1.15s WALL (       1 calls)
     forces       :      0.03s CPU      0.04s WALL (       1 calls)
     stress       :      0.15s CPU      0.15s WALL (       1 calls)

     Called by init_run:
     wfcinit      :      0.56s CPU      3.49s WALL (       1 calls)
                                        3.49s GPU  (       1 calls)
     potinit      :      0.15s CPU      0.22s WALL (       1 calls)
     hinit0       :      0.30s CPU      0.33s WALL (       1 calls)

     Called by electrons:
     c_bands      :      0.74s CPU      0.79s WALL (      10 calls)
     sum_band     :      0.17s CPU      0.19s WALL (      10 calls)
     v_of_rho     :      0.08s CPU      0.17s WALL (      10 calls)
     mix_rho      :      0.06s CPU      0.06s WALL (      10 calls)

     Called by c_bands:
     init_us_2    :      0.03s CPU      0.03s WALL (      21 calls)
     init_us_2:gp :      0.03s CPU      0.03s WALL (      21 calls)
     regterg      :      0.67s CPU      0.72s WALL (      10 calls)

     Called by *egterg:
     rdiaghg      :      0.28s CPU      0.89s WALL (      62 calls)
                                        0.88s GPU  (      62 calls)
     h_psi        :      0.82s CPU      3.18s WALL (      64 calls)
                                        3.18s GPU  (      64 calls)
     g_psi        :      0.00s CPU      0.00s WALL (      53 calls)
                                        0.00s GPU  (      53 calls)

     Called by h_psi:
     h_psi:calbec :      0.51s CPU      2.81s WALL (      64 calls)
                                        2.81s GPU  (      64 calls)
     vloc_psi     :      0.28s CPU      0.34s WALL (      64 calls)
                                        0.34s GPU  (      64 calls)
     add_vuspsi   :      0.02s CPU      0.03s WALL (      64 calls)
                                        0.03s GPU  (      64 calls)

     General routines
     calbec       :      0.52s CPU      2.81s WALL (      69 calls)
     fft          :      0.32s CPU      0.43s WALL (      87 calls)
                                        0.10s GPU  (      56 calls)
     ffts         :      0.02s CPU      0.02s WALL (      10 calls)
     fftw         :      0.32s CPU      0.42s WALL (    1110 calls)
                                        0.38s GPU  (    1110 calls)
 
     Parallel routines
 
     PWSCF        :      2.30s CPU      5.51s WALL

 
   This run was terminated on:  11: 5:22  10May2023            

=------------------------------------------------------------------------------=
   JOB DONE.
=------------------------------------------------------------------------------=
