An instance of this daemon is already running
An instance of this daemon is already running
An instance of this daemon is already running

     Program PWSCF v.7.1 starts on 10May2023 at 10:56:36 

     This program is part of the open-source Quantum ESPRESSO suite
     for quantum simulation of materials; please cite
         "P. Giannozzi et al., J. Phys.:Condens. Matter 21 395502 (2009);
         "P. Giannozzi et al., J. Phys.:Condens. Matter 29 465901 (2017);
         "P. Giannozzi et al., J. Chem. Phys. 152 154105 (2020);
          URL http://www.quantum-espresso.org", 
     in publications or presentations arising from this work. More details at
     http://www.quantum-espresso.org/quote

     Parallel version (MPI & OpenMP), running on       4 processor cores
     Number of MPI processes:                 4
     Threads/MPI process:                     1

     MPI processes distributed on     1 nodes
     153162 MiB available memory on the printing compute node when the environment starts
 
     Reading input from pw-si-4.in
Warning: card &CELL ignored
Warning: card / ignored

     Current dimensions of program PWSCF are:
     Max number of different atomic species (ntypx) = 10
     Max number of k-points (npk) =  40000
     Max angular momentum in pseudopotentials (lmaxx) =  4

     IMPORTANT: XC functional enforced from input :
     Exchange-correlation= PBE
                           (   1   4   3   4   0   0   0)
     Any further DFT definition will be discarded
     Please, verify this is what you really want


     gamma-point specific algorithms are used
 
     K-points division:     npool     =       2
     R & G space division:  proc/nbgrp/npool/nimage =       2
     Subspace diagonalization in iterative solution of the eigenvalue problem:
     a serial algorithm will be used

     Message from routine divide_et_impera:
     suboptimal parallelization: some nodes have no k-points
 
     Parallelization info
     --------------------
     sticks:   dense  smooth     PW     G-vecs:    dense   smooth      PW
     Min        2082    2082    548               100242   100242   13608
     Max        2083    2083    549               100243   100243   13609
     Sum        4165    4165   1097               200485   200485   27217
 
     Using Slab Decomposition
 


     bravais-lattice index     =            0
     lattice parameter (alat)  =      20.8520  a.u.
     unit-cell volume          =    9032.0607 (a.u.)^3
     number of atoms/cell      =           64
     number of atomic types    =            1
     number of electrons       =       256.00
     number of Kohn-Sham states=          154
     kinetic-energy cutoff     =      30.0000  Ry
     charge density cutoff     =     120.0000  Ry
     scf convergence threshold =      1.0E-06
     mixing beta               =       0.5000
     number of iterations used =            8  plain     mixing
     Exchange-correlation= PBE
                           (   1   4   3   4   0   0   0)

     GPU acceleration is ACTIVE.
     GPU-aware MPI enabled

     Message from routine print_cuda_info:
     High GPU oversubscription detected. Are you sure this is what you want?

     celldm(1)=  20.851988  celldm(2)=   0.000000  celldm(3)=   0.000000
     celldm(4)=   0.000000  celldm(5)=   0.000000  celldm(6)=   0.000000

     crystal axes: (cart. coord. in units of alat)
               a(1) = (   1.000000   0.000000   0.000000 )  
               a(2) = (   0.000000   1.000851   0.000000 )  
               a(3) = (   0.000000   0.000000   0.995348 )  

     reciprocal axes: (cart. coord. in units 2 pi/alat)
               b(1) = (  1.000000  0.000000  0.000000 )  
               b(2) = (  0.000000  0.999150  0.000000 )  
               b(3) = (  0.000000  0.000000  1.004674 )  


     PseudoPot. # 1 for Si read from file:
     /home/ppiaggi/pseudos/Si_ONCV_PBE_sr.upf
     MD5 check sum: 8553c464762ac42b85b1eed164b4d029
     Pseudo is Norm-conserving, Zval =  4.0
     Generated using ONCVPSP code by D. R. Hamann
     Using radial grid of 1510 points,  4 beta functions with: 
                l(1) =   0
                l(2) =   0
                l(3) =   1
                l(4) =   1

     atomic species   valence    mass     pseudopotential
        Si             4.00    28.08500     Si( 1.00)

     No symmetry found



   Cartesian axes

     site n.     atom                  positions (alat units)
         1           Si  tau(   1) = (  -0.0007544   0.0000109  -0.0004101  )
         2           Si  tau(   2) = (  -0.0002281   0.2518269   0.2494343  )
         3           Si  tau(   3) = (   0.2501520  -0.0004750   0.2486072  )
         4           Si  tau(   4) = (   0.2498387   0.2518170   0.0008047  )
         5           Si  tau(   5) = (   0.1255080   0.1259186   0.1251458  )
         6           Si  tau(   6) = (   0.4989529   0.0008849  -0.0001424  )
         7           Si  tau(   7) = (   0.4993693   0.2517410   0.2500053  )
         8           Si  tau(   8) = (   0.6254853   0.1266969   0.1246685  )
         9           Si  tau(   9) = (   0.7495327   0.0003312   0.2491859  )
        10           Si  tau(  10) = (   0.7487585   0.2516548  -0.0004263  )
        11           Si  tau(  11) = (  -0.0004039   0.5031162   0.0002884  )
        12           Si  tau(  12) = (   0.2495887   0.5027729   0.2483727  )
        13           Si  tau(  13) = (   0.1254242   0.6282437   0.1246281  )
        14           Si  tau(  14) = (   0.3748820   0.3776797   0.1245889  )
        15           Si  tau(  15) = (   0.4994827   0.5025335   0.0000764  )
        16           Si  tau(  16) = (   0.6250150   0.6295611   0.1247292  )
        17           Si  tau(  17) = (   0.8739014   0.3766674   0.1248074  )
        18           Si  tau(  18) = (   0.7499067   0.5038908   0.2485653  )
        19           Si  tau(  19) = (   0.0000668   0.7547255   0.2493029  )
        20           Si  tau(  20) = (   0.2493788   0.7541510  -0.0007156  )
        21           Si  tau(  21) = (   0.3754742   0.8805475   0.1238738  )
        22           Si  tau(  22) = (   0.4994729   0.7551512   0.2486645  )
        23           Si  tau(  23) = (   0.7488600   0.7541859  -0.0007327  )
        24           Si  tau(  24) = (   0.8739599   0.8802102   0.1237421  )
        25           Si  tau(  25) = (  -0.0005941  -0.0000120   0.4985855  )
        26           Si  tau(  26) = (   0.2495886   0.2514294   0.4978694  )
        27           Si  tau(  27) = (   0.1247024   0.1256602   0.6230056  )
        28           Si  tau(  28) = (   0.3753647   0.1265547   0.3732641  )
        29           Si  tau(  29) = (   0.5005470  -0.0005097   0.4979368  )
        30           Si  tau(  30) = (   0.6251836   0.1254144   0.6237769  )
        31           Si  tau(  31) = (   0.8742364   0.1257412   0.3737677  )
        32           Si  tau(  32) = (   0.7502544   0.2513957   0.4981426  )
        33           Si  tau(  33) = (   0.1248749   0.3771922   0.3734730  )
        34           Si  tau(  34) = (   0.0007622   0.5033109   0.4986406  )
        35           Si  tau(  35) = (   0.1243133   0.6282746   0.6230902  )
        36           Si  tau(  36) = (   0.6254915   0.3772694   0.3734689  )
        37           Si  tau(  37) = (   0.3749193   0.6289273   0.3742446  )
        38           Si  tau(  38) = (   0.3746433   0.3766068   0.6237459  )
        39           Si  tau(  39) = (   0.5002358   0.5034270   0.4993542  )
        40           Si  tau(  40) = (   0.6244596   0.6288137   0.6240067  )
        41           Si  tau(  41) = (   0.8743612   0.6297246   0.3731697  )
        42           Si  tau(  42) = (   0.8753999   0.3768722   0.6239637  )
        43           Si  tau(  43) = (   0.1255266   0.8797324   0.3740672  )
        44           Si  tau(  44) = (   0.2500922   0.7555922   0.4989861  )
        45           Si  tau(  45) = (   0.6251252   0.8809602   0.3732176  )
        46           Si  tau(  46) = (   0.3749859   0.8797245   0.6240000  )
        47           Si  tau(  47) = (   0.7500287   0.7545260   0.4990233  )
        48           Si  tau(  48) = (   0.8749513   0.8809847   0.6235285  )
        49           Si  tau(  49) = (  -0.0001699   0.2520070   0.7476201  )
        50           Si  tau(  50) = (   0.2504774   0.0000205   0.7470485  )
        51           Si  tau(  51) = (   0.3740958   0.1263263   0.8718794  )
        52           Si  tau(  52) = (   0.4988115   0.2522210   0.7470386  )
        53           Si  tau(  53) = (   0.7498840  -0.0008787   0.7481710  )
        54           Si  tau(  54) = (   0.8753832   0.1256449   0.8716277  )
        55           Si  tau(  55) = (   0.1257076   0.3770343   0.8732005  )
        56           Si  tau(  56) = (   0.2505047   0.5027381   0.7486197  )
        57           Si  tau(  57) = (   0.6242493   0.3780518   0.8724336  )
        58           Si  tau(  58) = (   0.3754730   0.6285540   0.8718081  )
        59           Si  tau(  59) = (   0.7497154   0.5030092   0.7476444  )
        60           Si  tau(  60) = (   0.8753892   0.6292404   0.8715781  )
        61           Si  tau(  61) = (   0.0001081   0.7554280   0.7471115  )
        62           Si  tau(  62) = (   0.1255069   0.8801194   0.8729680  )
        63           Si  tau(  63) = (   0.4989026   0.7548717   0.7485694  )
        64           Si  tau(  64) = (   0.6247038   0.8798856   0.8732356  )

     number of k points=     1  Fermi-Dirac smearing, width (Ry)=  0.0100
                       cart. coord. in units 2pi/alat
        k(    1) = (   0.0000000   0.0000000   0.0000000), wk =   2.0000000

     Dense  grid:   100243 G-vectors     FFT dimensions: (  75,  75,  75)

     Estimated max dynamical RAM per process >     161.10 MB

     Estimated total dynamical RAM >     619.91 MB

     Initial potential from superposition of free atoms

     starting charge     255.9608, renormalised to     256.0000
     Starting wfcs are  256 randomized atomic wfcs

     total cpu time spent up to now is        4.0 secs

     Self-consistent Calculation

     iteration #  1     ecut=    30.00 Ry     beta= 0.50
     Davidson diagonalization with overlap
     ethr =  1.00E-02,  avg # of iterations =  3.0

     Threshold (ethr) on eigenvalues was too large:
     Diagonalizing with lowered threshold

     Davidson diagonalization with overlap
     ethr =  6.36E-04,  avg # of iterations =  3.0

     total cpu time spent up to now is        4.2 secs

     total energy              =    -503.98482353 Ry
     estimated scf accuracy    <       1.80773171 Ry

     iteration #  2     ecut=    30.00 Ry     beta= 0.50
     Davidson diagonalization with overlap
     ethr =  7.06E-04,  avg # of iterations =  2.0

     total cpu time spent up to now is        4.3 secs

     total energy              =    -503.96574312 Ry
     estimated scf accuracy    <       0.34378975 Ry

     iteration #  3     ecut=    30.00 Ry     beta= 0.50
     Davidson diagonalization with overlap
     ethr =  1.34E-04,  avg # of iterations =  4.0

     total cpu time spent up to now is        4.4 secs

     total energy              =    -503.98726621 Ry
     estimated scf accuracy    <       0.00633850 Ry

     iteration #  4     ecut=    30.00 Ry     beta= 0.50
     Davidson diagonalization with overlap
     c_bands:  4 eigenvalues not converged
     ethr =  2.48E-06,  avg # of iterations = 20.0

     total cpu time spent up to now is        4.7 secs

     total energy              =    -503.98913308 Ry
     estimated scf accuracy    <       0.00731296 Ry

     iteration #  5     ecut=    30.00 Ry     beta= 0.50
     Davidson diagonalization with overlap
     ethr =  2.48E-06,  avg # of iterations =  6.0

     total cpu time spent up to now is        4.8 secs

     total energy              =    -503.99046769 Ry
     estimated scf accuracy    <       0.00030723 Ry

     iteration #  6     ecut=    30.00 Ry     beta= 0.50
     Davidson diagonalization with overlap
     ethr =  1.20E-07,  avg # of iterations =  4.0

     total cpu time spent up to now is        4.9 secs

     total energy              =    -503.99050662 Ry
     estimated scf accuracy    <       0.00007260 Ry

     iteration #  7     ecut=    30.00 Ry     beta= 0.50
     Davidson diagonalization with overlap
     ethr =  2.84E-08,  avg # of iterations =  4.0

     total cpu time spent up to now is        5.0 secs

     total energy              =    -503.99050738 Ry
     estimated scf accuracy    <       0.00001830 Ry

     iteration #  8     ecut=    30.00 Ry     beta= 0.50
     Davidson diagonalization with overlap
     ethr =  7.15E-09,  avg # of iterations =  5.0

     total cpu time spent up to now is        5.1 secs

     End of self-consistent calculation

          k = 0.0000 0.0000 0.0000 ( 12575 PWs)   bands (ev):

    -5.8603  -4.8531  -4.8275  -4.8221  -4.8128  -4.8027  -4.7827  -3.9485
    -3.9365  -3.9330  -3.9231  -3.9143  -3.8964  -3.8864  -3.8777  -3.8654
    -3.8628  -3.8576  -3.8470  -3.6566  -3.6294  -3.6161  -3.5967  -1.9162
    -1.9036  -1.8995  -1.8626  -1.8391  -1.8333  -1.7535  -1.7473  -1.7370
    -1.7327  -1.7264  -1.7159  -1.7120  -1.7100  -1.7009  -1.6953  -1.6902
    -1.6804  -0.9826  -0.9736  -0.9687  -0.9182   0.3735   0.3846   0.3936
     0.3981   0.4035   0.4093   0.4110   0.4125   0.4174   0.4287   0.4331
     0.4389   2.0913   2.0971   2.1024   2.1046   2.1251   2.1302   2.1342
     2.1385   2.1435   2.1443   2.1479   2.1529   2.1946   2.2090   2.2180
     2.2229   2.2261   2.2289   2.2321   2.2383   2.2428   2.2472   2.2541
     2.2605   2.2660   2.2902   2.2943   2.3051   2.3194   2.3290   3.0436
     3.0566   3.0737   3.0871   3.0957   3.1016   3.9558   3.9740   3.9858
     3.9893   3.9973   4.0034   4.0077   4.0103   4.0220   4.0285   4.0587
     4.0600   4.4144   4.4759   4.5027   4.5255   4.5275   4.5345   4.5420
     4.5616   4.5650   4.5723   4.5834   4.5914   4.6285   4.6358   4.6456
     4.6666   4.6797   4.6908   4.7132   4.7206   5.7941   5.8086   5.8691
     6.5286   6.5474   6.5749   6.6070   6.6141   6.6225   6.9381   6.9411
     6.9728   6.9779   6.9796   7.0027   7.1683   7.1803   7.1833   7.1857
     8.1617   8.1662   8.1762   8.1869   8.1933   8.2140   8.2257   8.2388
     8.2516   8.2589

     the Fermi energy is     6.1478 ev

!    total energy              =    -503.99051146 Ry
     estimated scf accuracy    <       0.00000055 Ry
     smearing contrib. (-TS)   =      -0.04018677 Ry
     internal energy E=F+TS    =    -503.95032469 Ry

     The total energy is F=E-TS. E is the sum of the following terms:
     one-electron contribution =     141.45549135 Ry
     hartree contribution      =      37.20700673 Ry
     xc contribution           =    -152.94942700 Ry
     ewald contribution        =    -529.66339577 Ry

     convergence has been achieved in   8 iterations

     Forces acting on atoms (cartesian axes, Ry/au):

     atom    1 type  1   force =     0.00403101    0.01673198    0.00749118
     atom    2 type  1   force =    -0.00129817   -0.00258928   -0.00064556
     atom    3 type  1   force =     0.00131439    0.01691344    0.00334516
     atom    4 type  1   force =     0.00130718   -0.00218081    0.00331707
     atom    5 type  1   force =    -0.00531602   -0.00001703   -0.00130986
     atom    6 type  1   force =     0.00562966    0.01678939    0.00404452
     atom    7 type  1   force =     0.00463671    0.00267230   -0.00539860
     atom    8 type  1   force =    -0.00696520   -0.00114063    0.00137619
     atom    9 type  1   force =     0.00241233    0.01543446   -0.00319978
     atom   10 type  1   force =     0.00532995   -0.00053532    0.00223141
     atom   11 type  1   force =    -0.00031710   -0.00244705    0.00388292
     atom   12 type  1   force =     0.00291463    0.00092042    0.00564768
     atom   13 type  1   force =    -0.00433895    0.00328232   -0.00007986
     atom   14 type  1   force =     0.00050190   -0.00219400    0.00207280
     atom   15 type  1   force =     0.00243353    0.00496391    0.00629115
     atom   16 type  1   force =    -0.00409336   -0.00355361   -0.00142942
     atom   17 type  1   force =     0.00271842    0.00348023   -0.00198500
     atom   18 type  1   force =    -0.00075416   -0.00314071    0.00210401
     atom   19 type  1   force =    -0.00028970   -0.00122736   -0.00353012
     atom   20 type  1   force =     0.00552517   -0.00279153    0.00815183
     atom   21 type  1   force =    -0.00531613   -0.01773730   -0.00004167
     atom   22 type  1   force =     0.00181503   -0.00309954    0.00311832
     atom   23 type  1   force =     0.00553495   -0.00279748    0.00636201
     atom   24 type  1   force =     0.00188890   -0.01584061    0.00344473
     atom   25 type  1   force =     0.00235773    0.01571940   -0.00302796
     atom   26 type  1   force =     0.00093709   -0.00024684    0.00176288
     atom   27 type  1   force =     0.00006355    0.00251185   -0.00098488
     atom   28 type  1   force =    -0.00307726   -0.00522485    0.00369908
     atom   29 type  1   force =    -0.00403490    0.01845496    0.00392358
     atom   30 type  1   force =    -0.00133824    0.00303257   -0.00279441
     atom   31 type  1   force =     0.00402429    0.00142461   -0.00022582
     atom   32 type  1   force =    -0.00133846    0.00045853    0.00390011
     atom   33 type  1   force =     0.00024567    0.00232130    0.00092553
     atom   34 type  1   force =    -0.00742281   -0.00209342   -0.00346861
     atom   35 type  1   force =     0.00659316    0.00371764    0.00217785
     atom   36 type  1   force =    -0.00203968    0.00413081    0.00321915
     atom   37 type  1   force =    -0.00087113    0.00025290   -0.00149444
     atom   38 type  1   force =    -0.00204151    0.00545276   -0.00639006
     atom   39 type  1   force =    -0.00146737   -0.00445991   -0.00300119
     atom   40 type  1   force =     0.00112273    0.00297698   -0.00105777
     atom   41 type  1   force =     0.00410939   -0.00409919    0.00489791
     atom   42 type  1   force =    -0.00201990    0.00415567   -0.00633181
     atom   43 type  1   force =    -0.00316902   -0.01040047   -0.00020861
     atom   44 type  1   force =    -0.00096605   -0.00969941    0.00048997
     atom   45 type  1   force =     0.00005587   -0.02103286    0.00227875
     atom   46 type  1   force =     0.00281561   -0.01071938   -0.00594576
     atom   47 type  1   force =    -0.00261841    0.00031807   -0.00150573
     atom   48 type  1   force =    -0.00071657   -0.01866927   -0.00264499
     atom   49 type  1   force =     0.00455356   -0.00230217    0.00218255
     atom   50 type  1   force =    -0.00468465    0.01547714    0.00357195
     atom   51 type  1   force =     0.00137722    0.00248664   -0.00390324
     atom   52 type  1   force =     0.00611227   -0.00421165    0.00401433
     atom   53 type  1   force =    -0.00128115    0.01849579    0.00067996
     atom   54 type  1   force =    -0.00435137    0.00385635   -0.00239172
     atom   55 type  1   force =    -0.00460689    0.00251129   -0.00584691
     atom   56 type  1   force =    -0.00350724   -0.00026764   -0.00450308
     atom   57 type  1   force =     0.00003562   -0.00268737   -0.00747776
     atom   58 type  1   force =    -0.00345237    0.00004042    0.00006652
     atom   59 type  1   force =     0.00161227   -0.00027336    0.00090659
     atom   60 type  1   force =    -0.00170878   -0.00066382   -0.00320436
     atom   61 type  1   force =     0.00099068   -0.00383195    0.00191730
     atom   62 type  1   force =    -0.00224551   -0.01214036   -0.01013060
     atom   63 type  1   force =     0.00630578   -0.00321684   -0.00202496
     atom   64 type  1   force =    -0.00365818   -0.01145111   -0.00731045

     Total force =     0.079672     Total SCF correction =     0.001225


     Computing stress (Cartesian axis) and pressure

          total   stress  (Ry/bohr**3)                   (kbar)     P=       -9.92
  -0.00007329  -0.00000841  -0.00001604          -10.78       -1.24       -2.36
  -0.00000841  -0.00007999  -0.00000613           -1.24      -11.77       -0.90
  -0.00001604  -0.00000613  -0.00004911           -2.36       -0.90       -7.22

 
     init_run     :      0.76s CPU      3.97s WALL (       1 calls)
     electrons    :      1.03s CPU      1.10s WALL (       1 calls)
     forces       :      0.03s CPU      0.04s WALL (       1 calls)
     stress       :      0.15s CPU      0.16s WALL (       1 calls)

     Called by init_run:
     wfcinit      :      0.42s CPU      3.48s WALL (       1 calls)
                                        3.48s GPU  (       1 calls)
     potinit      :      0.15s CPU      0.21s WALL (       1 calls)
     hinit0       :      0.17s CPU      0.20s WALL (       1 calls)

     Called by electrons:
     c_bands      :      0.74s CPU      0.77s WALL (       9 calls)
     sum_band     :      0.16s CPU      0.19s WALL (       9 calls)
     v_of_rho     :      0.08s CPU      0.14s WALL (       9 calls)
     mix_rho      :      0.05s CPU      0.06s WALL (       9 calls)

     Called by c_bands:
     init_us_2    :      0.02s CPU      0.02s WALL (      19 calls)
     init_us_2:gp :      0.02s CPU      0.02s WALL (      19 calls)
     regterg      :      0.67s CPU      0.70s WALL (       9 calls)

     Called by *egterg:
     rdiaghg      :      0.27s CPU      0.88s WALL (      59 calls)
                                        0.87s GPU  (      59 calls)
     h_psi        :      0.70s CPU      3.18s WALL (      61 calls)
                                        3.18s GPU  (      61 calls)
     g_psi        :      0.00s CPU      0.00s WALL (      51 calls)
                                        0.00s GPU  (      51 calls)

     Called by h_psi:
     h_psi:calbec :      0.36s CPU      2.79s WALL (      61 calls)
                                        2.79s GPU  (      61 calls)
     vloc_psi     :      0.30s CPU      0.36s WALL (      61 calls)
                                        0.36s GPU  (      61 calls)
     add_vuspsi   :      0.02s CPU      0.03s WALL (      61 calls)
                                        0.03s GPU  (      61 calls)

     General routines
     calbec       :      0.37s CPU      2.79s WALL (      66 calls)
     fft          :      0.19s CPU      0.28s WALL (      79 calls)
                                        0.09s GPU  (      51 calls)
     ffts         :      0.02s CPU      0.02s WALL (       9 calls)
     fftw         :      0.33s CPU      0.44s WALL (    1003 calls)
                                        0.40s GPU  (    1003 calls)
 
     Parallel routines
 
     PWSCF        :      2.01s CPU      5.34s WALL

 
   This run was terminated on:  10:56:41  10May2023            

=------------------------------------------------------------------------------=
   JOB DONE.
=------------------------------------------------------------------------------=
