An instance of this daemon is already running
An instance of this daemon is already running

     Program PWSCF v.7.1 starts on 10May2023 at 11: 0: 4 

     This program is part of the open-source Quantum ESPRESSO suite
     for quantum simulation of materials; please cite
         "P. Giannozzi et al., J. Phys.:Condens. Matter 21 395502 (2009);
         "P. Giannozzi et al., J. Phys.:Condens. Matter 29 465901 (2017);
         "P. Giannozzi et al., J. Chem. Phys. 152 154105 (2020);
          URL http://www.quantum-espresso.org", 
     in publications or presentations arising from this work. More details at
     http://www.quantum-espresso.org/quote

     Parallel version (MPI & OpenMP), running on       4 processor cores
     Number of MPI processes:                 4
     Threads/MPI process:                     1

     MPI processes distributed on     1 nodes
     141678 MiB available memory on the printing compute node when the environment starts
 
     Reading input from pw-si-29.in
Warning: card &CELL ignored
Warning: card / ignored

     Current dimensions of program PWSCF are:
     Max number of different atomic species (ntypx) = 10
     Max number of k-points (npk) =  40000
     Max angular momentum in pseudopotentials (lmaxx) =  4

     IMPORTANT: XC functional enforced from input :
     Exchange-correlation= PBE
                           (   1   4   3   4   0   0   0)
     Any further DFT definition will be discarded
     Please, verify this is what you really want


     gamma-point specific algorithms are used
 
     K-points division:     npool     =       2
     R & G space division:  proc/nbgrp/npool/nimage =       2
     Subspace diagonalization in iterative solution of the eigenvalue problem:
     a serial algorithm will be used

     Message from routine divide_et_impera:
     suboptimal parallelization: some nodes have no k-points
 
     Parallelization info
     --------------------
     sticks:   dense  smooth     PW     G-vecs:    dense   smooth      PW
     Min        2082    2082    547               101110   101110   13735
     Max        2083    2083    550               101115   101115   13738
     Sum        4165    4165   1097               202225   202225   27473
 
     Using Slab Decomposition
 


     bravais-lattice index     =            0
     lattice parameter (alat)  =      20.8245  a.u.
     unit-cell volume          =    9105.3493 (a.u.)^3
     number of atoms/cell      =           64
     number of atomic types    =            1
     number of electrons       =       256.00
     number of Kohn-Sham states=          154
     kinetic-energy cutoff     =      30.0000  Ry
     charge density cutoff     =     120.0000  Ry
     scf convergence threshold =      1.0E-06
     mixing beta               =       0.5000
     number of iterations used =            8  plain     mixing
     Exchange-correlation= PBE
                           (   1   4   3   4   0   0   0)

     GPU acceleration is ACTIVE.
     GPU-aware MPI enabled

     Message from routine print_cuda_info:
     High GPU oversubscription detected. Are you sure this is what you want?

     celldm(1)=  20.824495  celldm(2)=   0.000000  celldm(3)=   0.000000
     celldm(4)=   0.000000  celldm(5)=   0.000000  celldm(6)=   0.000000

     crystal axes: (cart. coord. in units of alat)
               a(1) = (   1.000000   0.000000   0.000000 )  
               a(2) = (   0.000000   1.003913   0.000000 )  
               a(3) = (   0.000000   0.000000   1.004331 )  

     reciprocal axes: (cart. coord. in units 2 pi/alat)
               b(1) = (  1.000000  0.000000  0.000000 )  
               b(2) = (  0.000000  0.996102  0.000000 )  
               b(3) = (  0.000000  0.000000  0.995687 )  


     PseudoPot. # 1 for Si read from file:
     /home/ppiaggi/pseudos/Si_ONCV_PBE_sr.upf
     MD5 check sum: 8553c464762ac42b85b1eed164b4d029
     Pseudo is Norm-conserving, Zval =  4.0
     Generated using ONCVPSP code by D. R. Hamann
     Using radial grid of 1510 points,  4 beta functions with: 
                l(1) =   0
                l(2) =   0
                l(3) =   1
                l(4) =   1

     atomic species   valence    mass     pseudopotential
        Si             4.00    28.08500     Si( 1.00)

     No symmetry found



   Cartesian axes

     site n.     atom                  positions (alat units)
         1           Si  tau(   1) = (  -0.0003767  -0.0001654   0.0004876  )
         2           Si  tau(   2) = (   0.0003834   0.2512465   0.2496667  )
         3           Si  tau(   3) = (   0.2493153  -0.0002935   0.2495426  )
         4           Si  tau(   4) = (   0.2496080   0.2496816   0.0003321  )
         5           Si  tau(   5) = (   0.1247002   0.1257216   0.1241184  )
         6           Si  tau(   6) = (   0.4997395  -0.0001151   0.0004702  )
         7           Si  tau(   7) = (   0.5004549   0.2500984   0.2488785  )
         8           Si  tau(   8) = (   0.6248288   0.1252986   0.1247756  )
         9           Si  tau(   9) = (   0.7504254   0.0003201   0.2497893  )
        10           Si  tau(  10) = (   0.7506271   0.2506456  -0.0000050  )
        11           Si  tau(  11) = (   0.0002603   0.5001561   0.0000046  )
        12           Si  tau(  12) = (   0.2508719   0.5017342   0.2504663  )
        13           Si  tau(  13) = (   0.1241138   0.6262949   0.1241939  )
        14           Si  tau(  14) = (   0.3755753   0.3758317   0.1240222  )
        15           Si  tau(  15) = (   0.4991845   0.5005245  -0.0001868  )
        16           Si  tau(  16) = (   0.6250770   0.6259793   0.1247667  )
        17           Si  tau(  17) = (   0.8749071   0.3749103   0.1244557  )
        18           Si  tau(  18) = (   0.7505295   0.5017225   0.2496014  )
        19           Si  tau(  19) = (   0.0003693   0.7517167   0.2497640  )
        20           Si  tau(  20) = (   0.2496278   0.7522647  -0.0000630  )
        21           Si  tau(  21) = (   0.3753465   0.8760834   0.1249110  )
        22           Si  tau(  22) = (   0.4995316   0.7509478   0.2496616  )
        23           Si  tau(  23) = (   0.7508313   0.7511927  -0.0003882  )
        24           Si  tau(  24) = (   0.8749914   0.8768270   0.1246601  )
        25           Si  tau(  25) = (   0.0005796  -0.0001602   0.5003071  )
        26           Si  tau(  26) = (   0.2496991   0.2505120   0.4990805  )
        27           Si  tau(  27) = (   0.1259166   0.1257963   0.6238706  )
        28           Si  tau(  28) = (   0.3746745   0.1251047   0.3744964  )
        29           Si  tau(  29) = (   0.5000215  -0.0008651   0.5002953  )
        30           Si  tau(  30) = (   0.6248931   0.1248639   0.6248643  )
        31           Si  tau(  31) = (   0.8742618   0.1253554   0.3752081  )
        32           Si  tau(  32) = (   0.7496558   0.2514096   0.5000148  )
        33           Si  tau(  33) = (   0.1246331   0.3763160   0.3737733  )
        34           Si  tau(  34) = (   0.0007122   0.5002623   0.4987702  )
        35           Si  tau(  35) = (   0.1251563   0.6269398   0.6244092  )
        36           Si  tau(  36) = (   0.6245075   0.3749813   0.3749482  )
        37           Si  tau(  37) = (   0.3750665   0.6254543   0.3741972  )
        38           Si  tau(  38) = (   0.3757392   0.3766155   0.6244489  )
        39           Si  tau(  39) = (   0.4995885   0.5013504   0.4988567  )
        40           Si  tau(  40) = (   0.6259507   0.6272160   0.6242656  )
        41           Si  tau(  41) = (   0.8749459   0.6272188   0.3738241  )
        42           Si  tau(  42) = (   0.8752133   0.3748864   0.6235305  )
        43           Si  tau(  43) = (   0.1252168   0.8769414   0.3738870  )
        44           Si  tau(  44) = (   0.2499002   0.7515284   0.4993212  )
        45           Si  tau(  45) = (   0.6250614   0.8772709   0.3754016  )
        46           Si  tau(  46) = (   0.3749954   0.8767681   0.6235402  )
        47           Si  tau(  47) = (   0.7504155   0.7518919   0.5002653  )
        48           Si  tau(  48) = (   0.8759314   0.8771470   0.6245424  )
        49           Si  tau(  49) = (  -0.0005015   0.2511161   0.7493447  )
        50           Si  tau(  50) = (   0.2499161   0.0002256   0.7488377  )
        51           Si  tau(  51) = (   0.3742086   0.1248156   0.8746918  )
        52           Si  tau(  52) = (   0.4997425   0.2500692   0.7485781  )
        53           Si  tau(  53) = (   0.7500286  -0.0007481   0.7486369  )
        54           Si  tau(  54) = (   0.8754933   0.1247251   0.8736242  )
        55           Si  tau(  55) = (   0.1258465   0.3764034   0.8737602  )
        56           Si  tau(  56) = (   0.2506314   0.5009443   0.7495561  )
        57           Si  tau(  57) = (   0.6250315   0.3758188   0.8732707  )
        58           Si  tau(  58) = (   0.3753671   0.6269229   0.8734796  )
        59           Si  tau(  59) = (   0.7493707   0.5002576   0.7497619  )
        60           Si  tau(  60) = (   0.8753827   0.6270560   0.8735493  )
        61           Si  tau(  61) = (   0.0002693   0.7519448   0.7491519  )
        62           Si  tau(  62) = (   0.1243649   0.8772441   0.8733763  )
        63           Si  tau(  63) = (   0.4993825   0.7521178   0.7496462  )
        64           Si  tau(  64) = (   0.6249528   0.8763252   0.8741239  )

     number of k points=     1  Fermi-Dirac smearing, width (Ry)=  0.0100
                       cart. coord. in units 2pi/alat
        k(    1) = (   0.0000000   0.0000000   0.0000000), wk =   2.0000000

     Dense  grid:   101113 G-vectors     FFT dimensions: (  75,  75,  75)

     Estimated max dynamical RAM per process >     162.28 MB

     Estimated total dynamical RAM >     624.42 MB

     Initial potential from superposition of free atoms

     starting charge     255.9608, renormalised to     256.0000
     Starting wfcs are  256 randomized atomic wfcs

     total cpu time spent up to now is        4.3 secs

     Self-consistent Calculation

     iteration #  1     ecut=    30.00 Ry     beta= 0.50
     Davidson diagonalization with overlap
     ethr =  1.00E-02,  avg # of iterations =  3.0

     Threshold (ethr) on eigenvalues was too large:
     Diagonalizing with lowered threshold

     Davidson diagonalization with overlap
     ethr =  6.27E-04,  avg # of iterations =  3.0

     total cpu time spent up to now is        4.5 secs

     total energy              =    -503.97821520 Ry
     estimated scf accuracy    <       1.78355363 Ry

     iteration #  2     ecut=    30.00 Ry     beta= 0.50
     Davidson diagonalization with overlap
     ethr =  6.97E-04,  avg # of iterations =  2.0

     total cpu time spent up to now is        4.6 secs

     total energy              =    -503.95905145 Ry
     estimated scf accuracy    <       0.34149784 Ry

     iteration #  3     ecut=    30.00 Ry     beta= 0.50
     Davidson diagonalization with overlap
     ethr =  1.33E-04,  avg # of iterations =  4.0

     total cpu time spent up to now is        4.7 secs

     total energy              =    -503.98020946 Ry
     estimated scf accuracy    <       0.00611206 Ry

     iteration #  4     ecut=    30.00 Ry     beta= 0.50
     Davidson diagonalization with overlap
     c_bands:  3 eigenvalues not converged
     ethr =  2.39E-06,  avg # of iterations = 20.0

     total cpu time spent up to now is        5.0 secs

     total energy              =    -503.98208541 Ry
     estimated scf accuracy    <       0.00669667 Ry

     iteration #  5     ecut=    30.00 Ry     beta= 0.50
     Davidson diagonalization with overlap
     c_bands:  1 eigenvalues not converged
     ethr =  2.39E-06,  avg # of iterations = 20.0

     total cpu time spent up to now is        5.2 secs

     total energy              =    -503.98330384 Ry
     estimated scf accuracy    <       0.00033109 Ry

     iteration #  6     ecut=    30.00 Ry     beta= 0.50
     Davidson diagonalization with overlap
     ethr =  1.29E-07,  avg # of iterations =  4.0

     total cpu time spent up to now is        5.3 secs

     total energy              =    -503.98334665 Ry
     estimated scf accuracy    <       0.00005517 Ry

     iteration #  7     ecut=    30.00 Ry     beta= 0.50
     Davidson diagonalization with overlap
     ethr =  2.15E-08,  avg # of iterations =  4.0

     total cpu time spent up to now is        5.4 secs

     total energy              =    -503.98334994 Ry
     estimated scf accuracy    <       0.00001050 Ry

     iteration #  8     ecut=    30.00 Ry     beta= 0.50
     Davidson diagonalization with overlap
     ethr =  4.10E-09,  avg # of iterations =  5.0

     total cpu time spent up to now is        5.5 secs

     End of self-consistent calculation

          k = 0.0000 0.0000 0.0000 ( 12663 PWs)   bands (ev):

    -5.8873  -4.8892  -4.8665  -4.8528  -4.8447  -4.8405  -4.8152  -3.9902
    -3.9795  -3.9678  -3.9604  -3.9580  -3.9510  -3.9352  -3.9171  -3.9102
    -3.9020  -3.8952  -3.8915  -3.7109  -3.6922  -3.6805  -3.6078  -1.9682
    -1.9557  -1.9426  -1.9147  -1.9094  -1.8929  -1.8190  -1.8130  -1.8107
    -1.8051  -1.8007  -1.7915  -1.7630  -1.7605  -1.7541  -1.7382  -1.7357
    -1.7309  -1.0566  -1.0076  -0.9842  -0.9756   0.2917   0.3063   0.3223
     0.3282   0.3351   0.3382   0.3467   0.3535   0.3612   0.3659   0.3665
     0.3808   2.0636   2.0702   2.0704   2.0736   2.0748   2.0763   2.0812
     2.0846   2.0888   2.0937   2.0939   2.0980   2.1408   2.1476   2.1534
     2.1557   2.1574   2.1636   2.1671   2.1690   2.1744   2.1789   2.1823
     2.1945   2.2005   2.2128   2.2441   2.2599   2.2619   2.2676   2.9905
     2.9953   3.0102   3.0314   3.0332   3.0389   3.8981   3.9121   3.9200
     3.9211   3.9239   3.9296   3.9331   3.9415   3.9557   3.9625   3.9689
     4.0273   4.4218   4.4345   4.4416   4.4464   4.4500   4.4559   4.4595
     4.4684   4.4757   4.4894   4.4955   4.5059   4.5456   4.5559   4.5585
     4.5667   4.5738   4.6031   4.6228   4.7558   5.6971   5.7303   5.8021
     6.4685   6.4762   6.5073   6.5379   6.5522   6.5566   6.8688   6.8719
     6.8875   6.8960   6.9091   6.9306   7.0602   7.0629   7.0708   7.0862
     8.0919   8.0943   8.0981   8.0985   8.1082   8.1122   8.1190   8.1263
     8.1291   8.1387

     the Fermi energy is     6.0755 ev

!    total energy              =    -503.98335249 Ry
     estimated scf accuracy    <       0.00000075 Ry
     smearing contrib. (-TS)   =      -0.03907250 Ry
     internal energy E=F+TS    =    -503.94427999 Ry

     The total energy is F=E-TS. E is the sum of the following terms:
     one-electron contribution =     139.54630577 Ry
     hartree contribution      =      37.43549985 Ry
     xc contribution           =    -152.68735959 Ry
     ewald contribution        =    -528.23872602 Ry

     convergence has been achieved in   8 iterations

     Forces acting on atoms (cartesian axes, Ry/au):

     atom    1 type  1   force =     0.00073168   -0.00413936   -0.01849204
     atom    2 type  1   force =    -0.00408693   -0.00535907    0.00056775
     atom    3 type  1   force =     0.00374430   -0.00311995   -0.00245078
     atom    4 type  1   force =     0.00205456    0.00558212   -0.01787761
     atom    5 type  1   force =    -0.00105072   -0.00387100    0.00337911
     atom    6 type  1   force =     0.00113537   -0.00616585   -0.01657345
     atom    7 type  1   force =    -0.00343541    0.00083062    0.00362521
     atom    8 type  1   force =     0.00369202   -0.00160368   -0.00343970
     atom    9 type  1   force =    -0.00315957   -0.00678623    0.00017129
     atom   10 type  1   force =    -0.00404754   -0.00319718   -0.01876483
     atom   11 type  1   force =    -0.00233202    0.00328090   -0.01762706
     atom   12 type  1   force =    -0.00508969   -0.00348337   -0.00901646
     atom   13 type  1   force =     0.00582581   -0.00073700    0.00149251
     atom   14 type  1   force =    -0.00497995   -0.00236404    0.00318699
     atom   15 type  1   force =     0.00571861    0.00422360   -0.01823486
     atom   16 type  1   force =    -0.00068120    0.00022899   -0.00390339
     atom   17 type  1   force =     0.00103587    0.00496936    0.00079437
     atom   18 type  1   force =    -0.00316074   -0.00578982    0.00093652
     atom   19 type  1   force =    -0.00181360    0.00151865   -0.00258592
     atom   20 type  1   force =    -0.00033558   -0.00207032   -0.01761545
     atom   21 type  1   force =    -0.00317255    0.00844400   -0.00088780
     atom   22 type  1   force =     0.00499676    0.00250751    0.00239593
     atom   23 type  1   force =    -0.00396926    0.00133471   -0.01349761
     atom   24 type  1   force =     0.00006458    0.00452243    0.00050845
     atom   25 type  1   force =    -0.00051676   -0.00270539   -0.00440473
     atom   26 type  1   force =     0.00330911    0.00510448    0.00030041
     atom   27 type  1   force =    -0.00482610   -0.00006161    0.00369508
     atom   28 type  1   force =     0.00226949   -0.00200801   -0.00109109
     atom   29 type  1   force =    -0.00066442    0.00087058   -0.00353109
     atom   30 type  1   force =     0.00093124   -0.00008017   -0.00296893
     atom   31 type  1   force =     0.00570485    0.00126850   -0.00081594
     atom   32 type  1   force =    -0.00180528   -0.00710158   -0.00063049
     atom   33 type  1   force =     0.00579718   -0.00221011    0.00091886
     atom   34 type  1   force =    -0.00465707    0.00706650    0.00265085
     atom   35 type  1   force =     0.00004534   -0.00527425   -0.00051250
     atom   36 type  1   force =     0.00232374    0.00569703   -0.00492490
     atom   37 type  1   force =    -0.00035963    0.00628355    0.00286729
     atom   38 type  1   force =    -0.00415485   -0.00450921   -0.00301558
     atom   39 type  1   force =     0.00586269    0.00090324    0.00437958
     atom   40 type  1   force =    -0.00632894   -0.00452141    0.00201571
     atom   41 type  1   force =     0.00224707   -0.00332183    0.00483308
     atom   42 type  1   force =    -0.00099335    0.00690635    0.00417446
     atom   43 type  1   force =    -0.00149889    0.00472044    0.00361636
     atom   44 type  1   force =     0.00123133    0.00007486   -0.00222265
     atom   45 type  1   force =     0.00005603    0.00165964   -0.00475155
     atom   46 type  1   force =    -0.00216418    0.00445437    0.00475182
     atom   47 type  1   force =     0.00197672    0.00242512   -0.00324958
     atom   48 type  1   force =    -0.00204189    0.00355860   -0.00075217
     atom   49 type  1   force =     0.00578271   -0.00303404    0.00031636
     atom   50 type  1   force =     0.00047058   -0.00660464    0.00154691
     atom   51 type  1   force =     0.00334765    0.00043479    0.01228320
     atom   52 type  1   force =    -0.00061574    0.00018081    0.00675478
     atom   53 type  1   force =     0.00039518   -0.00346489    0.00555376
     atom   54 type  1   force =    -0.00287645    0.00021645    0.01653581
     atom   55 type  1   force =    -0.00287370   -0.00462227    0.01669497
     atom   56 type  1   force =    -0.00052798    0.00433763   -0.00127607
     atom   57 type  1   force =    -0.00306902   -0.00401193    0.01997412
     atom   58 type  1   force =    -0.00353075   -0.00175414    0.01991858
     atom   59 type  1   force =     0.00637764    0.00502841   -0.00402772
     atom   60 type  1   force =    -0.00005795   -0.00697324    0.01629300
     atom   61 type  1   force =    -0.00060666   -0.00048056    0.00098142
     atom   62 type  1   force =     0.00317637    0.00594566    0.01820172
     atom   63 type  1   force =     0.00417939   -0.00062389   -0.00315060
     atom   64 type  1   force =     0.00100052    0.00747014    0.01597631

     Total force =     0.084185     Total SCF correction =     0.001523


     Computing stress (Cartesian axis) and pressure

          total   stress  (Ry/bohr**3)                   (kbar)     P=      -16.52
  -0.00009699   0.00002229   0.00000305          -14.27        3.28        0.45
   0.00002229  -0.00011804  -0.00000121            3.28      -17.36       -0.18
   0.00000305  -0.00000121  -0.00012179            0.45       -0.18      -17.92

 
     init_run     :      0.80s CPU      4.22s WALL (       1 calls)
     electrons    :      1.15s CPU      1.27s WALL (       1 calls)
     forces       :      0.04s CPU      0.04s WALL (       1 calls)
     stress       :      0.15s CPU      0.16s WALL (       1 calls)

     Called by init_run:
     wfcinit      :      0.45s CPU      3.70s WALL (       1 calls)
                                        3.70s GPU  (       1 calls)
     potinit      :      0.15s CPU      0.24s WALL (       1 calls)
     hinit0       :      0.17s CPU      0.21s WALL (       1 calls)

     Called by electrons:
     c_bands      :      0.84s CPU      0.90s WALL (       9 calls)
     sum_band     :      0.18s CPU      0.21s WALL (       9 calls)
     v_of_rho     :      0.07s CPU      0.16s WALL (       9 calls)
     mix_rho      :      0.05s CPU      0.06s WALL (       9 calls)

     Called by c_bands:
     init_us_2    :      0.02s CPU      0.03s WALL (      19 calls)
     init_us_2:gp :      0.02s CPU      0.02s WALL (      19 calls)
     regterg      :      0.76s CPU      0.82s WALL (       9 calls)

     Called by *egterg:
     rdiaghg      :      0.34s CPU      1.01s WALL (      73 calls)
                                        0.99s GPU  (      73 calls)
     h_psi        :      0.76s CPU      3.37s WALL (      75 calls)
                                        3.37s GPU  (      75 calls)
     g_psi        :      0.00s CPU      0.00s WALL (      65 calls)
                                        0.00s GPU  (      65 calls)

     Called by h_psi:
     h_psi:calbec :      0.40s CPU      2.94s WALL (      75 calls)
                                        2.94s GPU  (      75 calls)
     vloc_psi     :      0.31s CPU      0.38s WALL (      75 calls)
                                        0.38s GPU  (      75 calls)
     add_vuspsi   :      0.03s CPU      0.04s WALL (      75 calls)
                                        0.04s GPU  (      75 calls)

     General routines
     calbec       :      0.41s CPU      2.95s WALL (      80 calls)
     fft          :      0.19s CPU      0.30s WALL (      79 calls)
                                        0.10s GPU  (      51 calls)
     ffts         :      0.02s CPU      0.02s WALL (       9 calls)
     fftw         :      0.34s CPU      0.47s WALL (    1029 calls)
                                        0.43s GPU  (    1029 calls)
 
     Parallel routines
 
     PWSCF        :      2.16s CPU      5.75s WALL

 
   This run was terminated on:  11: 0:10  10May2023            

=------------------------------------------------------------------------------=
   JOB DONE.
=------------------------------------------------------------------------------=
