An instance of this daemon is already running
An instance of this daemon is already running

     Program PWSCF v.7.1 starts on 10May2023 at 11: 8:55 

     This program is part of the open-source Quantum ESPRESSO suite
     for quantum simulation of materials; please cite
         "P. Giannozzi et al., J. Phys.:Condens. Matter 21 395502 (2009);
         "P. Giannozzi et al., J. Phys.:Condens. Matter 29 465901 (2017);
         "P. Giannozzi et al., J. Chem. Phys. 152 154105 (2020);
          URL http://www.quantum-espresso.org", 
     in publications or presentations arising from this work. More details at
     http://www.quantum-espresso.org/quote

     Parallel version (MPI & OpenMP), running on       4 processor cores
     Number of MPI processes:                 4
     Threads/MPI process:                     1

     MPI processes distributed on     1 nodes
     150756 MiB available memory on the printing compute node when the environment starts
 
     Reading input from pw-si-94.in
Warning: card &CELL ignored
Warning: card / ignored

     Current dimensions of program PWSCF are:
     Max number of different atomic species (ntypx) = 10
     Max number of k-points (npk) =  40000
     Max angular momentum in pseudopotentials (lmaxx) =  4

     IMPORTANT: XC functional enforced from input :
     Exchange-correlation= PBE
                           (   1   4   3   4   0   0   0)
     Any further DFT definition will be discarded
     Please, verify this is what you really want


     gamma-point specific algorithms are used
 
     K-points division:     npool     =       2
     R & G space division:  proc/nbgrp/npool/nimage =       2
     Subspace diagonalization in iterative solution of the eigenvalue problem:
     a serial algorithm will be used

     Message from routine divide_et_impera:
     suboptimal parallelization: some nodes have no k-points
 
     Parallelization info
     --------------------
     sticks:   dense  smooth     PW     G-vecs:    dense   smooth      PW
     Min        2065    2065    546               100448   100448   13651
     Max        2068    2068    547               100449   100449   13654
     Sum        4133    4133   1093               200897   200897   27305
 
     Using Slab Decomposition
 


     bravais-lattice index     =            0
     lattice parameter (alat)  =      20.7700  a.u.
     unit-cell volume          =    9049.3269 (a.u.)^3
     number of atoms/cell      =           64
     number of atomic types    =            1
     number of electrons       =       256.00
     number of Kohn-Sham states=          154
     kinetic-energy cutoff     =      30.0000  Ry
     charge density cutoff     =     120.0000  Ry
     scf convergence threshold =      1.0E-06
     mixing beta               =       0.5000
     number of iterations used =            8  plain     mixing
     Exchange-correlation= PBE
                           (   1   4   3   4   0   0   0)

     GPU acceleration is ACTIVE.
     GPU-aware MPI enabled

     Message from routine print_cuda_info:
     High GPU oversubscription detected. Are you sure this is what you want?

     celldm(1)=  20.770030  celldm(2)=   0.000000  celldm(3)=   0.000000
     celldm(4)=   0.000000  celldm(5)=   0.000000  celldm(6)=   0.000000

     crystal axes: (cart. coord. in units of alat)
               a(1) = (   1.000000   0.000000   0.000000 )  
               a(2) = (   0.000000   1.001264   0.000000 )  
               a(3) = (   0.000000   0.000000   1.008687 )  

     reciprocal axes: (cart. coord. in units 2 pi/alat)
               b(1) = (  1.000000  0.000000  0.000000 )  
               b(2) = (  0.000000  0.998737  0.000000 )  
               b(3) = (  0.000000  0.000000  0.991388 )  


     PseudoPot. # 1 for Si read from file:
     /home/ppiaggi/pseudos/Si_ONCV_PBE_sr.upf
     MD5 check sum: 8553c464762ac42b85b1eed164b4d029
     Pseudo is Norm-conserving, Zval =  4.0
     Generated using ONCVPSP code by D. R. Hamann
     Using radial grid of 1510 points,  4 beta functions with: 
                l(1) =   0
                l(2) =   0
                l(3) =   1
                l(4) =   1

     atomic species   valence    mass     pseudopotential
        Si             4.00    28.08500     Si( 1.00)

     No symmetry found



   Cartesian axes

     site n.     atom                  positions (alat units)
         1           Si  tau(   1) = (  -0.0006158   0.0001127   0.0009058  )
         2           Si  tau(   2) = (  -0.0000412   0.2531628   0.2514767  )
         3           Si  tau(   3) = (   0.2513351   0.0006768   0.2517014  )
         4           Si  tau(   4) = (   0.2525538   0.2533564  -0.0006740  )
         5           Si  tau(   5) = (   0.1263916   0.1270998   0.1248141  )
         6           Si  tau(   6) = (   0.5034085  -0.0002367   0.0006934  )
         7           Si  tau(   7) = (   0.5034822   0.2517563   0.2513990  )
         8           Si  tau(   8) = (   0.6300719   0.1260138   0.1263734  )
         9           Si  tau(   9) = (   0.7560595  -0.0004267   0.2520251  )
        10           Si  tau(  10) = (   0.7560438   0.2535089   0.0007916  )
        11           Si  tau(  11) = (   0.0008983   0.5047606   0.0003945  )
        12           Si  tau(  12) = (   0.2525092   0.5060832   0.2508899  )
        13           Si  tau(  13) = (   0.1259412   0.6320361   0.1259877  )
        14           Si  tau(  14) = (   0.3786166   0.3786104   0.1265036  )
        15           Si  tau(  15) = (   0.5035250   0.5061095  -0.0003322  )
        16           Si  tau(  16) = (   0.6306062   0.6318916   0.1251381  )
        17           Si  tau(  17) = (   0.8818933   0.3787344   0.1259298  )
        18           Si  tau(  18) = (   0.7557287   0.5047417   0.2512138  )
        19           Si  tau(  19) = (  -0.0007333   0.7573847   0.2516415  )
        20           Si  tau(  20) = (   0.2517540   0.7583103  -0.0009105  )
        21           Si  tau(  21) = (   0.3786477   0.8838689   0.1252488  )
        22           Si  tau(  22) = (   0.5041473   0.7581461   0.2509815  )
        23           Si  tau(  23) = (   0.7552388   0.7574543   0.0009013  )
        24           Si  tau(  24) = (   0.8818992   0.8837650   0.1263336  )
        25           Si  tau(  25) = (   0.0001932   0.0004400   0.5035962  )
        26           Si  tau(  26) = (   0.2525186   0.2524134   0.5029161  )
        27           Si  tau(  27) = (   0.1266807   0.1265153   0.6286973  )
        28           Si  tau(  28) = (   0.3771019   0.1261719   0.3778414  )
        29           Si  tau(  29) = (   0.5037830  -0.0000064   0.5020512  )
        30           Si  tau(  30) = (   0.6301898   0.1263785   0.6287536  )
        31           Si  tau(  31) = (   0.8818262   0.1256884   0.3769749  )
        32           Si  tau(  32) = (   0.7554156   0.2521313   0.5031289  )
        33           Si  tau(  33) = (   0.1266783   0.3796866   0.3774852  )
        34           Si  tau(  34) = (  -0.0006658   0.5061890   0.5033909  )
        35           Si  tau(  35) = (   0.1252312   0.6323151   0.6289030  )
        36           Si  tau(  36) = (   0.6305314   0.3796970   0.3776366  )
        37           Si  tau(  37) = (   0.3788066   0.6310683   0.3762533  )
        38           Si  tau(  38) = (   0.3784608   0.3796525   0.6281617  )
        39           Si  tau(  39) = (   0.5043208   0.5049122   0.5026589  )
        40           Si  tau(  40) = (   0.6301690   0.6321834   0.6274881  )
        41           Si  tau(  41) = (   0.8820365   0.6315544   0.3771246  )
        42           Si  tau(  42) = (   0.8816696   0.3795100   0.6289115  )
        43           Si  tau(  43) = (   0.1264868   0.8841719   0.3776534  )
        44           Si  tau(  44) = (   0.2526249   0.7583146   0.5028758  )
        45           Si  tau(  45) = (   0.6300711   0.8846224   0.3770171  )
        46           Si  tau(  46) = (   0.3787877   0.8848912   0.6282034  )
        47           Si  tau(  47) = (   0.7552724   0.7588032   0.5024819  )
        48           Si  tau(  48) = (   0.8809506   0.8841309   0.6290984  )
        49           Si  tau(  49) = (  -0.0004988   0.2528729   0.7540168  )
        50           Si  tau(  50) = (   0.2526879   0.0003407   0.7544925  )
        51           Si  tau(  51) = (   0.3769981   0.1269696   0.8801019  )
        52           Si  tau(  52) = (   0.5039077   0.2520323   0.7535434  )
        53           Si  tau(  53) = (   0.7559226  -0.0007116   0.7537955  )
        54           Si  tau(  54) = (   0.8814667   0.1268272   0.8798252  )
        55           Si  tau(  55) = (   0.1266006   0.3784318   0.8798528  )
        56           Si  tau(  56) = (   0.2515105   0.5059451   0.7538503  )
        57           Si  tau(  57) = (   0.6300317   0.3788870   0.8803589  )
        58           Si  tau(  58) = (   0.3778263   0.6308736   0.8787965  )
        59           Si  tau(  59) = (   0.7564329   0.5049338   0.7535537  )
        60           Si  tau(  60) = (   0.8817414   0.6323124   0.8801565  )
        61           Si  tau(  61) = (   0.0000742   0.7576529   0.7534667  )
        62           Si  tau(  62) = (   0.1263792   0.8836671   0.8804529  )
        63           Si  tau(  63) = (   0.5039645   0.7585638   0.7544536  )
        64           Si  tau(  64) = (   0.6293407   0.8839570   0.8801294  )

     number of k points=     1  Fermi-Dirac smearing, width (Ry)=  0.0100
                       cart. coord. in units 2pi/alat
        k(    1) = (   0.0000000   0.0000000   0.0000000), wk =   2.0000000

     Dense  grid:   100449 G-vectors     FFT dimensions: (  75,  75,  75)

     Estimated max dynamical RAM per process >     161.37 MB

     Estimated total dynamical RAM >     620.97 MB

     Initial potential from superposition of free atoms

     starting charge     255.9608, renormalised to     256.0000
     Starting wfcs are  256 randomized atomic wfcs

     total cpu time spent up to now is        4.1 secs

     Self-consistent Calculation

     iteration #  1     ecut=    30.00 Ry     beta= 0.50
     Davidson diagonalization with overlap
     ethr =  1.00E-02,  avg # of iterations =  3.0

     Threshold (ethr) on eigenvalues was too large:
     Diagonalizing with lowered threshold

     Davidson diagonalization with overlap
     ethr =  6.34E-04,  avg # of iterations =  4.0

     total cpu time spent up to now is        4.3 secs

     total energy              =    -503.95309426 Ry
     estimated scf accuracy    <       1.80029270 Ry

     iteration #  2     ecut=    30.00 Ry     beta= 0.50
     Davidson diagonalization with overlap
     ethr =  7.03E-04,  avg # of iterations =  1.0

     total cpu time spent up to now is        4.4 secs

     total energy              =    -503.93455574 Ry
     estimated scf accuracy    <       0.34209388 Ry

     iteration #  3     ecut=    30.00 Ry     beta= 0.50
     Davidson diagonalization with overlap
     ethr =  1.34E-04,  avg # of iterations =  4.0

     total cpu time spent up to now is        4.5 secs

     total energy              =    -503.95526861 Ry
     estimated scf accuracy    <       0.00891113 Ry

     iteration #  4     ecut=    30.00 Ry     beta= 0.50
     Davidson diagonalization with overlap
     c_bands:  3 eigenvalues not converged
     ethr =  3.48E-06,  avg # of iterations = 20.0

     total cpu time spent up to now is        4.8 secs

     total energy              =    -503.95757141 Ry
     estimated scf accuracy    <       0.00918581 Ry

     iteration #  5     ecut=    30.00 Ry     beta= 0.50
     Davidson diagonalization with overlap
     ethr =  3.48E-06,  avg # of iterations = 17.0

     total cpu time spent up to now is        5.0 secs

     total energy              =    -503.95927133 Ry
     estimated scf accuracy    <       0.00070441 Ry

     iteration #  6     ecut=    30.00 Ry     beta= 0.50
     Davidson diagonalization with overlap
     ethr =  2.75E-07,  avg # of iterations =  3.0

     total cpu time spent up to now is        5.1 secs

     total energy              =    -503.95931926 Ry
     estimated scf accuracy    <       0.00012623 Ry

     iteration #  7     ecut=    30.00 Ry     beta= 0.50
     Davidson diagonalization with overlap
     ethr =  4.93E-08,  avg # of iterations =  5.0

     total cpu time spent up to now is        5.2 secs

     total energy              =    -503.95933515 Ry
     estimated scf accuracy    <       0.00000842 Ry

     iteration #  8     ecut=    30.00 Ry     beta= 0.50
     Davidson diagonalization with overlap
     ethr =  3.29E-09,  avg # of iterations =  4.0

     total cpu time spent up to now is        5.3 secs

     total energy              =    -503.95933831 Ry
     estimated scf accuracy    <       0.00000184 Ry

     iteration #  9     ecut=    30.00 Ry     beta= 0.50
     Davidson diagonalization with overlap
     ethr =  7.19E-10,  avg # of iterations =  4.0

     total cpu time spent up to now is        5.4 secs

     End of self-consistent calculation

          k = 0.0000 0.0000 0.0000 ( 12559 PWs)   bands (ev):

    -5.8838  -4.8834  -4.8781  -4.8770  -4.8275  -4.7811  -4.7707  -4.0564
    -4.0121  -4.0000  -3.9417  -3.9241  -3.9007  -3.8969  -3.8873  -3.8815
    -3.8442  -3.8233  -3.8011  -3.6838  -3.6180  -3.6021  -3.5656  -2.0284
    -1.9783  -1.9410  -1.8702  -1.8610  -1.8093  -1.7895  -1.7746  -1.7573
    -1.7540  -1.7427  -1.7328  -1.7108  -1.7027  -1.6832  -1.6805  -1.6723
    -1.6588  -1.0459  -0.9998  -0.9702  -0.8843   0.3442   0.3507   0.3534
     0.3616   0.3671   0.3693   0.3777   0.3847   0.4191   0.4294   0.4467
     0.4563   1.9887   2.0068   2.0256   2.0400   2.0515   2.0751   2.0956
     2.1077   2.1197   2.1303   2.1455   2.1468   2.1836   2.2059   2.2164
     2.2208   2.2260   2.2298   2.2361   2.2430   2.2614   2.2631   2.2754
     2.2840   2.2904   2.2929   2.3033   2.3180   2.3293   2.3410   2.9936
     3.0047   3.0527   3.0601   3.1051   3.1173   3.8777   3.8800   3.9614
     3.9627   3.9944   3.9991   4.0215   4.0275   4.0367   4.0503   4.0537
     4.0647   4.2194   4.3050   4.5041   4.5120   4.5180   4.5256   4.5335
     4.5514   4.5635   4.5683   4.5839   4.6102   4.6168   4.6477   4.6487
     4.6710   4.6794   4.7023   4.7105   4.7810   5.7133   5.8398   5.8694
     6.4539   6.4774   6.5264   6.5769   6.6290   6.6690   6.9106   6.9263
     6.9461   6.9656   6.9814   7.0028   7.1235   7.1389   7.1407   7.1679
     8.0461   8.0483   8.1684   8.1812   8.1832   8.1930   8.2009   8.2051
     8.2145   8.2223

     the Fermi energy is     6.1236 ev

!    total energy              =    -503.95933820 Ry
     estimated scf accuracy    <       0.00000062 Ry
     smearing contrib. (-TS)   =      -0.04258797 Ry
     internal energy E=F+TS    =    -503.91675023 Ry

     The total energy is F=E-TS. E is the sum of the following terms:
     one-electron contribution =     140.57059526 Ry
     hartree contribution      =      37.45375225 Ry
     xc contribution           =    -152.87807962 Ry
     ewald contribution        =    -529.06301812 Ry

     convergence has been achieved in   9 iterations

     Forces acting on atoms (cartesian axes, Ry/au):

     atom    1 type  1   force =     0.02802731    0.02941818   -0.01795474
     atom    2 type  1   force =     0.02532685   -0.00231280    0.00171969
     atom    3 type  1   force =     0.00338418    0.02324702   -0.00479332
     atom    4 type  1   force =    -0.00071932   -0.00032529   -0.00467899
     atom    5 type  1   force =     0.00070988    0.00321886    0.00226129
     atom    6 type  1   force =     0.00319940    0.03100936   -0.01401594
     atom    7 type  1   force =     0.00280635    0.00300456    0.00541918
     atom    8 type  1   force =     0.00048904    0.00320380   -0.00304190
     atom    9 type  1   force =    -0.00228194    0.02872206   -0.00319747
     atom   10 type  1   force =    -0.00481048   -0.00455389   -0.01059517
     atom   11 type  1   force =     0.01893347    0.00252079   -0.01145554
     atom   12 type  1   force =    -0.00159941   -0.00439007    0.00143314
     atom   13 type  1   force =     0.00371008    0.00015113   -0.00329380
     atom   14 type  1   force =    -0.00055370    0.00399118   -0.00559290
     atom   15 type  1   force =     0.00102501   -0.00501663   -0.00703937
     atom   16 type  1   force =    -0.00499886   -0.00328487    0.00318574
     atom   17 type  1   force =    -0.02115996    0.00363730   -0.00104157
     atom   18 type  1   force =    -0.00072314    0.00246766    0.00024322
     atom   19 type  1   force =     0.02882400   -0.00055464    0.00135593
     atom   20 type  1   force =     0.00323391   -0.00776572   -0.00496571
     atom   21 type  1   force =    -0.00746140   -0.02529133    0.00407185
     atom   22 type  1   force =     0.00166427   -0.00463386    0.00035248
     atom   23 type  1   force =     0.00156295    0.00137899   -0.01364212
     atom   24 type  1   force =    -0.02736397   -0.02867715    0.00108091
     atom   25 type  1   force =     0.02401481    0.02567007   -0.00297226
     atom   26 type  1   force =    -0.00205349    0.00425421    0.00164192
     atom   27 type  1   force =     0.00055222    0.00385921    0.00158480
     atom   28 type  1   force =     0.00366091    0.00321507   -0.00432674
     atom   29 type  1   force =     0.00161501    0.03023014    0.00302188
     atom   30 type  1   force =    -0.00228819   -0.00058748   -0.00225069
     atom   31 type  1   force =    -0.02119482    0.00685845    0.00157794
     atom   32 type  1   force =     0.00163655    0.00280734   -0.00087169
     atom   33 type  1   force =     0.00022037    0.00123139   -0.00066191
     atom   34 type  1   force =     0.02681847   -0.00456254   -0.00106655
     atom   35 type  1   force =     0.00719985   -0.00093790   -0.00420348
     atom   36 type  1   force =    -0.00381651   -0.00620507   -0.00367646
     atom   37 type  1   force =    -0.00063951    0.00343533    0.00359044
     atom   38 type  1   force =    -0.00130874   -0.00161075    0.00161954
     atom   39 type  1   force =    -0.00080976    0.00290479   -0.00032180
     atom   40 type  1   force =    -0.00116457   -0.00155520    0.00499706
     atom   41 type  1   force =    -0.02848842    0.00027448   -0.00000674
     atom   42 type  1   force =    -0.02249161   -0.00280310   -0.00384442
     atom   43 type  1   force =    -0.00184330   -0.02704398   -0.00146789
     atom   44 type  1   force =     0.00052115   -0.00667460    0.00002289
     atom   45 type  1   force =    -0.00296263   -0.02893509   -0.00134816
     atom   46 type  1   force =    -0.00153369   -0.02875387    0.00239857
     atom   47 type  1   force =     0.00069801   -0.00624689   -0.00055377
     atom   48 type  1   force =    -0.01845912   -0.02898854   -0.00267523
     atom   49 type  1   force =     0.02650794   -0.00084068    0.00181433
     atom   50 type  1   force =    -0.00364052    0.02463006    0.00112634
     atom   51 type  1   force =     0.00736399    0.00073812    0.00813139
     atom   52 type  1   force =    -0.00091823    0.00376477    0.00570688
     atom   53 type  1   force =    -0.00619113    0.03131466    0.00717033
     atom   54 type  1   force =    -0.02277845   -0.00039502    0.01092333
     atom   55 type  1   force =     0.00025407    0.00406733    0.00673977
     atom   56 type  1   force =    -0.00010488   -0.00509518   -0.00037541
     atom   57 type  1   force =    -0.00140394    0.00205918    0.00515421
     atom   58 type  1   force =     0.00011281    0.00556112    0.01146946
     atom   59 type  1   force =    -0.00698986    0.00365900    0.00547369
     atom   60 type  1   force =    -0.02036107   -0.00598664    0.00943469
     atom   61 type  1   force =     0.02078612    0.00047101    0.00727550
     atom   62 type  1   force =    -0.00244280   -0.02102047    0.00517097
     atom   63 type  1   force =    -0.00061797   -0.00744880   -0.00235788
     atom   64 type  1   force =     0.00131638   -0.02447859    0.01112025

     Total force =     0.157168     Total SCF correction =     0.001517


     Computing stress (Cartesian axis) and pressure

          total   stress  (Ry/bohr**3)                   (kbar)     P=      -11.05
  -0.00005802   0.00000831  -0.00003437           -8.54        1.22       -5.06
   0.00000831  -0.00006661  -0.00003319            1.22       -9.80       -4.88
  -0.00003437  -0.00003319  -0.00010066           -5.06       -4.88      -14.81

 
     init_run     :      0.77s CPU      4.06s WALL (       1 calls)
     electrons    :      1.23s CPU      1.31s WALL (       1 calls)
     forces       :      0.04s CPU      0.04s WALL (       1 calls)
     stress       :      0.15s CPU      0.16s WALL (       1 calls)

     Called by init_run:
     wfcinit      :      0.43s CPU      3.56s WALL (       1 calls)
                                        3.56s GPU  (       1 calls)
     potinit      :      0.14s CPU      0.23s WALL (       1 calls)
     hinit0       :      0.17s CPU      0.20s WALL (       1 calls)

     Called by electrons:
     c_bands      :      0.89s CPU      0.93s WALL (      10 calls)
     sum_band     :      0.19s CPU      0.21s WALL (      10 calls)
     v_of_rho     :      0.08s CPU      0.17s WALL (      10 calls)
     mix_rho      :      0.06s CPU      0.07s WALL (      10 calls)

     Called by c_bands:
     init_us_2    :      0.03s CPU      0.03s WALL (      21 calls)
     init_us_2:gp :      0.03s CPU      0.03s WALL (      21 calls)
     regterg      :      0.81s CPU      0.85s WALL (      10 calls)

     Called by *egterg:
     rdiaghg      :      0.33s CPU      0.95s WALL (      74 calls)
                                        0.93s GPU  (      74 calls)
     h_psi        :      0.78s CPU      3.32s WALL (      76 calls)
                                        3.31s GPU  (      76 calls)
     g_psi        :      0.00s CPU      0.00s WALL (      65 calls)
                                        0.00s GPU  (      65 calls)

     Called by h_psi:
     h_psi:calbec :      0.39s CPU      2.86s WALL (      76 calls)
                                        2.86s GPU  (      76 calls)
     vloc_psi     :      0.35s CPU      0.41s WALL (      76 calls)
                                        0.41s GPU  (      76 calls)
     add_vuspsi   :      0.03s CPU      0.04s WALL (      76 calls)
                                        0.04s GPU  (      76 calls)

     General routines
     calbec       :      0.39s CPU      2.86s WALL (      81 calls)
     fft          :      0.20s CPU      0.31s WALL (      87 calls)
                                        0.11s GPU  (      56 calls)
     ffts         :      0.02s CPU      0.02s WALL (      10 calls)
     fftw         :      0.38s CPU      0.50s WALL (    1130 calls)
                                        0.46s GPU  (    1130 calls)
 
     Parallel routines
 
     PWSCF        :      2.22s CPU      5.63s WALL

 
   This run was terminated on:  11: 9: 0  10May2023            

=------------------------------------------------------------------------------=
   JOB DONE.
=------------------------------------------------------------------------------=
