An instance of this daemon is already running
An instance of this daemon is already running

     Program PWSCF v.7.1 starts on 10May2023 at 11: 4:18 

     This program is part of the open-source Quantum ESPRESSO suite
     for quantum simulation of materials; please cite
         "P. Giannozzi et al., J. Phys.:Condens. Matter 21 395502 (2009);
         "P. Giannozzi et al., J. Phys.:Condens. Matter 29 465901 (2017);
         "P. Giannozzi et al., J. Chem. Phys. 152 154105 (2020);
          URL http://www.quantum-espresso.org", 
     in publications or presentations arising from this work. More details at
     http://www.quantum-espresso.org/quote

     Parallel version (MPI & OpenMP), running on       4 processor cores
     Number of MPI processes:                 4
     Threads/MPI process:                     1

     MPI processes distributed on     1 nodes
     149898 MiB available memory on the printing compute node when the environment starts
 
     Reading input from pw-si-60.in
Warning: card &CELL ignored
Warning: card / ignored

     Current dimensions of program PWSCF are:
     Max number of different atomic species (ntypx) = 10
     Max number of k-points (npk) =  40000
     Max angular momentum in pseudopotentials (lmaxx) =  4

     IMPORTANT: XC functional enforced from input :
     Exchange-correlation= PBE
                           (   1   4   3   4   0   0   0)
     Any further DFT definition will be discarded
     Please, verify this is what you really want


     gamma-point specific algorithms are used
 
     K-points division:     npool     =       2
     R & G space division:  proc/nbgrp/npool/nimage =       2
     Subspace diagonalization in iterative solution of the eigenvalue problem:
     a serial algorithm will be used

     Message from routine divide_et_impera:
     suboptimal parallelization: some nodes have no k-points
 
     Parallelization info
     --------------------
     sticks:   dense  smooth     PW     G-vecs:    dense   smooth      PW
     Min        2059    2059    545               100039   100039   13613
     Max        2060    2060    548               100044   100044   13620
     Sum        4119    4119   1093               200083   200083   27233
 
     Using Slab Decomposition
 


     bravais-lattice index     =            0
     lattice parameter (alat)  =      20.6227  a.u.
     unit-cell volume          =    9010.6579 (a.u.)^3
     number of atoms/cell      =           64
     number of atomic types    =            1
     number of electrons       =       256.00
     number of Kohn-Sham states=          154
     kinetic-energy cutoff     =      30.0000  Ry
     charge density cutoff     =     120.0000  Ry
     scf convergence threshold =      1.0E-06
     mixing beta               =       0.5000
     number of iterations used =            8  plain     mixing
     Exchange-correlation= PBE
                           (   1   4   3   4   0   0   0)

     GPU acceleration is ACTIVE.
     GPU-aware MPI enabled

     Message from routine print_cuda_info:
     High GPU oversubscription detected. Are you sure this is what you want?

     celldm(1)=  20.622678  celldm(2)=   0.000000  celldm(3)=   0.000000
     celldm(4)=   0.000000  celldm(5)=   0.000000  celldm(6)=   0.000000

     crystal axes: (cart. coord. in units of alat)
               a(1) = (   1.000000   0.000000   0.000000 )  
               a(2) = (   0.000000   1.014226   0.000000 )  
               a(3) = (   0.000000   0.000000   1.012946 )  

     reciprocal axes: (cart. coord. in units 2 pi/alat)
               b(1) = (  1.000000  0.000000  0.000000 )  
               b(2) = (  0.000000  0.985973  0.000000 )  
               b(3) = (  0.000000  0.000000  0.987219 )  


     PseudoPot. # 1 for Si read from file:
     /home/ppiaggi/pseudos/Si_ONCV_PBE_sr.upf
     MD5 check sum: 8553c464762ac42b85b1eed164b4d029
     Pseudo is Norm-conserving, Zval =  4.0
     Generated using ONCVPSP code by D. R. Hamann
     Using radial grid of 1510 points,  4 beta functions with: 
                l(1) =   0
                l(2) =   0
                l(3) =   1
                l(4) =   1

     atomic species   valence    mass     pseudopotential
        Si             4.00    28.08500     Si( 1.00)

     No symmetry found



   Cartesian axes

     site n.     atom                  positions (alat units)
         1           Si  tau(   1) = (   0.0002527   0.0008935  -0.0007768  )
         2           Si  tau(   2) = (  -0.0001534   0.2532736   0.2536943  )
         3           Si  tau(   3) = (   0.2499541   0.0003958   0.2537349  )
         4           Si  tau(   4) = (   0.2501095   0.2531955   0.0002712  )
         5           Si  tau(   5) = (   0.1257952   0.1257745   0.1268735  )
         6           Si  tau(   6) = (   0.5003181   0.0006582   0.0006877  )
         7           Si  tau(   7) = (   0.4997084   0.2522238   0.2532629  )
         8           Si  tau(   8) = (   0.6256578   0.1258339   0.1259436  )
         9           Si  tau(   9) = (   0.7512944  -0.0008046   0.2531648  )
        10           Si  tau(  10) = (   0.7515459   0.2523369   0.0004184  )
        11           Si  tau(  11) = (  -0.0005262   0.5065930  -0.0004612  )
        12           Si  tau(  12) = (   0.2494159   0.5066501   0.2528305  )
        13           Si  tau(  13) = (   0.1258188   0.6321366   0.1269331  )
        14           Si  tau(  14) = (   0.3760409   0.3790124   0.1262275  )
        15           Si  tau(  15) = (   0.5000294   0.5054220  -0.0006849  )
        16           Si  tau(  16) = (   0.6250262   0.6324680   0.1275536  )
        17           Si  tau(  17) = (   0.8750801   0.3787394   0.1270037  )
        18           Si  tau(  18) = (   0.7504431   0.5067565   0.2531313  )
        19           Si  tau(  19) = (   0.0001446   0.7582681   0.2542911  )
        20           Si  tau(  20) = (   0.2506770   0.7580875   0.0002962  )
        21           Si  tau(  21) = (   0.3744444   0.8856702   0.1267684  )
        22           Si  tau(  22) = (   0.5000159   0.7590358   0.2535939  )
        23           Si  tau(  23) = (   0.7514492   0.7587450   0.0006364  )
        24           Si  tau(  24) = (   0.8749186   0.8857095   0.1268553  )
        25           Si  tau(  25) = (  -0.0002089  -0.0000403   0.5063125  )
        26           Si  tau(  26) = (   0.2503327   0.2530230   0.5068663  )
        27           Si  tau(  27) = (   0.1253622   0.1261284   0.6336062  )
        28           Si  tau(  28) = (   0.3760449   0.1255835   0.3798554  )
        29           Si  tau(  29) = (   0.5003394  -0.0003850   0.5064099  )
        30           Si  tau(  30) = (   0.6251540   0.1258468   0.6345223  )
        31           Si  tau(  31) = (   0.8765608   0.1261142   0.3802223  )
        32           Si  tau(  32) = (   0.7510961   0.2528098   0.5068136  )
        33           Si  tau(  33) = (   0.1256473   0.3788707   0.3809696  )
        34           Si  tau(  34) = (   0.0005419   0.5052738   0.5067572  )
        35           Si  tau(  35) = (   0.1258189   0.6328396   0.6337118  )
        36           Si  tau(  36) = (   0.6246246   0.3784716   0.3808033  )
        37           Si  tau(  37) = (   0.3744905   0.6318041   0.3800604  )
        38           Si  tau(  38) = (   0.3754774   0.3788325   0.6338527  )
        39           Si  tau(  39) = (   0.5010345   0.5064372   0.5066830  )
        40           Si  tau(  40) = (   0.6260976   0.6329072   0.6333131  )
        41           Si  tau(  41) = (   0.8766173   0.6326377   0.3811209  )
        42           Si  tau(  42) = (   0.8766032   0.3796388   0.6341033  )
        43           Si  tau(  43) = (   0.1248719   0.8848834   0.3812353  )
        44           Si  tau(  44) = (   0.2494061   0.7589313   0.5064157  )
        45           Si  tau(  45) = (   0.6257169   0.8846469   0.3803619  )
        46           Si  tau(  46) = (   0.3755887   0.8859875   0.6336583  )
        47           Si  tau(  47) = (   0.7505428   0.7592304   0.5074454  )
        48           Si  tau(  48) = (   0.8750652   0.8849473   0.6341128  )
        49           Si  tau(  49) = (   0.0003851   0.2532648   0.7605865  )
        50           Si  tau(  50) = (   0.2493432   0.0001760   0.7614389  )
        51           Si  tau(  51) = (   0.3756958   0.1269486   0.8883622  )
        52           Si  tau(  52) = (   0.5004921   0.2531413   0.7608662  )
        53           Si  tau(  53) = (   0.7497757   0.0003897   0.7615831  )
        54           Si  tau(  54) = (   0.8755174   0.1270826   0.8865746  )
        55           Si  tau(  55) = (   0.1243771   0.3793492   0.8866235  )
        56           Si  tau(  56) = (   0.2499580   0.5053004   0.7603072  )
        57           Si  tau(  57) = (   0.6261397   0.3802829   0.8872481  )
        58           Si  tau(  58) = (   0.3757998   0.6329927   0.8869146  )
        59           Si  tau(  59) = (   0.7503209   0.5055734   0.7612069  )
        60           Si  tau(  60) = (   0.8762734   0.6320732   0.8872400  )
        61           Si  tau(  61) = (  -0.0006023   0.7587020   0.7614935  )
        62           Si  tau(  62) = (   0.1255044   0.8861499   0.8868758  )
        63           Si  tau(  63) = (   0.5012507   0.7583781   0.7611358  )
        64           Si  tau(  64) = (   0.6252077   0.8860640   0.8876214  )

     number of k points=     1  Fermi-Dirac smearing, width (Ry)=  0.0100
                       cart. coord. in units 2pi/alat
        k(    1) = (   0.0000000   0.0000000   0.0000000), wk =   2.0000000

     Dense  grid:   100042 G-vectors     FFT dimensions: (  72,  75,  75)

     Estimated max dynamical RAM per process >     160.17 MB

     Estimated total dynamical RAM >     616.27 MB

     Initial potential from superposition of free atoms

     starting charge     255.9608, renormalised to     256.0000
     Starting wfcs are  256 randomized atomic wfcs

     total cpu time spent up to now is        4.2 secs

     Self-consistent Calculation

     iteration #  1     ecut=    30.00 Ry     beta= 0.50
     Davidson diagonalization with overlap
     ethr =  1.00E-02,  avg # of iterations =  3.0

     Threshold (ethr) on eigenvalues was too large:
     Diagonalizing with lowered threshold

     Davidson diagonalization with overlap
     ethr =  6.38E-04,  avg # of iterations =  4.0

     total cpu time spent up to now is        4.4 secs

     total energy              =    -503.98790569 Ry
     estimated scf accuracy    <       1.81338509 Ry

     iteration #  2     ecut=    30.00 Ry     beta= 0.50
     Davidson diagonalization with overlap
     ethr =  7.08E-04,  avg # of iterations =  2.0

     total cpu time spent up to now is        4.5 secs

     total energy              =    -503.96882857 Ry
     estimated scf accuracy    <       0.34429494 Ry

     iteration #  3     ecut=    30.00 Ry     beta= 0.50
     Davidson diagonalization with overlap
     ethr =  1.34E-04,  avg # of iterations =  4.0

     total cpu time spent up to now is        4.6 secs

     total energy              =    -503.99079588 Ry
     estimated scf accuracy    <       0.00586833 Ry

     iteration #  4     ecut=    30.00 Ry     beta= 0.50
     Davidson diagonalization with overlap
     c_bands:  4 eigenvalues not converged
     ethr =  2.29E-06,  avg # of iterations = 20.0

     total cpu time spent up to now is        4.8 secs

     total energy              =    -503.99302899 Ry
     estimated scf accuracy    <       0.00349604 Ry

     iteration #  5     ecut=    30.00 Ry     beta= 0.50
     Davidson diagonalization with overlap
     ethr =  1.37E-06,  avg # of iterations =  7.0

     total cpu time spent up to now is        4.9 secs

     total energy              =    -503.99373781 Ry
     estimated scf accuracy    <       0.00033525 Ry

     iteration #  6     ecut=    30.00 Ry     beta= 0.50
     Davidson diagonalization with overlap
     ethr =  1.31E-07,  avg # of iterations =  4.0

     total cpu time spent up to now is        5.0 secs

     total energy              =    -503.99378013 Ry
     estimated scf accuracy    <       0.00004208 Ry

     iteration #  7     ecut=    30.00 Ry     beta= 0.50
     Davidson diagonalization with overlap
     ethr =  1.64E-08,  avg # of iterations =  4.0

     total cpu time spent up to now is        5.1 secs

     total energy              =    -503.99378493 Ry
     estimated scf accuracy    <       0.00000490 Ry

     iteration #  8     ecut=    30.00 Ry     beta= 0.50
     Davidson diagonalization with overlap
     ethr =  1.92E-09,  avg # of iterations =  5.0

     total cpu time spent up to now is        5.3 secs

     End of self-consistent calculation

          k = 0.0000 0.0000 0.0000 ( 12530 PWs)   bands (ev):

    -5.8491  -4.8340  -4.8243  -4.8045  -4.7949  -4.7900  -4.7799  -3.9251
    -3.9110  -3.9044  -3.8939  -3.8916  -3.8874  -3.8759  -3.8661  -3.8633
    -3.8602  -3.8537  -3.8444  -3.6418  -3.6191  -3.6162  -3.5863  -1.8958
    -1.8817  -1.8744  -1.8696  -1.8064  -1.7926  -1.7416  -1.7294  -1.7220
    -1.7152  -1.7119  -1.7098  -1.7053  -1.6944  -1.6891  -1.6809  -1.6666
    -1.6589  -0.9733  -0.9474  -0.9376  -0.9283   0.3813   0.4026   0.4083
     0.4111   0.4154   0.4239   0.4316   0.4337   0.4495   0.4528   0.4667
     0.4710   2.1323   2.1377   2.1410   2.1427   2.1447   2.1483   2.1507
     2.1556   2.1573   2.1590   2.1657   2.1663   2.2003   2.2018   2.2129
     2.2165   2.2213   2.2233   2.2274   2.2324   2.2662   2.2735   2.2747
     2.2827   2.2913   2.2954   2.3070   2.3177   2.3733   2.3781   3.0249
     3.0345   3.1212   3.1264   3.1278   3.1394   3.9630   3.9762   3.9788
     3.9851   4.0184   4.0256   4.0300   4.0407   4.0654   4.0731   4.0740
     4.0962   4.4738   4.4845   4.5007   4.5113   4.5611   4.5749   4.5771
     4.5830   4.5869   4.5952   4.6072   4.6134   4.6157   4.6305   4.6383
     4.6473   4.7167   4.7405   4.7471   4.7918   5.7997   5.8286   5.9126
     6.5232   6.5387   6.6288   6.6387   6.6419   6.6562   6.9151   6.9196
     7.0125   7.0216   7.0238   7.0451   7.2025   7.2039   7.2076   7.2159
     8.1444   8.1570   8.1650   8.1661   8.2512   8.2670   8.2696   8.2762
     8.2837   8.2904

     the Fermi energy is     6.1693 ev

!    total energy              =    -503.99378618 Ry
     estimated scf accuracy    <       0.00000098 Ry
     smearing contrib. (-TS)   =      -0.04085387 Ry
     internal energy E=F+TS    =    -503.95293231 Ry

     The total energy is F=E-TS. E is the sum of the following terms:
     one-electron contribution =     142.13625954 Ry
     hartree contribution      =      37.07972726 Ry
     xc contribution           =    -153.02154315 Ry
     ewald contribution        =    -530.14737597 Ry

     convergence has been achieved in   8 iterations

     Forces acting on atoms (cartesian axes, Ry/au):

     atom    1 type  1   force =     0.00018619   -0.01027906    0.00601530
     atom    2 type  1   force =     0.00619129   -0.00280868   -0.00085577
     atom    3 type  1   force =    -0.00050155   -0.01211779    0.00217555
     atom    4 type  1   force =    -0.00113395    0.00030434    0.00196452
     atom    5 type  1   force =    -0.00429648    0.00505376    0.00022572
     atom    6 type  1   force =    -0.00208606   -0.01142315    0.00081068
     atom    7 type  1   force =     0.00495723    0.00021106   -0.00100288
     atom    8 type  1   force =     0.00202854    0.00151483    0.00676533
     atom    9 type  1   force =    -0.00477868   -0.00260104    0.00323889
     atom   10 type  1   force =    -0.00588409    0.00300346   -0.00051946
     atom   11 type  1   force =     0.00523668   -0.00582365    0.00769545
     atom   12 type  1   force =     0.00554410   -0.00880917    0.00264261
     atom   13 type  1   force =    -0.00658848    0.00218135   -0.00231033
     atom   14 type  1   force =    -0.00548385    0.00281993    0.00316052
     atom   15 type  1   force =     0.00319608    0.00479759    0.00609386
     atom   16 type  1   force =    -0.00024624    0.00014530   -0.00572090
     atom   17 type  1   force =     0.00108055    0.00596278   -0.00014346
     atom   18 type  1   force =    -0.00089243   -0.00501726    0.00681101
     atom   19 type  1   force =     0.00237041    0.00529799   -0.00466713
     atom   20 type  1   force =    -0.00229646    0.00634529   -0.00011642
     atom   21 type  1   force =     0.00330812    0.00632355    0.00168330
     atom   22 type  1   force =    -0.00230478    0.00047160    0.00080278
     atom   23 type  1   force =    -0.00627118    0.00080876    0.00008462
     atom   24 type  1   force =     0.00780010    0.00423658   -0.00069904
     atom   25 type  1   force =     0.00277622   -0.00915704    0.00684754
     atom   26 type  1   force =     0.00382120   -0.00483219    0.00041432
     atom   27 type  1   force =    -0.00187080    0.00060334   -0.00013915
     atom   28 type  1   force =    -0.00476579    0.00286054    0.00191685
     atom   29 type  1   force =     0.00311136   -0.00652617    0.00293933
     atom   30 type  1   force =     0.00099743    0.00256233   -0.00471846
     atom   31 type  1   force =    -0.00689462    0.00067781   -0.00234314
     atom   32 type  1   force =    -0.00148620   -0.00202395    0.00400534
     atom   33 type  1   force =    -0.00119468    0.00240376   -0.00578337
     atom   34 type  1   force =     0.00368796    0.00385764    0.00365059
     atom   35 type  1   force =    -0.00503934   -0.00233549    0.00133045
     atom   36 type  1   force =     0.00511178    0.00355329   -0.00513153
     atom   37 type  1   force =     0.00227501    0.00325594   -0.00017943
     atom   38 type  1   force =     0.00152937    0.00366113   -0.00149577
     atom   39 type  1   force =    -0.00473205   -0.00257493    0.00264352
     atom   40 type  1   force =    -0.00072123   -0.00346997    0.00362816
     atom   41 type  1   force =    -0.00709307   -0.00305196   -0.00184218
     atom   42 type  1   force =    -0.00659162   -0.00092301   -0.00125581
     atom   43 type  1   force =    -0.00008795    0.00982571   -0.00620109
     atom   44 type  1   force =     0.00697700    0.00136861    0.00478383
     atom   45 type  1   force =    -0.00016945    0.00903830   -0.00157071
     atom   46 type  1   force =    -0.00267548    0.00213408    0.00226192
     atom   47 type  1   force =     0.00207521   -0.00089883   -0.00229145
     atom   48 type  1   force =    -0.00063453    0.01151844    0.00187850
     atom   49 type  1   force =     0.00132578   -0.00310138   -0.00392333
     atom   50 type  1   force =     0.00827819   -0.00462034   -0.00433465
     atom   51 type  1   force =    -0.00286449   -0.00138332   -0.00684895
     atom   52 type  1   force =     0.00094227   -0.00042133    0.00031626
     atom   53 type  1   force =     0.00260077   -0.00929465   -0.00455535
     atom   54 type  1   force =     0.00019310   -0.00195296   -0.00135742
     atom   55 type  1   force =     0.00321448    0.00128891    0.00231836
     atom   56 type  1   force =     0.00267453    0.00363416    0.00007504
     atom   57 type  1   force =    -0.00124186   -0.00772092   -0.00010274
     atom   58 type  1   force =    -0.00283593   -0.00613911   -0.00297655
     atom   59 type  1   force =     0.00374407    0.00401622   -0.00615695
     atom   60 type  1   force =    -0.00806842    0.00187103   -0.00189689
     atom   61 type  1   force =     0.00723343    0.00267657   -0.00581393
     atom   62 type  1   force =    -0.00253051    0.00002192    0.00218013
     atom   63 type  1   force =    -0.00207922    0.00658994   -0.00561538
     atom   64 type  1   force =     0.00187303    0.00240947    0.00120934

     Total force =     0.059508     Total SCF correction =     0.001758


     Computing stress (Cartesian axis) and pressure

          total   stress  (Ry/bohr**3)                   (kbar)     P=       -8.13
  -0.00000939  -0.00000391   0.00000964           -1.38       -0.58        1.42
  -0.00000391  -0.00008197  -0.00000725           -0.58      -12.06       -1.07
   0.00000964  -0.00000725  -0.00007443            1.42       -1.07      -10.95

 
     init_run     :      0.88s CPU      4.13s WALL (       1 calls)
     electrons    :      0.99s CPU      1.07s WALL (       1 calls)
     forces       :      0.04s CPU      0.04s WALL (       1 calls)
     stress       :      0.15s CPU      0.16s WALL (       1 calls)

     Called by init_run:
     wfcinit      :      0.41s CPU      3.50s WALL (       1 calls)
                                        3.50s GPU  (       1 calls)
     potinit      :      0.15s CPU      0.23s WALL (       1 calls)
     hinit0       :      0.30s CPU      0.33s WALL (       1 calls)

     Called by electrons:
     c_bands      :      0.71s CPU      0.76s WALL (       9 calls)
     sum_band     :      0.16s CPU      0.17s WALL (       9 calls)
     v_of_rho     :      0.07s CPU      0.16s WALL (       9 calls)
     mix_rho      :      0.04s CPU      0.05s WALL (       9 calls)

     Called by c_bands:
     init_us_2    :      0.02s CPU      0.03s WALL (      19 calls)
     init_us_2:gp :      0.02s CPU      0.02s WALL (      19 calls)
     regterg      :      0.64s CPU      0.69s WALL (       9 calls)

     Called by *egterg:
     rdiaghg      :      0.28s CPU      0.93s WALL (      61 calls)
                                        0.91s GPU  (      61 calls)
     h_psi        :      0.66s CPU      3.13s WALL (      63 calls)
                                        3.13s GPU  (      63 calls)
     g_psi        :      0.00s CPU      0.00s WALL (      53 calls)
                                        0.00s GPU  (      53 calls)

     Called by h_psi:
     h_psi:calbec :      0.37s CPU      2.79s WALL (      63 calls)
                                        2.79s GPU  (      63 calls)
     vloc_psi     :      0.26s CPU      0.30s WALL (      63 calls)
                                        0.30s GPU  (      63 calls)
     add_vuspsi   :      0.02s CPU      0.03s WALL (      63 calls)
                                        0.03s GPU  (      63 calls)

     General routines
     calbec       :      0.37s CPU      2.80s WALL (      68 calls)
     fft          :      0.31s CPU      0.43s WALL (      79 calls)
                                        0.11s GPU  (      51 calls)
     ffts         :      0.02s CPU      0.02s WALL (       9 calls)
     fftw         :      0.29s CPU      0.38s WALL (    1009 calls)
                                        0.34s GPU  (    1009 calls)
 
     Parallel routines
 
     PWSCF        :      2.10s CPU      5.46s WALL

 
   This run was terminated on:  11: 4:24  10May2023            

=------------------------------------------------------------------------------=
   JOB DONE.
=------------------------------------------------------------------------------=
