An instance of this daemon is already running
An instance of this daemon is already running

     Program PWSCF v.7.1 starts on 10May2023 at 11: 4:59 

     This program is part of the open-source Quantum ESPRESSO suite
     for quantum simulation of materials; please cite
         "P. Giannozzi et al., J. Phys.:Condens. Matter 21 395502 (2009);
         "P. Giannozzi et al., J. Phys.:Condens. Matter 29 465901 (2017);
         "P. Giannozzi et al., J. Chem. Phys. 152 154105 (2020);
          URL http://www.quantum-espresso.org", 
     in publications or presentations arising from this work. More details at
     http://www.quantum-espresso.org/quote

     Parallel version (MPI & OpenMP), running on       4 processor cores
     Number of MPI processes:                 4
     Threads/MPI process:                     1

     MPI processes distributed on     1 nodes
     149914 MiB available memory on the printing compute node when the environment starts
 
     Reading input from pw-si-65.in
Warning: card &CELL ignored
Warning: card / ignored

     Current dimensions of program PWSCF are:
     Max number of different atomic species (ntypx) = 10
     Max number of k-points (npk) =  40000
     Max angular momentum in pseudopotentials (lmaxx) =  4

     IMPORTANT: XC functional enforced from input :
     Exchange-correlation= PBE
                           (   1   4   3   4   0   0   0)
     Any further DFT definition will be discarded
     Please, verify this is what you really want


     gamma-point specific algorithms are used
 
     K-points division:     npool     =       2
     R & G space division:  proc/nbgrp/npool/nimage =       2
     Subspace diagonalization in iterative solution of the eigenvalue problem:
     a serial algorithm will be used

     Message from routine divide_et_impera:
     suboptimal parallelization: some nodes have no k-points
 
     Parallelization info
     --------------------
     sticks:   dense  smooth     PW     G-vecs:    dense   smooth      PW
     Min        2034    2034    542                98026    98026   13370
     Max        2035    2035    543                98027    98027   13375
     Sum        4069    4069   1085               196053   196053   26745
 
     Using Slab Decomposition
 


     bravais-lattice index     =            0
     lattice parameter (alat)  =      20.6531  a.u.
     unit-cell volume          =    8841.6574 (a.u.)^3
     number of atoms/cell      =           64
     number of atomic types    =            1
     number of electrons       =       256.00
     number of Kohn-Sham states=          154
     kinetic-energy cutoff     =      30.0000  Ry
     charge density cutoff     =     120.0000  Ry
     scf convergence threshold =      1.0E-06
     mixing beta               =       0.5000
     number of iterations used =            8  plain     mixing
     Exchange-correlation= PBE
                           (   1   4   3   4   0   0   0)

     GPU acceleration is ACTIVE.
     GPU-aware MPI enabled

     Message from routine print_cuda_info:
     High GPU oversubscription detected. Are you sure this is what you want?

     celldm(1)=  20.653095  celldm(2)=   0.000000  celldm(3)=   0.000000
     celldm(4)=   0.000000  celldm(5)=   0.000000  celldm(6)=   0.000000

     crystal axes: (cart. coord. in units of alat)
               a(1) = (   1.000000   0.000000   0.000000 )  
               a(2) = (   0.000000   1.002145   0.000000 )  
               a(3) = (   0.000000   0.000000   1.001492 )  

     reciprocal axes: (cart. coord. in units 2 pi/alat)
               b(1) = (  1.000000  0.000000  0.000000 )  
               b(2) = (  0.000000  0.997859  0.000000 )  
               b(3) = (  0.000000  0.000000  0.998510 )  


     PseudoPot. # 1 for Si read from file:
     /home/ppiaggi/pseudos/Si_ONCV_PBE_sr.upf
     MD5 check sum: 8553c464762ac42b85b1eed164b4d029
     Pseudo is Norm-conserving, Zval =  4.0
     Generated using ONCVPSP code by D. R. Hamann
     Using radial grid of 1510 points,  4 beta functions with: 
                l(1) =   0
                l(2) =   0
                l(3) =   1
                l(4) =   1

     atomic species   valence    mass     pseudopotential
        Si             4.00    28.08500     Si( 1.00)

     No symmetry found



   Cartesian axes

     site n.     atom                  positions (alat units)
         1           Si  tau(   1) = (   0.0006037   0.0006925   0.0002316  )
         2           Si  tau(   2) = (  -0.0005661   0.2506570   0.2507071  )
         3           Si  tau(   3) = (   0.2529139  -0.0008864   0.2512661  )
         4           Si  tau(   4) = (   0.2518822   0.2497569   0.0008201  )
         5           Si  tau(   5) = (   0.1264744   0.1253688   0.1246242  )
         6           Si  tau(   6) = (   0.5044356  -0.0002071  -0.0005731  )
         7           Si  tau(   7) = (   0.5039989   0.2491550   0.2513510  )
         8           Si  tau(   8) = (   0.6298159   0.1250610   0.1256654  )
         9           Si  tau(   9) = (   0.7567678   0.0006414   0.2507016  )
        10           Si  tau(  10) = (   0.7571058   0.2498142  -0.0004696  )
        11           Si  tau(  11) = (  -0.0007287   0.4998544   0.0001392  )
        12           Si  tau(  12) = (   0.2523830   0.4995856   0.2500301  )
        13           Si  tau(  13) = (   0.1265333   0.6244988   0.1246714  )
        14           Si  tau(  14) = (   0.3782074   0.3744021   0.1261992  )
        15           Si  tau(  15) = (   0.5045480   0.4997035   0.0006508  )
        16           Si  tau(  16) = (   0.6303569   0.6257241   0.1256312  )
        17           Si  tau(  17) = (   0.8824152   0.3755354   0.1261184  )
        18           Si  tau(  18) = (   0.7571198   0.5008416   0.2503071  )
        19           Si  tau(  19) = (   0.0003469   0.7507271   0.2516483  )
        20           Si  tau(  20) = (   0.2517705   0.7502687  -0.0006716  )
        21           Si  tau(  21) = (   0.3776411   0.8751172   0.1250037  )
        22           Si  tau(  22) = (   0.5048803   0.7500415   0.2514529  )
        23           Si  tau(  23) = (   0.7571681   0.7501099   0.0005910  )
        24           Si  tau(  24) = (   0.8828867   0.8746809   0.1257836  )
        25           Si  tau(  25) = (   0.0008066  -0.0004755   0.5012513  )
        26           Si  tau(  26) = (   0.2517414   0.2496182   0.5024447  )
        27           Si  tau(  27) = (   0.1263324   0.1257763   0.6266707  )
        28           Si  tau(  28) = (   0.3784973   0.1244210   0.3764373  )
        29           Si  tau(  29) = (   0.5039824   0.0002189   0.5019996  )
        30           Si  tau(  30) = (   0.6299184   0.1247580   0.6274875  )
        31           Si  tau(  31) = (   0.8816829   0.1251801   0.3764389  )
        32           Si  tau(  32) = (   0.7557600   0.2503337   0.5016020  )
        33           Si  tau(  33) = (   0.1268763   0.3750455   0.3769385  )
        34           Si  tau(  34) = (  -0.0003792   0.4992086   0.5015910  )
        35           Si  tau(  35) = (   0.1263170   0.6247285   0.6270655  )
        36           Si  tau(  36) = (   0.6308556   0.3755374   0.3768603  )
        37           Si  tau(  37) = (   0.3772990   0.6247765   0.3757483  )
        38           Si  tau(  38) = (   0.3778683   0.3745611   0.6272883  )
        39           Si  tau(  39) = (   0.5049852   0.5005786   0.5015411  )
        40           Si  tau(  40) = (   0.6305657   0.6245133   0.6278306  )
        41           Si  tau(  41) = (   0.8830551   0.6256217   0.3752761  )
        42           Si  tau(  42) = (   0.8828749   0.3756047   0.6266694  )
        43           Si  tau(  43) = (   0.1263783   0.8746147   0.3767267  )
        44           Si  tau(  44) = (   0.2515511   0.7500570   0.5011843  )
        45           Si  tau(  45) = (   0.6297515   0.8758913   0.3755718  )
        46           Si  tau(  46) = (   0.3788700   0.8744709   0.6277418  )
        47           Si  tau(  47) = (   0.7569716   0.7496394   0.5021913  )
        48           Si  tau(  48) = (   0.8826003   0.8747751   0.6261538  )
        49           Si  tau(  49) = (   0.0000969   0.2501961   0.7520720  )
        50           Si  tau(  50) = (   0.2524240  -0.0003506   0.7523287  )
        51           Si  tau(  51) = (   0.3783974   0.1256491   0.8778319  )
        52           Si  tau(  52) = (   0.5038423   0.2503516   0.7521163  )
        53           Si  tau(  53) = (   0.7565356   0.0004376   0.7524942  )
        54           Si  tau(  54) = (   0.8820278   0.1253822   0.8777488  )
        55           Si  tau(  55) = (   0.1258740   0.3747118   0.8779889  )
        56           Si  tau(  56) = (   0.2522182   0.5006087   0.7525067  )
        57           Si  tau(  57) = (   0.6306310   0.3750560   0.8776304  )
        58           Si  tau(  58) = (   0.3778546   0.6242745   0.8778443  )
        59           Si  tau(  59) = (   0.7554050   0.4994239   0.7526809  )
        60           Si  tau(  60) = (   0.8822603   0.6256061   0.8774610  )
        61           Si  tau(  61) = (   0.0002475   0.7504799   0.7529788  )
        62           Si  tau(  62) = (   0.1264735   0.8751905   0.8775085  )
        63           Si  tau(  63) = (   0.5046475   0.7507715   0.7527115  )
        64           Si  tau(  64) = (   0.6303999   0.8754665   0.8772621  )

     number of k points=     1  Fermi-Dirac smearing, width (Ry)=  0.0100
                       cart. coord. in units 2pi/alat
        k(    1) = (   0.0000000   0.0000000   0.0000000), wk =   2.0000000

     Dense  grid:    98027 G-vectors     FFT dimensions: (  75,  75,  75)

     Estimated max dynamical RAM per process >     158.05 MB

     Estimated total dynamical RAM >     608.28 MB

     Initial potential from superposition of free atoms

     starting charge     255.9608, renormalised to     256.0000
     Starting wfcs are  256 randomized atomic wfcs

     total cpu time spent up to now is        4.1 secs

     Self-consistent Calculation

     iteration #  1     ecut=    30.00 Ry     beta= 0.50
     Davidson diagonalization with overlap
     ethr =  1.00E-02,  avg # of iterations =  3.0

     Threshold (ethr) on eigenvalues was too large:
     Diagonalizing with lowered threshold

     Davidson diagonalization with overlap
     ethr =  6.60E-04,  avg # of iterations =  2.0

     total cpu time spent up to now is        4.3 secs

     total energy              =    -503.97085978 Ry
     estimated scf accuracy    <       1.87071140 Ry

     iteration #  2     ecut=    30.00 Ry     beta= 0.50
     Davidson diagonalization with overlap
     ethr =  7.31E-04,  avg # of iterations =  1.0

     total cpu time spent up to now is        4.4 secs

     total energy              =    -503.95172328 Ry
     estimated scf accuracy    <       0.34988033 Ry

     iteration #  3     ecut=    30.00 Ry     beta= 0.50
     Davidson diagonalization with overlap
     ethr =  1.37E-04,  avg # of iterations =  4.0

     total cpu time spent up to now is        4.5 secs

     total energy              =    -503.97435426 Ry
     estimated scf accuracy    <       0.00801929 Ry

     iteration #  4     ecut=    30.00 Ry     beta= 0.50
     Davidson diagonalization with overlap
     ethr =  3.13E-06,  avg # of iterations = 19.0

     total cpu time spent up to now is        4.7 secs

     total energy              =    -503.97624486 Ry
     estimated scf accuracy    <       0.00999746 Ry

     iteration #  5     ecut=    30.00 Ry     beta= 0.50
     Davidson diagonalization with overlap
     ethr =  3.13E-06,  avg # of iterations =  6.0

     total cpu time spent up to now is        4.8 secs

     total energy              =    -503.97805877 Ry
     estimated scf accuracy    <       0.00057735 Ry

     iteration #  6     ecut=    30.00 Ry     beta= 0.50
     Davidson diagonalization with overlap
     ethr =  2.26E-07,  avg # of iterations =  4.0

     total cpu time spent up to now is        4.9 secs

     total energy              =    -503.97810214 Ry
     estimated scf accuracy    <       0.00013499 Ry

     iteration #  7     ecut=    30.00 Ry     beta= 0.50
     Davidson diagonalization with overlap
     ethr =  5.27E-08,  avg # of iterations =  5.0

     total cpu time spent up to now is        5.1 secs

     total energy              =    -503.97811201 Ry
     estimated scf accuracy    <       0.00001897 Ry

     iteration #  8     ecut=    30.00 Ry     beta= 0.50
     Davidson diagonalization with overlap
     ethr =  7.41E-09,  avg # of iterations =  5.0

     total cpu time spent up to now is        5.2 secs

     total energy              =    -503.97811683 Ry
     estimated scf accuracy    <       0.00000103 Ry

     iteration #  9     ecut=    30.00 Ry     beta= 0.50
     Davidson diagonalization with overlap
     ethr =  4.04E-10,  avg # of iterations =  5.0

     total cpu time spent up to now is        5.3 secs

     total energy              =    -503.97811707 Ry
     estimated scf accuracy    <       0.00000165 Ry

     iteration # 10     ecut=    30.00 Ry     beta= 0.50
     Davidson diagonalization with overlap
     ethr =  4.04E-10,  avg # of iterations =  4.0

     total cpu time spent up to now is        5.4 secs

     End of self-consistent calculation

          k = 0.0000 0.0000 0.0000 ( 12239 PWs)   bands (ev):

    -5.7936  -4.7698  -4.7469  -4.7418  -4.7226  -4.7202  -4.6694  -3.8847
    -3.8407  -3.8341  -3.8212  -3.8125  -3.7890  -3.7821  -3.7504  -3.7438
    -3.7376  -3.7189  -3.7178  -3.5358  -3.4968  -3.4848  -3.4535  -1.8058
    -1.7976  -1.7471  -1.6969  -1.6888  -1.6753  -1.6009  -1.5952  -1.5865
    -1.5823  -1.5681  -1.5566  -1.5491  -1.5362  -1.5345  -1.5246  -1.5229
    -1.5135  -0.8789  -0.8617  -0.8492  -0.7788   0.5510   0.5545   0.5670
     0.5732   0.5780   0.5829   0.5849   0.5884   0.5952   0.6005   0.6207
     0.6372   2.1863   2.1941   2.1962   2.1988   2.2523   2.2578   2.2611
     2.2629   2.2708   2.2729   2.2759   2.2792   2.3311   2.3579   2.3646
     2.3695   2.3750   2.3772   2.3803   2.3822   2.3880   2.3917   2.3977
     2.4077   2.4964   2.5094   2.5252   2.5268   2.5345   2.5451   3.1877
     3.2255   3.2328   3.2407   3.2575   3.2637   4.0828   4.1591   4.1677
     4.1733   4.1769   4.1825   4.1933   4.1965   4.2002   4.2161   4.2363
     4.2401   4.4768   4.6976   4.7053   4.7184   4.7243   4.7404   4.7490
     4.7541   4.7562   4.7677   4.7734   4.7768   4.8419   4.8515   4.8617
     4.8745   4.8841   4.8901   4.9033   4.9254   5.9889   6.0469   6.0858
     6.6885   6.7122   6.7241   6.7749   6.8074   6.8181   7.1444   7.1579
     7.1608   7.1717   7.1786   7.1904   7.4555   7.4577   7.4707   7.4768
     8.3272   8.4154   8.4231   8.4319   8.4361   8.4466   8.4540   8.4606
     8.4634   8.4708

     the Fermi energy is     6.3413 ev

!    total energy              =    -503.97811719 Ry
     estimated scf accuracy    <       0.00000010 Ry
     smearing contrib. (-TS)   =      -0.04467875 Ry
     internal energy E=F+TS    =    -503.93343845 Ry

     The total energy is F=E-TS. E is the sum of the following terms:
     one-electron contribution =     146.37471294 Ry
     hartree contribution      =      36.66990479 Ry
     xc contribution           =    -153.64240732 Ry
     ewald contribution        =    -533.33564887 Ry

     convergence has been achieved in  10 iterations

     Forces acting on atoms (cartesian axes, Ry/au):

     atom    1 type  1   force =     0.02311561   -0.01059250    0.00364628
     atom    2 type  1   force =     0.03116220   -0.00373018    0.00341929
     atom    3 type  1   force =    -0.00494778   -0.00168215   -0.00276369
     atom    4 type  1   force =     0.00290389    0.00296552    0.00020346
     atom    5 type  1   force =     0.00156796   -0.00327626    0.01057093
     atom    6 type  1   force =    -0.00281542   -0.00432652    0.00713563
     atom    7 type  1   force =     0.00191748    0.00501714    0.00187817
     atom    8 type  1   force =     0.00337546   -0.00109567   -0.00312042
     atom    9 type  1   force =    -0.00549896   -0.00883403   -0.00110424
     atom   10 type  1   force =    -0.00793748    0.00274856    0.01050580
     atom   11 type  1   force =     0.02845442    0.00110988    0.00277563
     atom   12 type  1   force =    -0.00183157    0.00084603    0.00312919
     atom   13 type  1   force =    -0.00088592    0.00367676    0.00343560
     atom   14 type  1   force =     0.00313339   -0.00074307   -0.00203538
     atom   15 type  1   force =    -0.00215969    0.00056500    0.00425302
     atom   16 type  1   force =     0.00091106   -0.00203525   -0.00015292
     atom   17 type  1   force =    -0.02789383   -0.00208673   -0.00420646
     atom   18 type  1   force =    -0.00770251   -0.00106188    0.00294404
     atom   19 type  1   force =     0.03074142   -0.00287913   -0.00625840
     atom   20 type  1   force =     0.00199883   -0.00175860    0.00678660
     atom   21 type  1   force =     0.00646153    0.00272033    0.00125648
     atom   22 type  1   force =    -0.00782443    0.00208417   -0.00368722
     atom   23 type  1   force =    -0.00752833    0.00282037    0.00137490
     atom   24 type  1   force =    -0.02448460    0.01184564   -0.00093762
     atom   25 type  1   force =     0.02225246   -0.00162031    0.00069809
     atom   26 type  1   force =     0.00501098    0.00120116   -0.00544821
     atom   27 type  1   force =     0.00081366   -0.00790149    0.00338609
     atom   28 type  1   force =    -0.00249445    0.00085410    0.00255803
     atom   29 type  1   force =     0.00008981   -0.00867893    0.00016908
     atom   30 type  1   force =     0.00105961    0.00187472   -0.00167867
     atom   31 type  1   force =    -0.02107747   -0.00057248    0.00056873
     atom   32 type  1   force =    -0.00067226   -0.00141363    0.00368550
     atom   33 type  1   force =    -0.00018610   -0.00164746   -0.00368802
     atom   34 type  1   force =     0.02991761    0.00798657   -0.00349993
     atom   35 type  1   force =    -0.00083198    0.00158200   -0.00059621
     atom   36 type  1   force =    -0.00164756   -0.00046220   -0.00616437
     atom   37 type  1   force =     0.00571418    0.00088773    0.00143247
     atom   38 type  1   force =     0.00295117    0.00497906   -0.00279491
     atom   39 type  1   force =    -0.00756237   -0.00179268    0.00140453
     atom   40 type  1   force =    -0.00104075    0.00431538   -0.00227629
     atom   41 type  1   force =    -0.02724821   -0.00348112    0.00702059
     atom   42 type  1   force =    -0.03199823   -0.00496297    0.00326112
     atom   43 type  1   force =     0.00369476    0.00932152   -0.00248051
     atom   44 type  1   force =     0.00462177   -0.00108081    0.00470370
     atom   45 type  1   force =     0.00611464    0.00348645    0.00655181
     atom   46 type  1   force =    -0.00304019    0.00750550   -0.00528069
     atom   47 type  1   force =    -0.00846435    0.00197687   -0.00600713
     atom   48 type  1   force =    -0.02406545    0.00870545    0.00476010
     atom   49 type  1   force =     0.02517058   -0.00017945    0.00036916
     atom   50 type  1   force =     0.00042647   -0.00222300   -0.00118317
     atom   51 type  1   force =    -0.00060668   -0.00337997   -0.00476609
     atom   52 type  1   force =     0.00117000   -0.00056714    0.00181567
     atom   53 type  1   force =    -0.00228783   -0.00862216   -0.00333788
     atom   54 type  1   force =    -0.02118629   -0.00257690   -0.00645271
     atom   55 type  1   force =     0.00412452    0.00193090   -0.00471642
     atom   56 type  1   force =    -0.00135206   -0.00532500   -0.00074654
     atom   57 type  1   force =    -0.00287737   -0.00311264   -0.00227411
     atom   58 type  1   force =     0.00560494    0.00474182   -0.00387110
     atom   59 type  1   force =     0.00407202    0.00318282   -0.00137254
     atom   60 type  1   force =    -0.02730032   -0.00359668   -0.00405147
     atom   61 type  1   force =     0.02601967   -0.00001556   -0.00555218
     atom   62 type  1   force =     0.00057546    0.00860397   -0.00359923
     atom   63 type  1   force =    -0.00183653   -0.00672155    0.00091196
     atom   64 type  1   force =     0.00413943    0.00450066   -0.00050696

     Total force =     0.120417     Total SCF correction =     0.000568


     Computing stress (Cartesian axis) and pressure

          total   stress  (Ry/bohr**3)                   (kbar)     P=        8.86
   0.00006226  -0.00000362   0.00000713            9.16       -0.53        1.05
  -0.00000362   0.00005745  -0.00003360           -0.53        8.45       -4.94
   0.00000713  -0.00003360   0.00006093            1.05       -4.94        8.96

 
     init_run     :      0.76s CPU      4.01s WALL (       1 calls)
     electrons    :      1.23s CPU      1.35s WALL (       1 calls)
     forces       :      0.04s CPU      0.04s WALL (       1 calls)
     stress       :      0.15s CPU      0.15s WALL (       1 calls)

     Called by init_run:
     wfcinit      :      0.42s CPU      3.52s WALL (       1 calls)
                                        3.52s GPU  (       1 calls)
     potinit      :      0.14s CPU      0.23s WALL (       1 calls)
     hinit0       :      0.18s CPU      0.20s WALL (       1 calls)

     Called by electrons:
     c_bands      :      0.86s CPU      0.92s WALL (      11 calls)
     sum_band     :      0.20s CPU      0.24s WALL (      11 calls)
     v_of_rho     :      0.08s CPU      0.17s WALL (      11 calls)
     mix_rho      :      0.07s CPU      0.08s WALL (      11 calls)

     Called by c_bands:
     init_us_2    :      0.03s CPU      0.03s WALL (      23 calls)
     init_us_2:gp :      0.03s CPU      0.03s WALL (      23 calls)
     regterg      :      0.78s CPU      0.84s WALL (      11 calls)

     Called by *egterg:
     rdiaghg      :      0.29s CPU      0.94s WALL (      68 calls)
                                        0.93s GPU  (      68 calls)
     h_psi        :      0.79s CPU      3.26s WALL (      70 calls)
                                        3.26s GPU  (      70 calls)
     g_psi        :      0.00s CPU      0.00s WALL (      58 calls)
                                        0.00s GPU  (      58 calls)

     Called by h_psi:
     h_psi:calbec :      0.38s CPU      2.79s WALL (      70 calls)
                                        2.79s GPU  (      70 calls)
     vloc_psi     :      0.37s CPU      0.43s WALL (      70 calls)
                                        0.43s GPU  (      70 calls)
     add_vuspsi   :      0.02s CPU      0.03s WALL (      70 calls)
                                        0.03s GPU  (      70 calls)

     General routines
     calbec       :      0.39s CPU      2.80s WALL (      75 calls)
     fft          :      0.20s CPU      0.32s WALL (      95 calls)
                                        0.11s GPU  (      61 calls)
     ffts         :      0.02s CPU      0.02s WALL (      11 calls)
     fftw         :      0.40s CPU      0.53s WALL (    1215 calls)
                                        0.49s GPU  (    1215 calls)
 
     Parallel routines
 
     PWSCF        :      2.21s CPU      5.61s WALL

 
   This run was terminated on:  11: 5: 4  10May2023            

=------------------------------------------------------------------------------=
   JOB DONE.
=------------------------------------------------------------------------------=
