10.785787758445425 0.0 0.0 0.0 10.785787758445425 0.0 0.0 0.0 10.785787758445425
10.78561577585271 0.0 0.0 0.0 10.78561577585271 0.0 0.0 0.0 10.78561577585271
10.784846352191764 0.0 0.0 0.0 10.784846352191764 0.0 0.0 0.0 10.784846352191764
10.783131818036697 0.0 0.0 0.0 10.783131818036697 0.0 0.0 0.0 10.783131818036697
10.78039332598347 0.0 0.0 0.0 10.78039332598347 0.0 0.0 0.0 10.78039332598347
10.777008179381632 0.0 0.0 0.0 10.777008179381632 0.0 0.0 0.0 10.777008179381632
10.77368865075363 0.0 0.0 0.0 10.77368865075363 0.0 0.0 0.0 10.77368865075363
10.770757538196559 0.0 0.0 0.0 10.770757538196559 0.0 0.0 0.0 10.770757538196559
10.768098422724583 0.0 0.0 0.0 10.768098422724583 0.0 0.0 0.0 10.768098422724583
10.765308600482143 0.0 0.0 0.0 10.765308600482143 0.0 0.0 0.0 10.765308600482143
10.761865773564594 0.0 0.0 0.0 10.761865773564594 0.0 0.0 0.0 10.761865773564594
10.757327020648546 0.0 0.0 0.0 10.757327020648546 0.0 0.0 0.0 10.757327020648546
10.751563751672368 0.0 0.0 0.0 10.751563751672368 0.0 0.0 0.0 10.751563751672368
10.74476170783619 0.0 0.0 0.0 10.74476170783619 0.0 0.0 0.0 10.74476170783619
10.737160077238194 0.0 0.0 0.0 10.737160077238194 0.0 0.0 0.0 10.737160077238194
10.728946717787338 0.0 0.0 0.0 10.728946717787338 0.0 0.0 0.0 10.728946717787338
10.720307899860964 0.0 0.0 0.0 10.720307899860964 0.0 0.0 0.0 10.720307899860964
10.711321941685915 0.0 0.0 0.0 10.711321941685915 0.0 0.0 0.0 10.711321941685915
10.701767647189092 0.0 0.0 0.0 10.701767647189092 0.0 0.0 0.0 10.701767647189092
10.691403711563487 0.0 0.0 0.0 10.691403711563487 0.0 0.0 0.0 10.691403711563487
10.680284640061561 0.0 0.0 0.0 10.680284640061561 0.0 0.0 0.0 10.680284640061561
10.668651208313118 0.0 0.0 0.0 10.668651208313118 0.0 0.0 0.0 10.668651208313118
10.656952158590839 0.0 0.0 0.0 10.656952158590839 0.0 0.0 0.0 10.656952158590839
10.645833087088914 0.0 0.0 0.0 10.645833087088914 0.0 0.0 0.0 10.645833087088914
10.636033783544622 0.0 0.0 0.0 10.636033783544622 0.0 0.0 0.0 10.636033783544622
10.628441148959165 0.0 0.0 0.0 10.628441148959165 0.0 0.0 0.0 10.628441148959165
10.623401265226807 0.0 0.0 0.0 10.623401265226807 0.0 0.0 0.0 10.623401265226807
10.620208739128811 0.0 0.0 0.0 10.620208739128811 0.0 0.0 0.0 10.620208739128811
10.618033820802477 0.0 0.0 0.0 10.618033820802477 0.0 0.0 0.0 10.618033820802477
10.616841584552057 0.0 0.0 0.0 10.616841584552057 0.0 0.0 0.0 10.616841584552057
10.61659657550459 0.0 0.0 0.0 10.61659657550459 0.0 0.0 0.0 10.61659657550459
10.617480301442539 0.0 0.0 0.0 10.617480301442539 0.0 0.0 0.0 10.617480301442539
10.619990718118968 0.0 0.0 0.0 10.619990718118968 0.0 0.0 0.0 10.619990718118968
10.624360134328343 0.0 0.0 0.0 10.624360134328343 0.0 0.0 0.0 10.624360134328343
10.630078423241812 0.0 0.0 0.0 10.630078423241812 0.0 0.0 0.0 10.630078423241812
10.636684671510897 0.0 0.0 0.0 10.636684671510897 0.0 0.0 0.0 10.636684671510897
10.64412437388314 0.0 0.0 0.0 10.64412437388314 0.0 0.0 0.0 10.64412437388314
10.652235072955575 0.0 0.0 0.0 10.652235072955575 0.0 0.0 0.0 10.652235072955575
10.660718841959898 0.0 0.0 0.0 10.660718841959898 0.0 0.0 0.0 10.660718841959898
10.669185148116346 0.0 0.0 0.0 10.669185148116346 0.0 0.0 0.0 10.669185148116346
10.677216999784736 0.0 0.0 0.0 10.677216999784736 0.0 0.0 0.0 10.677216999784736
10.68415821722671 0.0 0.0 0.0 10.68415821722671 0.0 0.0 0.0 10.68415821722671
10.689881797912262 0.0 0.0 0.0 10.689881797912262 0.0 0.0 0.0 10.689881797912262
10.694799441709492 0.0 0.0 0.0 10.694799441709492 0.0 0.0 0.0 10.694799441709492
10.69948318918063 0.0 0.0 0.0 10.69948318918063 0.0 0.0 0.0 10.69948318918063
10.704046284248262 0.0 0.0 0.0 10.704046284248262 0.0 0.0 0.0 10.704046284248262
10.708339498939633 0.0 0.0 0.0 10.708339498939633 0.0 0.0 0.0 10.708339498939633
10.712336374394328 0.0 0.0 0.0 10.712336374394328 0.0 0.0 0.0 10.712336374394328
10.71618560940789 0.0 0.0 0.0 10.71618560940789 0.0 0.0 0.0 10.71618560940789
10.720376692898052 0.0 0.0 0.0 10.720376692898052 0.0 0.0 0.0 10.720376692898052
10.725379534225826 0.0 0.0 0.0 10.725379534225826 0.0 0.0 0.0 10.725379534225826
10.731346007250012 0.0 0.0 0.0 10.731346007250012 0.0 0.0 0.0 10.731346007250012
10.73815440121269 0.0 0.0 0.0 10.73815440121269 0.0 0.0 0.0 10.73815440121269
10.74584810864494 0.0 0.0 0.0 10.74584810864494 0.0 0.0 0.0 10.74584810864494
10.754491159988978 0.0 0.0 0.0 10.754491159988978 0.0 0.0 0.0 10.754491159988978
10.764120597649388 0.0 0.0 0.0 10.764120597649388 0.0 0.0 0.0 10.764120597649388
10.77474912187917 0.0 0.0 0.0 10.77474912187917 0.0 0.0 0.0 10.77474912187917
10.786173528630314 0.0 0.0 0.0 10.786173528630314 0.0 0.0 0.0 10.786173528630314
10.798343546068029 0.0 0.0 0.0 10.798343546068029 0.0 0.0 0.0 10.798343546068029
10.811261290901149 0.0 0.0 0.0 10.811261290901149 0.0 0.0 0.0 10.811261290901149
10.824882841421376 0.0 0.0 0.0 10.824882841421376 0.0 0.0 0.0 10.824882841421376
10.838818194026159 0.0 0.0 0.0 10.838818194026159 0.0 0.0 0.0 10.838818194026159
10.852558809418266 0.0 0.0 0.0 10.852558809418266 0.0 0.0 0.0 10.852558809418266
10.865733205197435 0.0 0.0 0.0 10.865733205197435 0.0 0.0 0.0 10.865733205197435
10.87817045712537 0.0 0.0 0.0 10.87817045712537 0.0 0.0 0.0 10.87817045712537
10.889732979127894 0.0 0.0 0.0 10.889732979127894 0.0 0.0 0.0 10.889732979127894
10.900535073482015 0.0 0.0 0.0 10.900535073482015 0.0 0.0 0.0 10.900535073482015
10.910752427020906 0.0 0.0 0.0 10.910752427020906 0.0 0.0 0.0 10.910752427020906
10.920280262657311 0.0 0.0 0.0 10.920280262657311 0.0 0.0 0.0 10.920280262657311
10.929243466212402 0.0 0.0 0.0 10.929243466212402 0.0 0.0 0.0 10.929243466212402
10.937871700594606 0.0 0.0 0.0 10.937871700594606 0.0 0.0 0.0 10.937871700594606
10.945999333337708 0.0 0.0 0.0 10.945999333337708 0.0 0.0 0.0 10.945999333337708
10.953243240142863 0.0 0.0 0.0 10.953243240142863 0.0 0.0 0.0 10.953243240142863
10.959467951644724 0.0 0.0 0.0 10.959467951644724 0.0 0.0 0.0 10.959467951644724
10.964654417463796 0.0 0.0 0.0 10.964654417463796 0.0 0.0 0.0 10.964654417463796
10.968742311398328 0.0 0.0 0.0 10.968742311398328 0.0 0.0 0.0 10.968742311398328
10.971487682755265 0.0 0.0 0.0 10.971487682755265 0.0 0.0 0.0 10.971487682755265
10.972629647170892 0.0 0.0 0.0 10.972629647170892 0.0 0.0 0.0 10.972629647170892
10.972028501862203 0.0 0.0 0.0 10.972028501862203 0.0 0.0 0.0 10.972028501862203
10.969369386390227 0.0 0.0 0.0 10.969369386390227 0.0 0.0 0.0 10.969369386390227
10.964783536702635 0.0 0.0 0.0 10.964783536702635 0.0 0.0 0.0 10.964783536702635
10.958619151402525 0.0 0.0 0.0 10.958619151402525 0.0 0.0 0.0 10.958619151402525
10.951139760739656 0.0 0.0 0.0 10.951139760739656 0.0 0.0 0.0 10.951139760739656
10.942860783314964 0.0 0.0 0.0 10.942860783314964 0.0 0.0 0.0 10.942860783314964
10.934684466268694 0.0 0.0 0.0 10.934684466268694 0.0 0.0 0.0 10.934684466268694
10.927604604398132 0.0 0.0 0.0 10.927604604398132 0.0 0.0 0.0 10.927604604398132
10.921864090041913 0.0 0.0 0.0 10.921864090041913 0.0 0.0 0.0 10.921864090041913
10.916952267193976 0.0 0.0 0.0 10.916952267193976 0.0 0.0 0.0 10.916952267193976
10.912271694786089 0.0 0.0 0.0 10.912271694786089 0.0 0.0 0.0 10.912271694786089
10.90737945149486 0.0 0.0 0.0 10.90737945149486 0.0 0.0 0.0 10.90737945149486
10.902151709853534 0.0 0.0 0.0 10.902151709853534 0.0 0.0 0.0 10.902151709853534
10.896513326698527 0.0 0.0 0.0 10.896513326698527 0.0 0.0 0.0 10.896513326698527
10.890036726845489 0.0 0.0 0.0 10.890036726845489 0.0 0.0 0.0 10.890036726845489
10.88248589725949 0.0 0.0 0.0 10.88248589725949 0.0 0.0 0.0 10.88248589725949
10.874228086923136 0.0 0.0 0.0 10.874228086923136 0.0 0.0 0.0 10.874228086923136
10.865997793801613 0.0 0.0 0.0 10.865997793801613 0.0 0.0 0.0 10.865997793801613
10.858192959155605 0.0 0.0 0.0 10.858192959155605 0.0 0.0 0.0 10.858192959155605
10.850514597862396 0.0 0.0 0.0 10.850514597862396 0.0 0.0 0.0 10.850514597862396
10.84248486290284 0.0 0.0 0.0 10.84248486290284 0.0 0.0 0.0 10.84248486290284
10.833592569093666 0.0 0.0 0.0 10.833592569093666 0.0 0.0 0.0 10.833592569093666
10.823515447514989 0.0 0.0 0.0 10.823515447514989 0.0 0.0 0.0 10.823515447514989
