3.7268671731144396 3.8091195905603445 4.9919214335147455 5.472201776610562 7.391575851376959 6.397137005836049 10.144960964565149 2.467054805564739 7.834407939375453 2.666904666940974 0.8733974995793076 9.87137945807218 0.9070610217521916 10.371236005949575 10.083093685982705 7.8302877684517265 8.374441546653056 6.363679492209352 2.5812655121389176 3.6174992852438033 2.4487297521631404 0.41827069211496193 7.871877766048292 5.545027415555586 5.608232131820075 5.93276569968394 3.5360881592430573 9.020154302387908 7.584760095918475 3.933199292933501 10.053324911769396 0.5456788885903743 0.7218830674637697 4.127990619851025 9.411592111717411 7.324434322580635 8.488598324288443 1.006702286222262 8.108528735256343 6.05848484179638 8.159707298170167 8.822127239142851 1.747405474745743 7.521339663898816 9.963468513953787 6.764619580554044 2.384144455065569 1.6123458404344897 3.38849543955649 3.228186276102716 7.220944689038353 4.899983378661756 0.3187620928343202 3.732119851752803 4.410729260150913 0.6681773944781424 8.447073041418427 4.333201017743208 3.672140086028088 0.4427285444360127 1.028287883263239 5.220105559332417 9.506970832865342 2.465674224731658 5.577773067190225 7.658276025280039 1.0551995022993361 2.8389703390514542 5.9314821909406845 7.262976903933014 7.919270517458901 0.23153419149544455 9.34026569727081 6.527936253982716 7.925094842848462 10.741630743362348 3.2347548208476087 2.2381480319672518 4.827707814892414 6.284576524788912 9.257646563041119 9.16835102618895 1.4789472174380365 2.675522511359972 5.845336104113981 1.9153725475080137 6.500863926709018 1.9183925680803784 5.910590120052576 2.5843933905888665 9.111326566310048 2.3603617930581966 10.307319427693027 3.7198779826469672 8.66117092842357 4.236312286309093 6.347112522212379 1.4638039714251794 9.59031261487485 10.430676482286367 9.99696917073152 4.5687734081754146 2.563339532884381 1.8708919587921848 0.9852126826923354 7.627105098658132 3.2964495268259166 5.1752366822572835 8.285717656552084 5.677886749164116 0.589169341989978 3.1976301393830395 8.527664447549531 0.7185383946798757 7.385179879236201 10.074314054747331 3.970712262757374 5.9195423238920855 5.3747629700007655 1.235738489272851 10.051038324764605 5.254037647620486 2.17738090373617 7.394843945067768 5.8913159173282335 4.982850586009892 4.727011700379568 9.847693868154634 1.8165747316406538 0.630673053284476 9.75017956103053 1.81812788507787 1.9944755149284525 7.9631039589092225 7.63342557028458 9.424718415419438 4.629529750618738 9.481289872212484 3.438983712053773 6.456577482172841 1.246157560247509 5.22293143572513 5.323886409144178 6.798411453601252 0.19604571403383156 7.516928276705611 2.5618942373247493 7.924350623493129 1.1132011545491522 5.6971501661007 3.2895250510849947 4.582805718049152 9.554147868520783 8.623064740272982 9.293390663672607 1.2176183658386626 0.9862955757832834 0.418124005401447 7.032667977926929 6.681094440152641 0.006957911682973144 0.4837188522332087 2.4650810064049433 0.8728236956705583 4.46418362428177 9.386094509456445 4.933322248623111 4.524594821516821 9.25882221390679 9.876880209828986 7.1647938779678855 5.925043075648893 8.191277298939136 3.2866560315412485 0.3437818846975861 1.6015924100393197 4.158061396121571 5.481110837299038 2.7098860311583794 4.002778409763232 6.18017009928716 3.7019196460291557 9.213176760113047 10.75773392448571 8.90198521170638 8.709653044397783 7.611400991681835 4.936773700705814 7.363964234715338 0.9224900911406478 5.326496569781723 5.875579452988662
3.7419831085058908 3.85043247513209 4.951115350673635 5.540969891839244 7.523171930357006 6.452742707066729 10.181082011616166 2.450837043978563 7.83456344342165 2.7211677177845357 0.8521866023122088 9.974138401724879 0.8886516906887892 10.281140169168753 10.14668668290697 7.826366375432002 8.38041267222178 6.323185890367186 2.624172675112292 3.726009611541853 2.5454268943327913 0.42256748335897815 7.900560626354093 5.501354325094536 5.5125821511172 5.918186017983916 3.560202340219669 9.088380491748753 7.482024806172128 3.8589638972107894 10.0635511565067 0.5391373401028167 0.7504620671222539 4.010857724182123 9.362378274918514 7.330184907279674 8.54724457704267 1.0160729554647132 8.142384917664486 6.069939631950164 8.270528818697393 8.72920870079708 1.6020198680347306 7.468057433742399 10.022501102863803 6.788520497400575 2.4054835296411023 1.656746082481407 3.3085092104743707 3.1572193779864848 7.152901740771983 4.881192203598782 0.2590111700492149 3.7122255945803135 4.483602049253523 0.7536416666529754 8.502581342114864 4.299513159191269 3.6185201647197047 0.5439563532314676 1.1013407981038719 5.216905280237973 9.477320582241777 2.508842085621099 5.557924879838884 7.541561405254835 1.1544923126472741 2.8474241360566674 5.952926486397938 7.242023283927854 7.950487241780515 0.3111919791727903 9.27537071245471 6.462287977028358 7.905673008231847 10.686646965493486 3.230248782404783 2.374237600738457 4.88010285640542 6.284454744116099 9.221874058206481 9.18352040850755 1.3966833148940467 2.7209304342374665 5.820899763685725 1.7485208871181381 6.494828179824106 1.9157087172596308 5.920957921238311 2.5296151816053913 9.044472249925255 2.386047850013016 10.2760709297541 3.626124023841681 8.578781717571262 4.160098289672597 6.346601462216562 1.4389629287353893 9.652867264609554 10.342175968844302 9.82519983347613 4.415383029471255 2.567904117609668 1.7426211552887465 1.076626638115083 7.5676949522797266 3.385939146129217 5.172619541862322 8.343288582721295 5.701502997047036 0.7202332217872716 3.2672865869790613 8.435559525683715 0.577272041801499 7.3080096812445206 10.184490266201335 4.026000728731421 5.934990007362695 5.388914280631272 1.3559029016455475 9.99931202894572 5.393045171473424 2.15652994630287 7.393787683509878 6.014156427157454 4.964101232067762 4.7397712095458004 9.852228586610417 1.8816261714079363 0.7789328570857723 9.807371210598646 1.7997957045165416 2.0453302476538284 7.9694052118513605 7.5793649885492 9.328274157835267 4.600151413327388 9.512416975976402 3.573134293534917 6.502086899241255 1.1173142950679098 5.196617536963594 5.203725257759881 6.820489062560202 0.2618186658356694 7.54844262811983 2.4946050727969733 7.917936253368992 1.103390065101284 5.558496517475004 3.198539072023776 4.568441702946381 9.582437193593236 8.637725107786299 9.31040239249468 1.234834364561601 0.883399095805949 0.48227449517094356 7.036352376698119 6.687178851570663 0.01826651887798415 0.5865552212997754 2.6070666884917895 0.8685451457594446 4.356040571472513 9.39427134076771 4.955386454520872 4.5025955186347995 9.343525018542325 9.892814858774951 7.152330103135863 5.9579849401968135 8.20827424443917 3.3440154576084775 0.2372285404283028 1.7125292872741176 4.148083113698297 5.59171621406463 2.8094911253729933 3.9064529634718688 6.142009116564412 3.7431155981623556 9.247392825132147 10.728721652635087 9.022825519063119 8.69982868342366 7.5658721832136075 4.835364122167183 7.378375038566183 0.8710172088952701 5.19751274307299 5.8323109451765776
3.757041429788579 3.9058183852170645 4.869563040095273 5.604722876538776 7.687416910149585 6.484572211643285 10.273224026090139 2.468532696706821 7.84028132234555 2.7783166233271768 0.8078346020723832 9.995902486989879 0.8900658200539397 10.230925858696843 10.250586633596889 7.806675741112122 8.350674175963027 6.263180885725493 2.676691016150474 3.8131226308199766 2.65128191814471 0.43741611229073446 7.897203741392419 5.473277169198263 5.394612499905376 5.889183983924187 3.602688708796011 9.144967324955598 7.399558576163234 3.8087116286619302 10.056642741645422 0.5281188270819376 0.7583159800462947 3.909884272291841 9.303558490564576 7.336596643159139 8.538114805564119 1.0144140200100755 8.201994284151711 6.088768350517848 8.390481043848967 8.65626279735238 1.450389276828157 7.428580597696983 10.074092623043269 6.8180720153921115 2.404891318382537 1.7044694720394429 3.2500026633866357 3.0682780023522045 7.105358752521795 4.880531228835452 0.25216264952986606 3.753180454794495 4.547969706719267 0.8302045303760993 8.497887328670442 4.2960033413930105 3.5430916478537995 0.6820595669438524 1.09602079538784 5.21315746002975 9.469882391008078 2.5538731858917143 5.557377401052654 7.395794664786319 1.2565100939548057 2.8464013583485634 6.002101325231634 7.187787333191597 7.918126343315671 0.34431592615543904 9.20344276187718 6.422882890508749 7.87388690357898 10.657455747079673 3.2088584745530246 2.5068189012571014 4.931468058156854 6.2547902752634865 9.18685566818751 9.143123116229372 1.3197416481177062 2.7781117112464853 5.770529104357372 1.5889314130684125 6.497416963648746 1.8913385047838696 5.919683529408185 2.485820805409384 8.983000502438381 2.380355792931301 10.246358973826828 3.5353481281729255 8.499364852620694 4.093841396521176 6.386106564447775 1.4246458485854754 9.693754231586876 10.245528540657709 9.6798525646389 4.258892685095119 2.5777831902545234 1.6730747843082125 1.2644153863309624 7.516013347074201 3.4958108814457907 5.176111512809972 8.333979233809833 5.736923523123944 0.8141696208196607 3.325022054612482 8.481408083444295 0.3993348198211453 7.229039370488731 10.278098776641329 4.074676724553331 5.949126159949668 5.402776628593985 1.4442095598683513 9.977557463344802 5.549666235910838 2.1585977822375337 7.374171047850176 6.1665918017952635 4.961191094703494 4.759417404300338 9.818923158350414 1.885104863592303 0.9372840343531057 9.853132690979566 1.8017487861362125 2.084646090800555 7.990471092646173 7.517232034711999 9.251392188759025 4.590839470969229 9.539282877284432 3.7746746535744125 6.410124417274106 0.9951350286708975 5.149915121020498 5.066688461720634 6.843265416470832 0.33025680045072187 7.603047057136389 2.4143172740943526 7.93391535837528 1.0726683675814392 5.436705755217981 3.152572361440935 4.536386781737013 9.606310697363305 8.69321168095499 9.399694610948014 1.2821888131193744 0.77066786457346 0.5438442115480684 7.035472948159593 6.687553804837886 0.008833867647080273 0.7410699322445048 2.7288249634169692 0.8684076916094682 4.258450506394679 9.437872967034773 4.95969200106054 4.4805212776326595 9.436050328001253 9.92307241957353 7.103913583110602 5.9959323931181805 8.243968906154441 3.406307441568951 0.14030006619566265 1.7853773893735856 4.143106574657988 5.711654628120757 2.8857876172267676 3.791445089652071 6.089286023142752 3.825535988971349 9.276132626290954 10.695267418390458 9.06044648409347 8.655777479266531 7.512767108322191 4.717820251919934 7.404174490401973 0.7787780690303081 5.09742527382438 5.768749604709261
3.7924274604035064 3.96750238860115 4.762596613204086 5.634801013437803 7.845051891576238 6.48321782488093 10.390819916232886 2.5063017622026336 7.8606335170533015 2.8275420421937643 0.7565962873861812 9.985492774324705 0.9185157947658203 10.20570589231265 10.359581183356035 7.812594664803949 8.31265161973358 6.195847361930252 2.738257710740421 3.8612454076662166 2.7496878304675394 0.46785097512870355 7.858929782226052 5.4636619283537415 5.258491279251958 5.860243950357495 3.67756554027778 9.194000115748993 7.333532467524031 3.775950834985546 10.035041265028584 0.5307780974792203 0.7501738540753585 3.858441793393527 9.272123905770668 7.344240117419342 8.479466668958608 1.0109671320341216 8.276129152265892 6.112860379458642 8.507233233390053 8.624165514824844 1.2971137095234522 7.422428606231926 10.116550958441122 6.858201233853156 2.3787696621907135 1.7435784993174437 3.245571713383593 2.9657925752328134 7.084398990000112 4.918596181215623 0.2867763123875042 3.840099686171047 4.586896263360996 0.8872403992407867 8.437455587395538 4.309920739482906 3.4565976030625714 0.8384618241487158 1.0098704875282272 5.20454327076632 9.4678161820044 2.593504949215096 5.569864993629585 7.2392339797753 1.33051985189573 2.8093401156849187 6.046511769382261 7.124533806626845 7.855921288448819 0.3538398441034198 9.119111265272728 6.399497589445693 7.8303544829082545 10.631057310006925 3.237333400674613 2.5989072982559325 4.984092923878378 6.2062638672664745 9.15386529912226 9.041170788491959 1.238237809796972 2.8398132462026906 5.711965104727673 1.431913640380729 6.49145613758991 1.8747229484884063 5.926916054388417 2.422991285776482 8.927279350229854 2.336909544473095 10.223746071844225 3.4488013987581305 8.422542516091195 4.030346480836668 6.4721543316356245 1.4241390023399245 9.730903032100858 10.134634270499971 9.554124369075964 4.090020332317684 2.593149105865101 1.6284793502917199 1.5164210444386828 7.483655228694738 3.60720560516509 5.196175560475523 8.233913191198278 5.781678051931281 0.8442135466604567 3.3735890543273253 8.581205517661786 0.20659294418858326 7.1365354323403185 10.325096727801952 4.089729187758596 5.9767988221786545 5.410102112613554 1.498650443202558 10.023179820028743 5.683346672882604 2.199349131870401 7.338179997337606 6.339543376537409 4.963820636060469 4.775331491881188 9.743756525227958 1.841866745838848 1.1109645049486847 9.89867778005769 1.838534758107075 2.0731110076766455 7.99542266477876 7.455101495640577 9.191724874935387 4.610554454569768 9.56222250107131 3.9881520860326902 6.25407627374765 0.881609447805408 5.084559363027026 4.942718047092571 6.8649299081076105 0.4065693586936192 7.695263407491891 2.3164647265460974 7.978202003265356 1.0814510731627185 5.355507116218834 3.172505212184577 4.482095005221498 9.634253821615795 8.751428036541313 9.516426540240108 1.341400031900129 0.6542309387243771 0.5986676170923976 7.030030439373571 6.682932209282788 10.782420131336707 0.9240130353666555 2.7961307792078234 0.884998586135817 4.1577491832667715 9.491614553926805 4.948292926242496 4.4593318139536215 9.499540155813063 9.969544522365828 6.992203212955897 6.0306929150052015 8.283946922833968 3.4764601318713955 0.08823728935381249 1.8015054834439368 4.201949240588904 5.8158066641353665 2.9433313116558426 3.6747619260050897 6.020470506041703 3.9314112464061814 9.306338783029299 10.689437185669776 9.024618681151273 8.61248738306591 7.460072519408692 4.591996684710928 7.440080593018052 0.6594413480188523 5.043799124754847 5.6985293224824
3.8657304623710864 4.0266170523680636 4.680199958542464 5.612606957700099 7.982870477497434 6.4458774598319915 10.491823757433544 2.5575189518696666 7.907688014442025 2.8681452051645544 0.7130917553731612 9.990298299122141 0.9606225226097328 10.183881822076827 10.424467859932799 7.875497759970639 8.290952557967389 6.141719442532694 2.7841120391885132 3.86845790188256 2.803505966781957 0.5066946569112121 7.795226951265365 5.46434420828785 5.12108570439521 5.843792492575815 3.7692567224968605 9.230183546100372 7.287836958984627 3.766281333938889 10.013314438873117 0.5692489672245638 0.733061355970213 3.8723172826932624 9.284743116723174 7.3553006604186315 8.405267848796116 1.007076315490728 8.338580335681584 6.137288700875715 8.601913003455381 8.643428298153744 1.155636603758776 7.453542384798318 10.154958026783213 6.914608961645754 2.3256003502477838 1.7541101392507483 3.329546039516647 2.8618710162488314 7.099460366006393 4.988907301825327 0.34301163288547465 3.9417861372859 4.591358737143034 0.9236101982036338 8.358901377101063 4.334796156377953 3.366393423904858 0.9941398434995481 0.8891786999597752 5.1813481030874575 9.466942544325622 2.620821421479841 5.586895719617629 7.087494129414551 1.3465034675953134 2.75048799240477 6.059594406175353 7.067377915468264 7.805209595485225 0.35321311908985276 9.022218978448826 6.385722865073005 7.777223694410973 10.596490596235517 3.3183883324242536 2.64125026683258 5.033117694855184 6.1638839312109175 9.128740044902868 8.907450911100405 1.1585473099567916 2.900906820482218 5.664945767297749 1.2839556255179572 6.446599746184833 1.8732658266828437 5.943899225000898 2.3392052066251754 8.883701704603265 2.276883752807665 10.213775852769778 3.3770336721176037 8.353521960831397 3.96497476333009 6.579575897860839 1.432218374930208 9.772954789276989 10.021615341734122 9.449834060117286 3.9223814292991297 2.615862440549889 1.5818502342948584 1.7763824318622303 7.4780785600082575 3.706687319632852 5.227509747309318 8.1022633335827 5.816237807234602 0.8304158539791718 3.4104097698548483 8.662725202207255 0.022255043982160275 7.049687290020326 10.318593617078315 4.066515288067529 6.038119862669993 5.3981957148396145 1.5476763874514907 10.11065061021342 5.772189120104633 2.235411579682606 7.283061244741216 6.49314948456643 4.9566308042073315 4.777180376903011 9.642900124192323 1.797296394914638 1.2963315170561862 9.957148589644742 1.9206672161371927 1.9974882989781513 7.969341083873324 7.397732288549702 9.144695027025323 4.651793622128498 9.581333297907632 4.138948750824811 6.122810632638919 0.7582238720323909 5.005282719287496 4.8369576578955895 6.8843052760064145 0.48862779573619636 7.8188575734359205 2.203652540944259 8.048749461112518 1.1486724696701907 5.325891616802243 3.2253858792009944 4.418786200780691 9.663889549998014 8.776824885169463 9.607022975203451 1.4048685170621877 0.5563523826886897 0.6355020304880603 7.016192607956495 6.677321724147531 0.0076972008347521974 1.096204295352629 2.789415992704897 0.9238258060701534 4.0466039015944375 9.516726400705014 4.9175087568273375 4.429825323546497 9.517233079191334 10.022262165333682 6.832688752761605 6.046442326317653 8.31354826237865 3.546555357168694 0.0763715404392647 1.7572903552819132 4.319768288081533 5.882569567369377 2.988842488842265 3.5879089459671665 5.943996248540833 4.0318239823445134 9.34372264860963 10.718718695765519 8.94388864054223 8.589073555004136 7.415692423830791 4.479587619139237 7.482185889865457 0.5608478067056248 5.035413918633619 5.651136083447165
3.982395501502356 4.072933147217341 4.662791135899436 5.56357658756487 8.10703673396437 6.381961034690753 10.564884327386864 2.629611549785477 7.990375620422564 2.913251628058622 0.6701725644381186 10.020957947565293 1.0017627852037865 10.15416176866245 10.447091627986222 7.991464098248682 8.301249198365007 6.123625371622796 2.7852423249039266 3.847844554382777 2.7926784605477004 0.541142678608836 7.712382694435415 5.4591042702739445 4.999755850644162 5.859858096432431 3.8528450861780095 9.244787041478048 7.253325254026475 3.787040674234705 10.006064122261387 0.645921062932056 0.7108202061882922 3.9183585189004706 9.3271880460176 7.377174632023929 8.343495070428183 0.9880501199963411 8.357472850036842 6.155395991735613 8.663938631633917 8.700505020386558 1.027335547912641 7.503028533542748 10.200772329038275 6.991454732275681 2.2563498714925943 1.7293433945126528 3.4839588732059554 2.761155711623009 7.136405492288364 5.04352128086063 0.43095854698283825 4.056778411956448 4.5614764820050695 0.9455057248065962 8.303264498894551 4.370874315344526 3.2752836638285894 1.1389034473888715 0.7698986873268444 5.1440923211906195 9.470058843451662 2.633588265803669 5.603138984591381 6.940048403260031 1.331790339783444 2.698314976929035 6.053165292145999 7.009333788845275 7.795893730817443 0.3439665369588697 8.91081833500719 6.376216889331142 7.716025323200046 10.55605795768795 3.4141130831953834 2.669378709967395 5.070927212660798 6.163769727090993 9.110667174685643 8.773314487646461 1.0831863151014685 2.963688026338128 5.641774558914464 1.1418886786545601 6.3360078718138695 1.8878300767986391 5.968716656052365 2.239764055904526 8.859196465827953 2.232058495056268 10.222369453429756 3.325946379279862 8.287325303797246 3.888754077431709 6.665439457841208 1.4433754824727612 9.82913797898048 9.916367083184394 9.376643736552781 3.7608309903424493 2.644979563449275 1.5345920797030475 1.995977353878734 7.496249795397917 3.7913299234900992 5.256345638387058 8.022889854099759 5.826244607920939 0.7917555376154483 3.4330482865665566 8.725540010387261 10.617659336441296 7.020261675139167 10.289704200534533 4.03426524186972 6.111468906396453 5.358145257649498 1.6345057225340944 10.212767139141928 5.819207221579803 2.2283404272343814 7.198664268540652 6.5952272495525355 4.922323046875305 4.75962255439118 9.520764666935653 1.7725591973119734 1.50317710086015 10.047243070514805 2.0418550776983615 1.8923456432258001 7.929054443881883 7.346761914941713 9.100170368718926 4.702795390261301 9.597690951320079 4.205889097126372 6.032128572179846 0.6109324281768757 4.914962350288787 4.741915929952456 6.90189779430502 0.5729725722666397 7.951567613968611 2.0716535053143517 8.130487503762705 1.2487750457776672 5.327624770485489 3.279874669313006 4.353426339102107 9.693757202231087 8.764962306307439 9.649873224924645 1.4724949585734506 0.48843017620184465 0.6532375737850382 6.993933444156939 6.669814923162036 0.029262810309474942 1.2432787716061824 2.7279194183977964 0.9679639321516097 3.955528420111158 9.483314563512302 4.86436429688659 4.37708187205585 9.4917314069004 10.063634899955645 6.65547072527528 6.027408242597277 8.318751059648323 3.6092847013239844 0.07262410271921693 1.6744022068141655 4.44313415518728 5.914325095771026 3.0344067540112305 3.5456895760574536 5.871130846988064 4.095737296524913 9.395029312506807 10.761931144938677 8.850682629366242 8.56523201371896 7.379933546117851 4.391264414819916 7.531943246488028 0.526557075738861 5.0600639884159815 5.649350795664569
4.102275880170159 4.07686074864303 4.707186176844022 5.532450727491751 8.21375249044806 6.300453122960723 10.616478985961834 2.721358337359812 8.105379956310129 2.9687437761584166 0.6209264622220745 10.07318341468163 1.0296220317129532 10.118551417589954 10.452955939620695 8.126280912292591 8.324926183635187 6.14358821620575 2.737454228204038 3.8231619282950837 2.7475491744697935 0.556017142839014 7.61575890188798 5.429799022027369 4.919072311538394 5.945675555691405 3.9004200496096386 9.234010031985779 7.206918964969181 3.838525208311059 10.022073035722453 0.7291330815547836 0.6974864485120599 3.9510240652022284 9.384626199323314 7.419408426227996 8.312224004715949 0.9467292712340547 8.314497253021258 6.159791843936484 8.68523065318234 8.773187047327093 0.91878663234946 7.541517413395637 10.26402853544108 7.078001006574263 2.208390699631479 1.6817727983826416 3.652323547360084 2.6736093492596718 7.166970127452187 5.046018684910224 0.5581611068805139 4.173813172811162 4.516621171989493 0.9494797939465921 8.28206845018249 4.422491454247858 3.1867709133837177 1.2572679181656472 0.6738866835225841 5.09684894796448 9.479585491091056 2.628769257095235 5.622260196084432 6.799662760282044 1.335765013675038 2.679513330640285 6.05766804921599 6.9470144999584 7.835930003154782 0.32914372986257895 8.78987549104711 6.368575156299438 7.652454085432447 10.517748903166327 3.486527252713636 2.7005651182638575 5.094317131131553 6.238418223709683 9.087304713628466 8.670880099899536 1.0154298516533153 3.024012798936783 5.646005405870694 1.0119003912513285 6.190044361667799 1.9241807930245984 6.0008476152719155 2.1345155165532614 8.860852551878276 2.2310154457980618 10.244054116682582 3.2994421492932995 8.219160882150739 3.797272754467323 6.688693767179282 1.4540493413716622 9.903821029091782 9.829773466995151 9.352725307228432 3.6144217106867327 2.6802782625344883 1.5238951648944978 2.0523014984593604 7.52854589226013 3.850333171072285 5.273677499789299 8.03947730283347 5.817102355333312 0.7318308131929323 3.445242477803948 8.781224219060555 10.437129390992737 7.074391820876261 10.263769966913461 4.012854264368904 6.137619592693233 5.294546134705809 1.771226735249849 10.30906255400123 5.84079369667632 2.1735162694689896 7.090358427456677 6.638660757085181 4.865721005339862 4.7270097639614095 9.380650708211187 1.7665186333094698 1.7239410157616912 10.165276905268271 2.1793340613403966 1.8112186675214463 7.895012911715515 7.310260186507211 9.052063978051851 4.751950853187904 9.607232154225187 4.213191004829667 5.973622504051461 0.46597280783374523 4.827323578988576 4.663057148130536 6.922428942457381 0.6515646780070876 8.070667131477402 1.9232111610460305 8.20874272522546 1.3583251177097162 5.351086452744964 3.3194704364950507 4.2861827454385235 9.722672228118011 8.733141246612242 9.650122208743836 1.5268794766507567 0.44955262896113163 0.6594219291400822 6.975694059146707 6.646945723657611 0.034168753555865135 1.3563104379320252 2.64198857306971 0.969592115919819 4.005075661163059 9.40700315065093 4.800486320559549 4.3094646866128015 9.43715870518439 10.093416401967744 6.486891805062014 5.961512878008015 8.29638668239934 3.655060064277375 0.04568151724806047 1.5673346775343366 4.5277934871203245 5.9284376538502 3.0779997527657095 3.537379063145193 5.81592802327038 4.0938185345793165 9.462444552447707 0.02195354536364067 8.77584814842383 8.522170875453185 7.3517712088785645 4.333242217465015 7.590343770360852 0.5515600678441972 5.103248519023028 5.684273547958171
4.190923299627357 4.035705912744407 4.773492033353333 5.53766650993084 8.305471157551363 6.207252193807906 10.660486522520502 2.8253635759046447 8.242753036406445 3.03287299063554 0.5640171809421857 10.144965754469801 1.0406092000225837 10.082603068323643 10.457285410804886 8.241363608684017 8.30566503118705 6.180853067081786 2.6554656464971327 3.814485323667388 2.7071545119229374 0.5431369903786378 7.510169191688467 5.36393419083973 4.863535566372656 6.098069024643208 3.908374017127847 9.21018247848726 7.13825493389454 3.914825700893227 10.064992879748692 0.7850223548684409 0.7102528331140343 3.9516186086437064 9.446579064935598 7.487615225403484 8.304695663008612 0.894130128730372 8.229785044330457 6.147032888411849 8.668779580072272 8.848995895201377 0.8263379037092091 7.55017178518533 10.341187415300666 7.1654187844058725 2.2123351398606497 1.6210851755588878 3.790671178750435 2.6110685839246863 7.165224910770184 5.000442665440673 0.7073404202757059 4.223224801484409 4.4881638954089675 0.9133623933905759 8.292266208809535 4.491965972819951 3.1020320247883 1.345967715760733 0.6090217142397862 5.038668083943732 9.496512296882676 2.614235186640916 5.655207786945179 6.665494073270479 1.377149058833812 2.698462510589613 6.084756368325997 6.886057646137668 7.906522298336562 0.31470645620555 8.662327896306891 6.3605416150915195 7.591057580800324 10.493593634466146 3.5162861304648776 2.7291053157857825 5.118382460483925 6.377516328971717 9.045756093909151 8.618706328277195 0.9631200619897825 3.0772915947230626 5.685818279868734 0.90322064809261 6.109830691874919 1.9898543721516615 6.039993099997251 2.0283490595931757 8.880231092062147 2.279792394322375 10.256270762869525 3.2905525939793545 8.143769774630417 3.688413606682797 6.651115111956986 1.4621087942951065 9.987281864110603 9.766405939274806 9.36731706021201 3.493247480090675 2.7391328910538433 1.5671990755952903 1.9416983151983847 7.556041848043646 3.8774834845082995 5.28921744579726 8.108237045511908 5.809261932014006 0.6762280100508713 3.458145581273693 8.837632745998578 10.261526892548165 7.165957322282782 10.24207490443418 4.008919038746912 6.118059550634101 5.22089853073248 1.9304428735709693 10.38483052484544 5.85867816759925 2.084841682881017 6.983780729281726 6.637974787760386 4.814173184575101 4.68422399487676 9.223570530107239 1.7633130288507732 1.9408366545953288 10.271780653724527 2.3195795726684727 1.7858454536206805 7.873671487845063 7.288517772309921 8.999743417705975 4.791866945713497 9.595883305930078 4.188112131909888 5.938521793229902 0.35827309337180124 4.7568512129568195 4.615495791025528 6.960095833455231 0.7259188999533411 8.183923158732814 1.7696893173133856 8.280062940518759 1.4730411131963759 5.397668203449361 3.3358005463973184 4.209427461077979 9.74817104676264 8.69613730421929 9.626569194156401 1.5410799885651638 0.42804498362848475 0.6627462528403107 6.976079637641915 6.590938889591081 10.767224729724031 1.440265698007644 2.540326248413811 0.9251369855313323 4.205431510031308 9.330211800492922 4.748266919198877 4.246791218977983 9.387006004991832 10.144534924168273 6.331611360343924 5.850309288992072 8.276551673561306 3.6795061901987083 10.756130849459689 1.445489515413669 4.571174123755849 5.94420875321007 3.108440625523527 3.5419743871934766 5.778651439090451 4.037752356676664 9.541867956876024 0.03451489253115087 8.733210251665763 8.459029847773431 7.328380345958786 4.302928407267063 7.655811375119961 0.5922204095559535 5.14188425343227 5.723548243525037