-6813.907108621165
-6814.227170550875
-6815.050597094859
-6815.375915719704
-6815.2980570115615
-6814.663029572226
-6814.871236659532
-6815.207855355755
-6816.026787259409
-6816.814307974211
-6817.0276935239235
-6816.519311946807
-6815.930667943952
-6815.828116265521
-6815.818961947819
-6815.532713291871
-6815.182577884941
-6815.718577383998
-6816.345823864174
-6816.023679175143
-6816.134040792858
-6815.408256585485
-6814.8828302056845
-6815.38179378679
-6814.260998790898
-6813.5022813259175
-6814.92601331131
-6817.083970883523
-6815.441007526821
-6815.5056876257
-6815.825372949857
-6814.060460687907
-6814.275812940388
-6816.685014988571
-6817.151909001392
-6816.2382610733475
-6815.522910935061
-6814.944208339189
-6814.585399031537
-6813.738286610582
-6815.39226295856
-6816.248838138256
-6815.848078944896
-6814.395214587993
-6814.425764672603
-6816.008875365979
-6816.110285662914
-6815.880073137647
-6814.926388964464
-6814.414554670905
-6814.66629140081
-6815.4689496724
-6815.0412943390575
-6814.580979766741
-6813.62242461979
-6812.761012752669
-6813.568083214096
-6813.896730471472
-6814.930560061441
-6815.551583570241
-6816.062521384758
-6816.064392847684
-6815.87812180931
-6815.114816368952
-6814.176911396989
-6813.077760880053
-6812.604930567783
-6814.074519313324
-6814.0500878444345
-6813.132978084135
-6814.1778801222545
-6815.2735990115725
-6815.218880047928
-6815.643915333176
-6815.94280939132
-6816.172486396552
-6816.001818637801
-6815.559561675876
-6816.251779960967
-6815.654366137263
-6815.3875756616335
-6816.319735494121
-6816.800764460291
-6816.421770428373
-6815.026353112404
-6814.924149195458
-6815.736583564873
-6816.489755213765
-6817.001598623138
-6816.519075615937
-6815.219329171819
-6815.062829292191
-6815.178828292301
-6814.926113721316
-6814.052423533569
-6813.414669377513
-6814.109968943655
-6813.622802449854
-6813.441671641894
-6813.892945367977
-6813.758314869391
