An instance of this daemon is already running

     Program PWSCF v.7.1 starts on 11May2023 at 12: 3:32 

     This program is part of the open-source Quantum ESPRESSO suite
     for quantum simulation of materials; please cite
         "P. Giannozzi et al., J. Phys.:Condens. Matter 21 395502 (2009);
         "P. Giannozzi et al., J. Phys.:Condens. Matter 29 465901 (2017);
         "P. Giannozzi et al., J. Chem. Phys. 152 154105 (2020);
          URL http://www.quantum-espresso.org", 
     in publications or presentations arising from this work. More details at
     http://www.quantum-espresso.org/quote

     Parallel version (MPI & OpenMP), running on       4 processor cores
     Number of MPI processes:                 4
     Threads/MPI process:                     1

     MPI processes distributed on     1 nodes
     701391 MiB available memory on the printing compute node when the environment starts
 
     Reading input from pw-si-2.in
Warning: card &CELL ignored
Warning: card / ignored

     Current dimensions of program PWSCF are:
     Max number of different atomic species (ntypx) = 10
     Max number of k-points (npk) =  40000
     Max angular momentum in pseudopotentials (lmaxx) =  4

     IMPORTANT: XC functional enforced from input :
     Exchange-correlation= PBE
                           (   1   4   3   4   0   0   0)
     Any further DFT definition will be discarded
     Please, verify this is what you really want


     gamma-point specific algorithms are used
 
     K-points division:     npool     =       2
     R & G space division:  proc/nbgrp/npool/nimage =       2
     Subspace diagonalization in iterative solution of the eigenvalue problem:
     a serial algorithm will be used

     Message from routine divide_et_impera:
     suboptimal parallelization: some nodes have no k-points
 
     Parallelization info
     --------------------
     sticks:   dense  smooth     PW     G-vecs:    dense   smooth      PW
     Min        1991    1991    524                94089    94089   12765
     Max        1994    1994    525                94094    94094   12768
     Sum        3985    3985   1049               188183   188183   25533
 
     Using Slab Decomposition
 


     bravais-lattice index     =            0
     lattice parameter (alat)  =      20.3804  a.u.
     unit-cell volume          =    8465.2252 (a.u.)^3
     number of atoms/cell      =           64
     number of atomic types    =            1
     number of electrons       =       256.00
     number of Kohn-Sham states=          154
     kinetic-energy cutoff     =      30.0000  Ry
     charge density cutoff     =     120.0000  Ry
     scf convergence threshold =      1.0E-06
     mixing beta               =       0.5000
     number of iterations used =            8  plain     mixing
     Exchange-correlation= PBE
                           (   1   4   3   4   0   0   0)

     GPU acceleration is ACTIVE.
     GPU-aware MPI enabled

     Message from routine print_cuda_info:
     High GPU oversubscription detected. Are you sure this is what you want?

     celldm(1)=  20.380406  celldm(2)=   0.000000  celldm(3)=   0.000000
     celldm(4)=   0.000000  celldm(5)=   0.000000  celldm(6)=   0.000000

     crystal axes: (cart. coord. in units of alat)
               a(1) = (   1.000000   0.000000   0.000000 )  
               a(2) = (   0.000000   1.000000   0.000000 )  
               a(3) = (   0.000000   0.000000   1.000000 )  

     reciprocal axes: (cart. coord. in units 2 pi/alat)
               b(1) = (  1.000000  0.000000  0.000000 )  
               b(2) = (  0.000000  1.000000  0.000000 )  
               b(3) = (  0.000000  0.000000  1.000000 )  


     PseudoPot. # 1 for Si read from file:
     /home/ppiaggi/pseudos/Si_ONCV_PBE_sr.upf
     MD5 check sum: 8553c464762ac42b85b1eed164b4d029
     Pseudo is Norm-conserving, Zval =  4.0
     Generated using ONCVPSP code by D. R. Hamann
     Using radial grid of 1510 points,  4 beta functions with: 
                l(1) =   0
                l(2) =   0
                l(3) =   1
                l(4) =   1

     atomic species   valence    mass     pseudopotential
        Si             4.00    28.08500     Si( 1.00)

     No symmetry found



   Cartesian axes

     site n.     atom                  positions (alat units)
         1           Si  tau(   1) = (   0.3483630   0.3621580   0.4515190  )
         2           Si  tau(   2) = (   0.5196850   0.7127980   0.6012670  )
         3           Si  tau(   3) = (   0.9525610   0.2288890   0.7269720  )
         4           Si  tau(   4) = (   0.2576130   0.0749046   0.9268470  )
         5           Si  tau(   5) = (   0.0825293   0.9486390   0.9504620  )
         6           Si  tau(   6) = (   0.7238560   0.7742970   0.5807390  )
         7           Si  tau(   7) = (   0.2481900   0.3535630   0.2458340  )
         8           Si  tau(   8) = (   0.0405584   0.7322500   0.5074970  )
         9           Si  tau(   9) = (   0.5002030   0.5460610   0.3340510  )
        10           Si  tau(  10) = (   0.8479460   0.6861070   0.3531540  )
        11           Si  tau(  11) = (   0.9324790   0.0489686   0.0703131  )
        12           Si  tau(  12) = (   0.3625350   0.8626510   0.6802690  )
        13           Si  tau(  13) = (   0.7916770   0.0940592   0.7605110  )
        14           Si  tau(  14) = (   0.5645670   0.7779880   0.8026320  )
        15           Si  tau(  15) = (   0.1344840   0.6887980   0.9340970  )
        16           Si  tau(  16) = (   0.6321900   0.2229880   0.1580430  )
        17           Si  tau(  17) = (   0.3013490   0.2844990   0.6588280  )
        18           Si  tau(  18) = (   0.4525360   0.0233812   0.3480050  )
        19           Si  tau(  19) = (   0.4217000   0.0769788   0.7879470  )
        20           Si  tau(  20) = (   0.3983370   0.3285250   0.0632424  )
        21           Si  tau(  21) = (   0.1016260   0.4833780   0.8780730  )
        22           Si  tau(  22) = (   0.2368020   0.5152950   0.6857580  )
        23           Si  tau(  23) = (   0.1165070   0.2639260   0.5565310  )
        24           Si  tau(  24) = (   0.6664710   0.7341900   0.0319259  )
        25           Si  tau(  25) = (   0.8533680   0.5955470   0.7300880  )
        26           Si  tau(  26) = (   0.9881880   0.2975340   0.2324390  )
        27           Si  tau(  27) = (   0.4572590   0.5799610   0.8518300  )
        28           Si  tau(  28) = (   0.8477750   0.1223700   0.2575940  )
        29           Si  tau(  29) = (   0.5350590   0.1473300   0.6024580  )
        30           Si  tau(  30) = (   0.1753700   0.5488890   0.2304920  )
        31           Si  tau(  31) = (   0.8329280   0.2207130   0.9500700  )
        32           Si  tau(  32) = (   0.3278070   0.7880840   0.3795920  )
        33           Si  tau(  33) = (   0.5921370   0.1320970   0.8988310  )
        34           Si  tau(  34) = (   0.9499930   0.8975420   0.3948960  )
        35           Si  tau(  35) = (   0.2390190   0.1551320   0.1172400  )
        36           Si  tau(  36) = (   0.6969050   0.3241410   0.4799430  )
        37           Si  tau(  37) = (   0.7727490   0.5319430   0.0754920  )
        38           Si  tau(  38) = (   0.3083050   0.7864190   0.0370274  )
        39           Si  tau(  39) = (   0.6702960   0.9530130   0.3778150  )
        40           Si  tau(  40) = (   0.5516190   0.5009600   0.1339110  )
        41           Si  tau(  41) = (   0.9251460   0.5145800   0.2001510  )
        42           Si  tau(  42) = (   0.6837530   0.5717830   0.4600150  )
        43           Si  tau(  43) = (   0.4413060   0.9104370   0.1747920  )
        44           Si  tau(  44) = (   0.0869075   0.9136090   0.1670630  )
        45           Si  tau(  45) = (   0.1932940   0.7408980   0.6970180  )
        46           Si  tau(  46) = (   0.8578140   0.4256750   0.8845080  )
        47           Si  tau(  47) = (   0.3499980   0.5943640   0.0922716  )
        48           Si  tau(  48) = (   0.4775140   0.4697970   0.6345260  )
        49           Si  tau(  49) = (   0.0306223   0.7049750   0.2238620  )
        50           Si  tau(  50) = (   0.7356540   0.0994607   0.5041060  )
        51           Si  tau(  51) = (   0.2923150   0.4206260   0.8907230  )
        52           Si  tau(  52) = (   0.8060580   0.8715650   0.1188880  )
        53           Si  tau(  53) = (   0.0714584   0.0504267   0.6523480  )
        54           Si  tau(  54) = (   0.6200880   0.0008191   0.0687140  )
        55           Si  tau(  55) = (   0.2530240   0.0805211   0.3948550  )
        56           Si  tau(  56) = (   0.8751050   0.4598760   0.4154460  )
        57           Si  tau(  57) = (   0.8749360   0.9200940   0.6586940  )
        58           Si  tau(  58) = (   0.5559590   0.7644030   0.3158420  )
        59           Si  tau(  59) = (   0.0130090   0.1655450   0.3841600  )
        60           Si  tau(  60) = (   0.5296000   0.2675780   0.3515530  )
        61           Si  tau(  61) = (   0.5646150   0.3547140   0.8601080  )
        62           Si  tau(  62) = (   0.9916940   0.8401090   0.8025870  )
        63           Si  tau(  63) = (   0.6966040   0.4374490   0.6865350  )
        64           Si  tau(  64) = (   0.0722104   0.4726470   0.5348940  )

     number of k points=     1  Fermi-Dirac smearing, width (Ry)=  0.0100
                       cart. coord. in units 2pi/alat
        k(    1) = (   0.0000000   0.0000000   0.0000000), wk =   2.0000000

     Dense  grid:    94092 G-vectors     FFT dimensions: (  72,  72,  72)

     Estimated max dynamical RAM per process >     150.27 MB

     Estimated total dynamical RAM >     578.10 MB

     Initial potential from superposition of free atoms

     starting charge     255.9608, renormalised to     256.0000
     Starting wfcs are  256 randomized atomic wfcs

     total cpu time spent up to now is        4.6 secs

     Self-consistent Calculation

     iteration #  1     ecut=    30.00 Ry     beta= 0.50
     Davidson diagonalization with overlap
     ethr =  1.00E-02,  avg # of iterations =  3.0

     Threshold (ethr) on eigenvalues was too large:
     Diagonalizing with lowered threshold

     Davidson diagonalization with overlap
     ethr =  5.36E-04,  avg # of iterations =  4.0

     total cpu time spent up to now is        4.8 secs

     total energy              =    -500.44789251 Ry
     estimated scf accuracy    <       1.75691584 Ry

     iteration #  2     ecut=    30.00 Ry     beta= 0.50
     Davidson diagonalization with overlap
     ethr =  6.86E-04,  avg # of iterations =  4.0

     total cpu time spent up to now is        4.9 secs

     total energy              =    -499.92766763 Ry
     estimated scf accuracy    <       6.42421819 Ry

     iteration #  3     ecut=    30.00 Ry     beta= 0.50
     Davidson diagonalization with overlap
     ethr =  6.86E-04,  avg # of iterations =  3.0

     total cpu time spent up to now is        5.0 secs

     total energy              =    -500.54437699 Ry
     estimated scf accuracy    <       3.36528187 Ry

     iteration #  4     ecut=    30.00 Ry     beta= 0.50
     Davidson diagonalization with overlap
     ethr =  6.86E-04,  avg # of iterations =  2.0

     total cpu time spent up to now is        5.0 secs

     total energy              =    -500.77652454 Ry
     estimated scf accuracy    <       0.91731274 Ry

     iteration #  5     ecut=    30.00 Ry     beta= 0.50
     Davidson diagonalization with overlap
     ethr =  3.58E-04,  avg # of iterations =  2.0

     total cpu time spent up to now is        5.1 secs

     total energy              =    -500.82699074 Ry
     estimated scf accuracy    <       0.52613947 Ry

     iteration #  6     ecut=    30.00 Ry     beta= 0.50
     Davidson diagonalization with overlap
     ethr =  2.06E-04,  avg # of iterations =  2.0

     total cpu time spent up to now is        5.2 secs

     total energy              =    -500.87810028 Ry
     estimated scf accuracy    <       0.16702189 Ry

     iteration #  7     ecut=    30.00 Ry     beta= 0.50
     Davidson diagonalization with overlap
     ethr =  6.52E-05,  avg # of iterations =  2.0

     total cpu time spent up to now is        5.3 secs

     total energy              =    -500.89227632 Ry
     estimated scf accuracy    <       0.01673734 Ry

     iteration #  8     ecut=    30.00 Ry     beta= 0.50
     Davidson diagonalization with overlap
     ethr =  6.54E-06,  avg # of iterations = 13.0

     total cpu time spent up to now is        5.4 secs

     total energy              =    -500.89330495 Ry
     estimated scf accuracy    <       0.03555598 Ry

     iteration #  9     ecut=    30.00 Ry     beta= 0.50
     Davidson diagonalization with overlap
     ethr =  6.54E-06,  avg # of iterations =  3.0

     total cpu time spent up to now is        5.5 secs

     total energy              =    -500.89630840 Ry
     estimated scf accuracy    <       0.00533626 Ry

     iteration # 10     ecut=    30.00 Ry     beta= 0.50
     Davidson diagonalization with overlap
     ethr =  2.08E-06,  avg # of iterations =  2.0

     total cpu time spent up to now is        5.6 secs

     total energy              =    -500.89670073 Ry
     estimated scf accuracy    <       0.00212504 Ry

     iteration # 11     ecut=    30.00 Ry     beta= 0.50
     Davidson diagonalization with overlap
     ethr =  8.30E-07,  avg # of iterations =  2.0

     total cpu time spent up to now is        5.7 secs

     total energy              =    -500.89681518 Ry
     estimated scf accuracy    <       0.00168145 Ry

     iteration # 12     ecut=    30.00 Ry     beta= 0.50
     Davidson diagonalization with overlap
     ethr =  6.57E-07,  avg # of iterations =  2.0

     total cpu time spent up to now is        5.8 secs

     total energy              =    -500.89696683 Ry
     estimated scf accuracy    <       0.00038806 Ry

     iteration # 13     ecut=    30.00 Ry     beta= 0.50
     Davidson diagonalization with overlap
     ethr =  1.52E-07,  avg # of iterations =  2.0

     total cpu time spent up to now is        5.9 secs

     total energy              =    -500.89700592 Ry
     estimated scf accuracy    <       0.00010754 Ry

     iteration # 14     ecut=    30.00 Ry     beta= 0.50
     Davidson diagonalization with overlap
     ethr =  4.20E-08,  avg # of iterations =  2.0

     total cpu time spent up to now is        5.9 secs

     total energy              =    -500.89701527 Ry
     estimated scf accuracy    <       0.00007426 Ry

     iteration # 15     ecut=    30.00 Ry     beta= 0.50
     Davidson diagonalization with overlap
     ethr =  2.90E-08,  avg # of iterations =  2.0

     total cpu time spent up to now is        6.0 secs

     total energy              =    -500.89701846 Ry
     estimated scf accuracy    <       0.00003019 Ry

     iteration # 16     ecut=    30.00 Ry     beta= 0.50
     Davidson diagonalization with overlap
     ethr =  1.18E-08,  avg # of iterations =  3.0

     total cpu time spent up to now is        6.1 secs

     total energy              =    -500.89702199 Ry
     estimated scf accuracy    <       0.00003095 Ry

     iteration # 17     ecut=    30.00 Ry     beta= 0.50
     Davidson diagonalization with overlap
     ethr =  1.18E-08,  avg # of iterations =  1.0

     total cpu time spent up to now is        6.2 secs

     total energy              =    -500.89702366 Ry
     estimated scf accuracy    <       0.00000186 Ry

     iteration # 18     ecut=    30.00 Ry     beta= 0.50
     Davidson diagonalization with overlap
     ethr =  7.28E-10,  avg # of iterations =  6.0

     total cpu time spent up to now is        6.3 secs

     total energy              =    -500.89702375 Ry
     estimated scf accuracy    <       0.00000676 Ry

     iteration # 19     ecut=    30.00 Ry     beta= 0.50
     Davidson diagonalization with overlap
     ethr =  7.28E-10,  avg # of iterations =  3.0

     total cpu time spent up to now is        6.4 secs

     End of self-consistent calculation

          k = 0.0000 0.0000 0.0000 ( 11792 PWs)   bands (ev):

    -5.9243  -5.2031  -5.0658  -4.9137  -4.8147  -4.7219  -4.4304  -4.2305
    -4.0972  -3.9999  -3.8772  -3.8405  -3.6270  -3.4640  -3.3951  -3.2613
    -3.1509  -3.0715  -2.9120  -2.8635  -2.7420  -2.4473  -2.3404  -2.2023
    -2.1055  -1.9237  -1.8068  -1.5108  -1.3468  -1.1389  -1.1085  -0.9492
    -0.8580  -0.7863  -0.7341  -0.6276  -0.4877  -0.4677  -0.3637  -0.3002
    -0.2457  -0.0877   0.0032   0.0291   0.2731   0.3597   0.4431   0.5169
     0.6566   0.6631   0.7374   0.8373   0.9746   1.1108   1.1982   1.2736
     1.3551   1.4551   1.5641   1.5831   1.6612   1.8028   1.9393   2.0786
     2.0928   2.2350   2.2943   2.3322   2.3978   2.5704   2.6168   2.7660
     2.8613   2.8966   2.9757   3.0415   3.0797   3.1587   3.2651   3.3588
     3.5584   3.6309   3.6822   3.7579   3.8166   3.9596   3.9990   4.1418
     4.2892   4.3153   4.4064   4.4186   4.5421   4.6145   4.6610   4.6862
     4.7896   4.8071   4.8360   4.9473   5.0025   5.0281   5.0808   5.1343
     5.2048   5.3001   5.3887   5.4082   5.5138   5.5745   5.6544   5.7192
     5.7878   5.8734   5.9106   5.9604   5.9779   5.9888   6.0636   6.1419
     6.1696   6.2887   6.3323   6.4086   6.4356   6.5000   6.5177   6.6023
     6.7236   6.7706   6.8110   6.8742   6.8971   6.9207   6.9883   7.0850
     7.1429   7.2216   7.2529   7.3533   7.4149   7.4623   7.4900   7.5813
     7.6261   7.7454   7.8087   7.8188   7.8651   7.9396   8.0135   8.0345
     8.1499   8.1728

     the Fermi energy is     6.6503 ev

!    total energy              =    -500.89702389 Ry
     estimated scf accuracy    <       0.00000052 Ry
     smearing contrib. (-TS)   =      -0.15192243 Ry
     internal energy E=F+TS    =    -500.74510146 Ry

     The total energy is F=E-TS. E is the sum of the following terms:
     one-electron contribution =     154.02232008 Ry
     hartree contribution      =      36.55508531 Ry
     xc contribution           =    -150.94426112 Ry
     ewald contribution        =    -540.37824573 Ry

     convergence has been achieved in  19 iterations

     Forces acting on atoms (cartesian axes, Ry/au):

     atom    1 type  1   force =     0.02115501    0.00079572   -0.02294845
     atom    2 type  1   force =    -0.04401345   -0.03385036   -0.03568841
     atom    3 type  1   force =     0.01744013    0.02687264    0.01502593
     atom    4 type  1   force =    -0.00885724   -0.02085923   -0.02519713
     atom    5 type  1   force =     0.04398761    0.01915852    0.00708685
     atom    6 type  1   force =     0.02552947   -0.00379887   -0.00667956
     atom    7 type  1   force =    -0.00676056   -0.05280554    0.01656163
     atom    8 type  1   force =     0.00039841   -0.02902944    0.01552131
     atom    9 type  1   force =    -0.00454511    0.01648622    0.04133617
     atom   10 type  1   force =    -0.00818989    0.01336316    0.00710182
     atom   11 type  1   force =    -0.02704798    0.03117670   -0.01418319
     atom   12 type  1   force =     0.04770005    0.03913499    0.00977383
     atom   13 type  1   force =    -0.04687511   -0.00148192   -0.01099332
     atom   14 type  1   force =     0.00968599   -0.01176995    0.04993463
     atom   15 type  1   force =    -0.00971062    0.03466617   -0.01632352
     atom   16 type  1   force =     0.00897512   -0.03055093   -0.00544695
     atom   17 type  1   force =     0.04571696   -0.00716942    0.03151464
     atom   18 type  1   force =     0.02515437    0.03386651    0.03994477
     atom   19 type  1   force =    -0.04213342   -0.03686555   -0.06042861
     atom   20 type  1   force =     0.03478985   -0.01110838    0.02301284
     atom   21 type  1   force =    -0.10520739    0.00677413   -0.00390919
     atom   22 type  1   force =     0.00834396    0.03220216    0.00757104
     atom   23 type  1   force =    -0.03519845   -0.04113752   -0.00781504
     atom   24 type  1   force =    -0.00147495   -0.02871804   -0.01812956
     atom   25 type  1   force =    -0.00326195    0.00542068   -0.02090420
     atom   26 type  1   force =     0.01366777    0.05513141   -0.06089643
     atom   27 type  1   force =    -0.00763128   -0.01273967   -0.00523235
     atom   28 type  1   force =    -0.07008667    0.00476796   -0.00611443
     atom   29 type  1   force =    -0.01098131    0.02106397   -0.00979273
     atom   30 type  1   force =     0.00290186    0.02575489   -0.00667106
     atom   31 type  1   force =    -0.00368126   -0.02543801    0.00846047
     atom   32 type  1   force =     0.01667757    0.01999660    0.00047083
     atom   33 type  1   force =     0.06096556    0.01289590   -0.00054197
     atom   34 type  1   force =    -0.01849007    0.01094594    0.00245816
     atom   35 type  1   force =    -0.00300818    0.00988798    0.06723585
     atom   36 type  1   force =     0.01595570   -0.01084404    0.02345078
     atom   37 type  1   force =    -0.09936097    0.01352600   -0.10621808
     atom   38 type  1   force =    -0.01276466    0.07303436   -0.02408696
     atom   39 type  1   force =     0.00283552   -0.06788745   -0.04299292
     atom   40 type  1   force =     0.00567106   -0.02448697   -0.02788206
     atom   41 type  1   force =     0.07672637   -0.02252443    0.06982172
     atom   42 type  1   force =    -0.01639388    0.03041899    0.01177706
     atom   43 type  1   force =     0.00438831   -0.03348090   -0.04245504
     atom   44 type  1   force =     0.03106535   -0.01360249    0.04261985
     atom   45 type  1   force =    -0.05219998   -0.03139229    0.02305272
     atom   46 type  1   force =     0.01565816    0.02339647    0.01103258
     atom   47 type  1   force =     0.00127574   -0.06739393   -0.01380613
     atom   48 type  1   force =    -0.00815659    0.03322275    0.00359664
     atom   49 type  1   force =    -0.00148992    0.03027507   -0.00417086
     atom   50 type  1   force =     0.03699453    0.03970388    0.06487159
     atom   51 type  1   force =     0.07616718   -0.00724668    0.01044823
     atom   52 type  1   force =    -0.01048803    0.02453509    0.02277579
     atom   53 type  1   force =    -0.01423615   -0.01003318   -0.00255409
     atom   54 type  1   force =     0.00214013    0.02061566    0.02889547
     atom   55 type  1   force =    -0.05270888    0.02841113   -0.01498738
     atom   56 type  1   force =     0.02054275   -0.02134772   -0.00474139
     atom   57 type  1   force =    -0.04410966    0.04399323   -0.09796447
     atom   58 type  1   force =     0.00396678   -0.00478246   -0.01546203
     atom   59 type  1   force =     0.05748672   -0.04857257    0.07931310
     atom   60 type  1   force =    -0.00121454   -0.01507655    0.01448804
     atom   61 type  1   force =     0.01264740    0.01733614   -0.02265814
     atom   62 type  1   force =     0.05760197   -0.09295857    0.02614843
     atom   63 type  1   force =    -0.00782841   -0.02378115   -0.01122725
     atom   64 type  1   force =    -0.02610679    0.04390318   -0.00619985

     Total force =     0.466125     Total SCF correction =     0.001398


     Computing stress (Cartesian axis) and pressure

          total   stress  (Ry/bohr**3)                   (kbar)     P=       -5.86
  -0.00006752   0.00001417   0.00010710           -9.93        2.08       15.75
   0.00001417   0.00002353   0.00001523            2.08        3.46        2.24
   0.00010710   0.00001523  -0.00007561           15.75        2.24      -11.12

 
     init_run     :      0.95s CPU      4.51s WALL (       1 calls)
     electrons    :      1.68s CPU      1.81s WALL (       1 calls)
     forces       :      0.03s CPU      0.03s WALL (       1 calls)
     stress       :      0.14s CPU      0.14s WALL (       1 calls)

     Called by init_run:
     wfcinit      :      0.44s CPU      3.84s WALL (       1 calls)
                                        3.84s GPU  (       1 calls)
     potinit      :      0.04s CPU      0.13s WALL (       1 calls)
     hinit0       :      0.45s CPU      0.48s WALL (       1 calls)

     Called by electrons:
     c_bands      :      1.07s CPU      1.12s WALL (      20 calls)
     sum_band     :      0.32s CPU      0.36s WALL (      20 calls)
     v_of_rho     :      0.13s CPU      0.23s WALL (      20 calls)
     mix_rho      :      0.14s CPU      0.16s WALL (      20 calls)

     Called by c_bands:
     init_us_2    :      0.05s CPU      0.05s WALL (      41 calls)
     init_us_2:gp :      0.05s CPU      0.05s WALL (      41 calls)
     regterg      :      0.92s CPU      0.96s WALL (      20 calls)

     Called by *egterg:
     rdiaghg      :      0.37s CPU      1.07s WALL (      82 calls)
                                        1.05s GPU  (      82 calls)
     h_psi        :      0.83s CPU      3.56s WALL (      84 calls)
                                        3.56s GPU  (      84 calls)
     g_psi        :      0.00s CPU      0.00s WALL (      63 calls)
                                        0.00s GPU  (      63 calls)

     Called by h_psi:
     h_psi:calbec :      0.42s CPU      3.08s WALL (      84 calls)
                                        3.08s GPU  (      84 calls)
     vloc_psi     :      0.36s CPU      0.43s WALL (      84 calls)
                                        0.42s GPU  (      84 calls)
     add_vuspsi   :      0.03s CPU      0.05s WALL (      84 calls)
                                        0.05s GPU  (      84 calls)

     General routines
     calbec       :      0.42s CPU      3.08s WALL (      89 calls)
     fft          :      0.55s CPU      0.67s WALL (     167 calls)
                                        0.12s GPU  (     106 calls)
     ffts         :      0.03s CPU      0.04s WALL (      20 calls)
     fftw         :      0.45s CPU      0.59s WALL (    2086 calls)
                                        0.52s GPU  (    2086 calls)
 
     Parallel routines
 
     PWSCF        :      2.84s CPU      6.57s WALL

 
   This run was terminated on:  12: 3:38  11May2023            

=------------------------------------------------------------------------------=
   JOB DONE.
=------------------------------------------------------------------------------=
