An instance of this daemon is already running
An instance of this daemon is already running

     Program PWSCF v.7.1 starts on 11May2023 at 12:12:24 

     This program is part of the open-source Quantum ESPRESSO suite
     for quantum simulation of materials; please cite
         "P. Giannozzi et al., J. Phys.:Condens. Matter 21 395502 (2009);
         "P. Giannozzi et al., J. Phys.:Condens. Matter 29 465901 (2017);
         "P. Giannozzi et al., J. Chem. Phys. 152 154105 (2020);
          URL http://www.quantum-espresso.org", 
     in publications or presentations arising from this work. More details at
     http://www.quantum-espresso.org/quote

     Parallel version (MPI & OpenMP), running on       4 processor cores
     Number of MPI processes:                 4
     Threads/MPI process:                     1

     MPI processes distributed on     1 nodes
     701368 MiB available memory on the printing compute node when the environment starts
 
     Reading input from pw-si-63.in
Warning: card &CELL ignored
Warning: card / ignored

     Current dimensions of program PWSCF are:
     Max number of different atomic species (ntypx) = 10
     Max number of k-points (npk) =  40000
     Max angular momentum in pseudopotentials (lmaxx) =  4

     IMPORTANT: XC functional enforced from input :
     Exchange-correlation= PBE
                           (   1   4   3   4   0   0   0)
     Any further DFT definition will be discarded
     Please, verify this is what you really want


     gamma-point specific algorithms are used
 
     K-points division:     npool     =       2
     R & G space division:  proc/nbgrp/npool/nimage =       2
     Subspace diagonalization in iterative solution of the eigenvalue problem:
     a serial algorithm will be used

     Message from routine divide_et_impera:
     suboptimal parallelization: some nodes have no k-points
 
     Parallelization info
     --------------------
     sticks:   dense  smooth     PW     G-vecs:    dense   smooth      PW
     Min        2007    2007    533                96009    96009   13000
     Max        2010    2010    536                96014    96014   13001
     Sum        4017    4017   1069               192023   192023   26001
 
     Using Slab Decomposition
 


     bravais-lattice index     =            0
     lattice parameter (alat)  =      20.5333  a.u.
     unit-cell volume          =    8657.1251 (a.u.)^3
     number of atoms/cell      =           64
     number of atomic types    =            1
     number of electrons       =       256.00
     number of Kohn-Sham states=          154
     kinetic-energy cutoff     =      30.0000  Ry
     charge density cutoff     =     120.0000  Ry
     scf convergence threshold =      1.0E-06
     mixing beta               =       0.5000
     number of iterations used =            8  plain     mixing
     Exchange-correlation= PBE
                           (   1   4   3   4   0   0   0)

     GPU acceleration is ACTIVE.
     GPU-aware MPI enabled

     Message from routine print_cuda_info:
     High GPU oversubscription detected. Are you sure this is what you want?

     celldm(1)=  20.533260  celldm(2)=   0.000000  celldm(3)=   0.000000
     celldm(4)=   0.000000  celldm(5)=   0.000000  celldm(6)=   0.000000

     crystal axes: (cart. coord. in units of alat)
               a(1) = (   1.000000   0.000000   0.000000 )  
               a(2) = (   0.000000   1.000000   0.000000 )  
               a(3) = (   0.000000   0.000000   1.000000 )  

     reciprocal axes: (cart. coord. in units 2 pi/alat)
               b(1) = (  1.000000  0.000000  0.000000 )  
               b(2) = (  0.000000  1.000000  0.000000 )  
               b(3) = (  0.000000  0.000000  1.000000 )  


     PseudoPot. # 1 for Si read from file:
     /home/ppiaggi/pseudos/Si_ONCV_PBE_sr.upf
     MD5 check sum: 8553c464762ac42b85b1eed164b4d029
     Pseudo is Norm-conserving, Zval =  4.0
     Generated using ONCVPSP code by D. R. Hamann
     Using radial grid of 1510 points,  4 beta functions with: 
                l(1) =   0
                l(2) =   0
                l(3) =   1
                l(4) =   1

     atomic species   valence    mass     pseudopotential
        Si             4.00    28.08500     Si( 1.00)

     No symmetry found



   Cartesian axes

     site n.     atom                  positions (alat units)
         1           Si  tau(   1) = (   0.2878650   0.2050000   0.7511560  )
         2           Si  tau(   2) = (   0.8461690   0.6691300   0.5939020  )
         3           Si  tau(   3) = (   0.0619056   0.3363210   0.7995440  )
         4           Si  tau(   4) = (   0.3501630   0.9465490   0.0858520  )
         5           Si  tau(   5) = (   0.9291380   0.0125017   0.1734000  )
         6           Si  tau(   6) = (   0.2165940   0.5098870   0.5113670  )
         7           Si  tau(   7) = (   0.1857000   0.1729590   0.1705560  )
         8           Si  tau(   8) = (   0.9733210   0.6418430   0.0565174  )
         9           Si  tau(   9) = (   0.4266530   0.4483720   0.6110060  )
        10           Si  tau(  10) = (   0.7384110   0.6236290   0.2555110  )
        11           Si  tau(  11) = (   0.9421460   0.1184450   0.9746510  )
        12           Si  tau(  12) = (   0.3642420   0.8812820   0.5479700  )
        13           Si  tau(  13) = (   0.9163700   0.9587700   0.6495010  )
        14           Si  tau(  14) = (   0.6527950   0.7561660   0.6782000  )
        15           Si  tau(  15) = (   0.0621264   0.9378510   0.8034690  )
        16           Si  tau(  16) = (   0.6309480   0.3585160   0.0188149  )
        17           Si  tau(  17) = (   0.6363550   0.1081610   0.5594570  )
        18           Si  tau(  18) = (   0.4235180   0.0945788   0.6205690  )
        19           Si  tau(  19) = (   0.5445340   0.0074208   0.9273790  )
        20           Si  tau(  20) = (   0.5907780   0.3291090   0.3036770  )
        21           Si  tau(  21) = (   0.1231360   0.5156540   0.8949910  )
        22           Si  tau(  22) = (   0.1499010   0.8333750   0.4117290  )
        23           Si  tau(  23) = (   0.1636090   0.6529560   0.6845240  )
        24           Si  tau(  24) = (   0.6728190   0.8056130   0.9326680  )
        25           Si  tau(  25) = (   0.6654560   0.3801220   0.8213960  )
        26           Si  tau(  26) = (   0.0121981   0.2820940   0.1057460  )
        27           Si  tau(  27) = (   0.3774320   0.7939310   0.8985690  )
        28           Si  tau(  28) = (   0.9845440   0.9980830   0.3956100  )
        29           Si  tau(  29) = (   0.4930370   0.8992990   0.7569080  )
        30           Si  tau(  30) = (   0.2993890   0.4517290   0.0563644  )
        31           Si  tau(  31) = (   0.8935690   0.4828350   0.7838530  )
        32           Si  tau(  32) = (   0.0085324   0.8331800   0.1230590  )
        33           Si  tau(  33) = (   0.7221790   0.1451290   0.9731930  )
        34           Si  tau(  34) = (   0.6703300   0.7429990   0.1233470  )
        35           Si  tau(  35) = (   0.4517480   0.5338360   0.4183610  )
        36           Si  tau(  36) = (   0.6454940   0.3621030   0.5957630  )
        37           Si  tau(  37) = (   0.7453810   0.6066600   0.8800140  )
        38           Si  tau(  38) = (   0.1698830   0.8738630   0.6331670  )
        39           Si  tau(  39) = (   0.5206330   0.7537540   0.4687070  )
        40           Si  tau(  40) = (   0.5431620   0.5772750   0.1966900  )
        41           Si  tau(  41) = (   0.0116755   0.7007400   0.8499330  )
        42           Si  tau(  42) = (   0.6410620   0.5809530   0.5490380  )
        43           Si  tau(  43) = (   0.3247570   0.6630330   0.1163860  )
        44           Si  tau(  44) = (   0.1518470   0.2560090   0.5595100  )
        45           Si  tau(  45) = (   0.1107240   0.6462130   0.2428960  )
        46           Si  tau(  46) = (   0.8463380   0.4604440   0.0412568  )
        47           Si  tau(  47) = (   0.3766350   0.3180870   0.2552870  )
        48           Si  tau(  48) = (   0.5020790   0.6256600   0.8719200  )
        49           Si  tau(  49) = (   0.1664310   0.9694490   0.2446380  )
        50           Si  tau(  50) = (   0.9195660   0.2515150   0.4104160  )
        51           Si  tau(  51) = (   0.2948990   0.2280820   0.0006454  )
        52           Si  tau(  52) = (   0.7048490   0.0496305   0.1997890  )
        53           Si  tau(  53) = (   0.8684580   0.9058630   0.8806400  )
        54           Si  tau(  54) = (   0.5031360   0.1312860   0.1230050  )
        55           Si  tau(  55) = (   0.1406010   0.1162730   0.9216860  )
        56           Si  tau(  56) = (   0.7698460   0.4404210   0.3852980  )
        57           Si  tau(  57) = (   0.7189090   0.8950230   0.4978080  )
        58           Si  tau(  58) = (   0.3034980   0.6828580   0.3470960  )
        59           Si  tau(  59) = (   0.9881200   0.1713500   0.6597140  )
        60           Si  tau(  60) = (   0.7524680   0.1420430   0.3632670  )
        61           Si  tau(  61) = (   0.7753390   0.1630970   0.7389540  )
        62           Si  tau(  62) = (   0.9335080   0.6898800   0.3849980  )
        63           Si  tau(  63) = (   0.4301580   0.3939930   0.8132950  )
        64           Si  tau(  64) = (   0.1051570   0.3360310   0.3132610  )

     number of k points=     1  Fermi-Dirac smearing, width (Ry)=  0.0100
                       cart. coord. in units 2pi/alat
        k(    1) = (   0.0000000   0.0000000   0.0000000), wk =   2.0000000

     Dense  grid:    96012 G-vectors     FFT dimensions: (  72,  72,  72)

     Estimated max dynamical RAM per process >     153.27 MB

     Estimated total dynamical RAM >     589.63 MB

     Initial potential from superposition of free atoms

     starting charge     255.9608, renormalised to     256.0000
     Starting wfcs are  256 randomized atomic wfcs

     total cpu time spent up to now is        4.0 secs

     Self-consistent Calculation

     iteration #  1     ecut=    30.00 Ry     beta= 0.50
     Davidson diagonalization with overlap
     ethr =  1.00E-02,  avg # of iterations =  3.0

     Threshold (ethr) on eigenvalues was too large:
     Diagonalizing with lowered threshold

     Davidson diagonalization with overlap
     ethr =  6.01E-04,  avg # of iterations =  4.0

     total cpu time spent up to now is        4.2 secs

     total energy              =    -500.28286235 Ry
     estimated scf accuracy    <       1.98145770 Ry

     iteration #  2     ecut=    30.00 Ry     beta= 0.50
     Davidson diagonalization with overlap
     ethr =  7.74E-04,  avg # of iterations =  5.0

     total cpu time spent up to now is        4.3 secs

     total energy              =    -499.31293055 Ry
     estimated scf accuracy    <      14.09717309 Ry

     iteration #  3     ecut=    30.00 Ry     beta= 0.50
     Davidson diagonalization with overlap
     ethr =  7.74E-04,  avg # of iterations =  4.0

     total cpu time spent up to now is        4.4 secs

     total energy              =    -500.56547068 Ry
     estimated scf accuracy    <       3.05377909 Ry

     iteration #  4     ecut=    30.00 Ry     beta= 0.50
     Davidson diagonalization with overlap
     ethr =  7.74E-04,  avg # of iterations =  2.0

     total cpu time spent up to now is        4.5 secs

     total energy              =    -500.79645785 Ry
     estimated scf accuracy    <       0.73879036 Ry

     iteration #  5     ecut=    30.00 Ry     beta= 0.50
     Davidson diagonalization with overlap
     ethr =  2.89E-04,  avg # of iterations =  2.0

     total cpu time spent up to now is        4.5 secs

     total energy              =    -500.82754610 Ry
     estimated scf accuracy    <       0.59683037 Ry

     iteration #  6     ecut=    30.00 Ry     beta= 0.50
     Davidson diagonalization with overlap
     ethr =  2.33E-04,  avg # of iterations =  2.0

     total cpu time spent up to now is        4.6 secs

     total energy              =    -500.88415386 Ry
     estimated scf accuracy    <       0.12873365 Ry

     iteration #  7     ecut=    30.00 Ry     beta= 0.50
     Davidson diagonalization with overlap
     ethr =  5.03E-05,  avg # of iterations =  2.0

     total cpu time spent up to now is        4.7 secs

     total energy              =    -500.89604983 Ry
     estimated scf accuracy    <       0.02433297 Ry

     iteration #  8     ecut=    30.00 Ry     beta= 0.50
     Davidson diagonalization with overlap
     ethr =  9.51E-06,  avg # of iterations = 14.0

     total cpu time spent up to now is        4.9 secs

     total energy              =    -500.89855611 Ry
     estimated scf accuracy    <       0.03444291 Ry

     iteration #  9     ecut=    30.00 Ry     beta= 0.50
     Davidson diagonalization with overlap
     ethr =  9.51E-06,  avg # of iterations =  2.0

     total cpu time spent up to now is        4.9 secs

     total energy              =    -500.90108557 Ry
     estimated scf accuracy    <       0.00271683 Ry

     iteration # 10     ecut=    30.00 Ry     beta= 0.50
     Davidson diagonalization with overlap
     ethr =  1.06E-06,  avg # of iterations = 11.0

     total cpu time spent up to now is        5.1 secs

     total energy              =    -500.90139734 Ry
     estimated scf accuracy    <       0.00258099 Ry

     iteration # 11     ecut=    30.00 Ry     beta= 0.50
     Davidson diagonalization with overlap
     ethr =  1.01E-06,  avg # of iterations =  2.0

     total cpu time spent up to now is        5.2 secs

     total energy              =    -500.90155505 Ry
     estimated scf accuracy    <       0.00152157 Ry

     iteration # 12     ecut=    30.00 Ry     beta= 0.50
     Davidson diagonalization with overlap
     ethr =  5.94E-07,  avg # of iterations =  2.0

     total cpu time spent up to now is        5.3 secs

     total energy              =    -500.90167375 Ry
     estimated scf accuracy    <       0.00039290 Ry

     iteration # 13     ecut=    30.00 Ry     beta= 0.50
     Davidson diagonalization with overlap
     ethr =  1.53E-07,  avg # of iterations =  2.0

     total cpu time spent up to now is        5.3 secs

     total energy              =    -500.90170586 Ry
     estimated scf accuracy    <       0.00041998 Ry

     iteration # 14     ecut=    30.00 Ry     beta= 0.50
     Davidson diagonalization with overlap
     ethr =  1.53E-07,  avg # of iterations =  1.0

     total cpu time spent up to now is        5.4 secs

     total energy              =    -500.90173632 Ry
     estimated scf accuracy    <       0.00002316 Ry

     iteration # 15     ecut=    30.00 Ry     beta= 0.50
     Davidson diagonalization with overlap
     ethr =  9.05E-09,  avg # of iterations =  4.0

     total cpu time spent up to now is        5.5 secs

     total energy              =    -500.90173861 Ry
     estimated scf accuracy    <       0.00004098 Ry

     iteration # 16     ecut=    30.00 Ry     beta= 0.50
     Davidson diagonalization with overlap
     ethr =  9.05E-09,  avg # of iterations =  3.0

     total cpu time spent up to now is        5.6 secs

     total energy              =    -500.90174251 Ry
     estimated scf accuracy    <       0.00002154 Ry

     iteration # 17     ecut=    30.00 Ry     beta= 0.50
     Davidson diagonalization with overlap
     ethr =  8.42E-09,  avg # of iterations =  2.0

     total cpu time spent up to now is        5.7 secs

     total energy              =    -500.90174376 Ry
     estimated scf accuracy    <       0.00000279 Ry

     iteration # 18     ecut=    30.00 Ry     beta= 0.50
     Davidson diagonalization with overlap
     ethr =  1.09E-09,  avg # of iterations =  4.0

     total cpu time spent up to now is        5.8 secs

     total energy              =    -500.90174404 Ry
     estimated scf accuracy    <       0.00000414 Ry

     iteration # 19     ecut=    30.00 Ry     beta= 0.50
     Davidson diagonalization with overlap
     ethr =  1.09E-09,  avg # of iterations =  2.0

     total cpu time spent up to now is        5.9 secs

     End of self-consistent calculation

          k = 0.0000 0.0000 0.0000 ( 11936 PWs)   bands (ev):

    -6.2086  -5.6549  -5.3012  -5.1660  -5.0690  -4.9931  -4.7946  -4.5883
    -4.4604  -4.2747  -4.1078  -3.9174  -3.8313  -3.7218  -3.7156  -3.4941
    -3.3497  -3.2506  -3.1369  -3.0412  -2.9548  -2.6832  -2.4581  -2.3964
    -2.2281  -2.1702  -1.9392  -1.8624  -1.6825  -1.5003  -1.4199  -1.3225
    -1.2142  -1.0890  -1.0179  -0.9349  -0.7884  -0.7154  -0.6684  -0.5716
    -0.3914  -0.3258  -0.3087  -0.1550  -0.0774   0.0265   0.2695   0.2887
     0.4059   0.5016   0.5910   0.6367   0.7558   0.8589   0.9155   1.0580
     1.0939   1.2421   1.3647   1.3669   1.4972   1.6324   1.7410   1.7953
     1.8669   2.0140   2.0445   2.1164   2.2634   2.3449   2.4320   2.5041
     2.5814   2.6381   2.7325   2.7829   2.8603   3.0781   3.2098   3.3064
     3.3565   3.3873   3.4097   3.5790   3.6430   3.7016   3.8372   3.8762
     3.9616   4.0425   4.1002   4.1172   4.2153   4.2542   4.3365   4.4367
     4.5304   4.5337   4.6368   4.6424   4.6885   4.8036   4.8725   4.9284
     5.0362   5.0749   5.1162   5.2189   5.2839   5.3860   5.4072   5.4472
     5.5243   5.5719   5.6230   5.6514   5.7007   5.8022   5.8652   5.8994
     5.9686   6.0142   6.0568   6.0906   6.1437   6.2375   6.3113   6.3318
     6.4090   6.4950   6.5230   6.5901   6.6093   6.7556   6.8020   6.8554
     6.9350   7.0142   7.0439   7.1086   7.2490   7.2675   7.3169   7.3699
     7.4054   7.4984   7.5187   7.5986   7.6638   7.7408   7.7953   7.8470
     7.8850   7.9752

     the Fermi energy is     6.3844 ev

!    total energy              =    -500.90174392 Ry
     estimated scf accuracy    <       0.00000064 Ry
     smearing contrib. (-TS)   =      -0.14830724 Ry
     internal energy E=F+TS    =    -500.75343668 Ry

     The total energy is F=E-TS. E is the sum of the following terms:
     one-electron contribution =     127.90611668 Ry
     hartree contribution      =      47.22390715 Ry
     xc contribution           =    -150.82430402 Ry
     ewald contribution        =    -525.05915649 Ry

     convergence has been achieved in  19 iterations

     Forces acting on atoms (cartesian axes, Ry/au):

     atom    1 type  1   force =    -0.00716932    0.02853159    0.00957003
     atom    2 type  1   force =     0.01413852    0.00449268    0.01497247
     atom    3 type  1   force =     0.00305861   -0.04277389   -0.03420993
     atom    4 type  1   force =     0.01051078    0.00826217   -0.01093081
     atom    5 type  1   force =    -0.03145331    0.01944353    0.02610862
     atom    6 type  1   force =     0.00728270   -0.02057006    0.00559465
     atom    7 type  1   force =     0.00868676   -0.01516311    0.05473858
     atom    8 type  1   force =     0.00568440   -0.06412067   -0.00776563
     atom    9 type  1   force =    -0.00924335   -0.01070378   -0.01487237
     atom   10 type  1   force =     0.11245885   -0.06131692    0.10535497
     atom   11 type  1   force =    -0.05516737   -0.01957427    0.01316633
     atom   12 type  1   force =     0.01800112    0.04896819    0.02952542
     atom   13 type  1   force =    -0.05251929    0.00186448   -0.02279146
     atom   14 type  1   force =    -0.01036116    0.02188022    0.02570525
     atom   15 type  1   force =     0.07308635    0.01761974    0.04606380
     atom   16 type  1   force =     0.01025771   -0.01897464    0.08782058
     atom   17 type  1   force =     0.03062655    0.00828262   -0.00279509
     atom   18 type  1   force =     0.01680868   -0.05149945   -0.00849104
     atom   19 type  1   force =     0.02552291    0.00536845    0.05308559
     atom   20 type  1   force =     0.01005687    0.00198410    0.00602453
     atom   21 type  1   force =     0.02622957    0.01518708    0.03669136
     atom   22 type  1   force =    -0.02448217   -0.02249696    0.00934832
     atom   23 type  1   force =    -0.00028671    0.00017826    0.00802260
     atom   24 type  1   force =    -0.01364527    0.05214766   -0.06853104
     atom   25 type  1   force =     0.00999991    0.00505649   -0.08849518
     atom   26 type  1   force =    -0.02852718    0.04768674   -0.00410001
     atom   27 type  1   force =    -0.05400189    0.01893881    0.04963494
     atom   28 type  1   force =    -0.02443852    0.01917334   -0.00315338
     atom   29 type  1   force =     0.01535936    0.01461285   -0.07925961
     atom   30 type  1   force =    -0.00352364   -0.01890181   -0.02269796
     atom   31 type  1   force =     0.00731667    0.01680525   -0.01490488
     atom   32 type  1   force =     0.04454878    0.00525015    0.01866837
     atom   33 type  1   force =    -0.01277581    0.01670497   -0.00851251
     atom   34 type  1   force =    -0.03115348    0.06155455   -0.01695739
     atom   35 type  1   force =     0.01661791    0.00554637   -0.06376781
     atom   36 type  1   force =    -0.02389811   -0.01391860   -0.00135996
     atom   37 type  1   force =    -0.02623938   -0.01890577    0.00040781
     atom   38 type  1   force =     0.00676585   -0.04461026   -0.01013605
     atom   39 type  1   force =     0.02405446    0.00996521   -0.00986143
     atom   40 type  1   force =    -0.06394353   -0.03356616   -0.00375915
     atom   41 type  1   force =    -0.02437872    0.01165420   -0.03241196
     atom   42 type  1   force =    -0.00085793   -0.02901596   -0.01441398
     atom   43 type  1   force =     0.02634217    0.01064627    0.02674736
     atom   44 type  1   force =     0.03128864    0.04840826    0.00539046
     atom   45 type  1   force =    -0.03800807    0.00660496   -0.00854286
     atom   46 type  1   force =    -0.00643718   -0.00021392    0.00176388
     atom   47 type  1   force =    -0.01811385    0.00589891   -0.02739516
     atom   48 type  1   force =     0.04570099   -0.03660676   -0.01546851
     atom   49 type  1   force =    -0.00349628   -0.00275588   -0.05582711
     atom   50 type  1   force =     0.04030201    0.01381542    0.04574504
     atom   51 type  1   force =     0.07824944    0.02797865   -0.00561660
     atom   52 type  1   force =    -0.01965954   -0.06978996   -0.11348232
     atom   53 type  1   force =    -0.02206732    0.01487682   -0.00532601
     atom   54 type  1   force =    -0.03563571   -0.00353145   -0.01014613
     atom   55 type  1   force =     0.00119010   -0.03616892   -0.06079336
     atom   56 type  1   force =    -0.00795858    0.00342336    0.02156319
     atom   57 type  1   force =     0.00489987   -0.00050135    0.01308990
     atom   58 type  1   force =     0.01151851   -0.01147646    0.00578151
     atom   59 type  1   force =    -0.05588620   -0.01302609   -0.00775864
     atom   60 type  1   force =    -0.03909885    0.02782928    0.10346690
     atom   61 type  1   force =    -0.00348314    0.00600233   -0.00403131
     atom   62 type  1   force =    -0.00648511    0.02553496   -0.01474832
     atom   63 type  1   force =     0.00431053   -0.00396957    0.04137428
     atom   64 type  1   force =     0.01352039    0.00597373    0.00788820

     Total force =     0.459449     Total SCF correction =     0.001439


     Computing stress (Cartesian axis) and pressure

          total   stress  (Ry/bohr**3)                   (kbar)     P=       -8.66
  -0.00000685   0.00003655  -0.00002854           -1.01        5.38       -4.20
   0.00003655  -0.00013788   0.00000817            5.38      -20.28        1.20
  -0.00002854   0.00000817  -0.00003188           -4.20        1.20       -4.69

 
     init_run     :      0.95s CPU      3.91s WALL (       1 calls)
     electrons    :      1.75s CPU      1.89s WALL (       1 calls)
     forces       :      0.03s CPU      0.03s WALL (       1 calls)
     stress       :      0.15s CPU      0.15s WALL (       1 calls)

     Called by init_run:
     wfcinit      :      0.44s CPU      3.24s WALL (       1 calls)
                                        3.24s GPU  (       1 calls)
     potinit      :      0.04s CPU      0.13s WALL (       1 calls)
     hinit0       :      0.45s CPU      0.48s WALL (       1 calls)

     Called by electrons:
     c_bands      :      1.14s CPU      1.20s WALL (      20 calls)
     sum_band     :      0.32s CPU      0.36s WALL (      20 calls)
     v_of_rho     :      0.12s CPU      0.23s WALL (      20 calls)
     mix_rho      :      0.14s CPU      0.16s WALL (      20 calls)

     Called by c_bands:
     init_us_2    :      0.05s CPU      0.05s WALL (      41 calls)
     init_us_2:gp :      0.05s CPU      0.05s WALL (      41 calls)
     regterg      :      0.99s CPU      1.04s WALL (      20 calls)

     Called by *egterg:
     rdiaghg      :      0.41s CPU      0.98s WALL (      92 calls)
                                        0.96s GPU  (      92 calls)
     h_psi        :      0.84s CPU      3.11s WALL (      94 calls)
                                        3.10s GPU  (      94 calls)
     g_psi        :      0.00s CPU      0.00s WALL (      73 calls)
                                        0.00s GPU  (      73 calls)

     Called by h_psi:
     h_psi:calbec :      0.42s CPU      2.61s WALL (      94 calls)
                                        2.61s GPU  (      94 calls)
     vloc_psi     :      0.37s CPU      0.43s WALL (      94 calls)
                                        0.43s GPU  (      94 calls)
     add_vuspsi   :      0.04s CPU      0.05s WALL (      94 calls)
                                        0.05s GPU  (      94 calls)

     General routines
     calbec       :      0.42s CPU      2.62s WALL (      99 calls)
     fft          :      0.55s CPU      0.66s WALL (     167 calls)
                                        0.12s GPU  (     106 calls)
     ffts         :      0.03s CPU      0.03s WALL (      20 calls)
     fftw         :      0.45s CPU      0.59s WALL (    2110 calls)
                                        0.52s GPU  (    2110 calls)
 
     Parallel routines
 
     PWSCF        :      2.92s CPU      6.06s WALL

 
   This run was terminated on:  12:12:30  11May2023            

=------------------------------------------------------------------------------=
   JOB DONE.
=------------------------------------------------------------------------------=
