An instance of this daemon is already running
An instance of this daemon is already running

     Program PWSCF v.7.1 starts on 11May2023 at 12: 5:42 

     This program is part of the open-source Quantum ESPRESSO suite
     for quantum simulation of materials; please cite
         "P. Giannozzi et al., J. Phys.:Condens. Matter 21 395502 (2009);
         "P. Giannozzi et al., J. Phys.:Condens. Matter 29 465901 (2017);
         "P. Giannozzi et al., J. Chem. Phys. 152 154105 (2020);
          URL http://www.quantum-espresso.org", 
     in publications or presentations arising from this work. More details at
     http://www.quantum-espresso.org/quote

     Parallel version (MPI & OpenMP), running on       4 processor cores
     Number of MPI processes:                 4
     Threads/MPI process:                     1

     MPI processes distributed on     1 nodes
     701408 MiB available memory on the printing compute node when the environment starts
 
     Reading input from pw-si-17.in
Warning: card &CELL ignored
Warning: card / ignored

     Current dimensions of program PWSCF are:
     Max number of different atomic species (ntypx) = 10
     Max number of k-points (npk) =  40000
     Max angular momentum in pseudopotentials (lmaxx) =  4

     IMPORTANT: XC functional enforced from input :
     Exchange-correlation= PBE
                           (   1   4   3   4   0   0   0)
     Any further DFT definition will be discarded
     Please, verify this is what you really want


     gamma-point specific algorithms are used
 
     K-points division:     npool     =       2
     R & G space division:  proc/nbgrp/npool/nimage =       2
     Subspace diagonalization in iterative solution of the eigenvalue problem:
     a serial algorithm will be used

     Message from routine divide_et_impera:
     suboptimal parallelization: some nodes have no k-points
 
     Parallelization info
     --------------------
     sticks:   dense  smooth     PW     G-vecs:    dense   smooth      PW
     Min        1954    1954    520                92054    92054   12584
     Max        1955    1955    521                92061    92061   12589
     Sum        3909    3909   1041               184115   184115   25173
 
     Using Slab Decomposition
 


     bravais-lattice index     =            0
     lattice parameter (alat)  =      20.2415  a.u.
     unit-cell volume          =    8293.2698 (a.u.)^3
     number of atoms/cell      =           64
     number of atomic types    =            1
     number of electrons       =       256.00
     number of Kohn-Sham states=          154
     kinetic-energy cutoff     =      30.0000  Ry
     charge density cutoff     =     120.0000  Ry
     scf convergence threshold =      1.0E-06
     mixing beta               =       0.5000
     number of iterations used =            8  plain     mixing
     Exchange-correlation= PBE
                           (   1   4   3   4   0   0   0)

     GPU acceleration is ACTIVE.
     GPU-aware MPI enabled

     Message from routine print_cuda_info:
     High GPU oversubscription detected. Are you sure this is what you want?

     celldm(1)=  20.241465  celldm(2)=   0.000000  celldm(3)=   0.000000
     celldm(4)=   0.000000  celldm(5)=   0.000000  celldm(6)=   0.000000

     crystal axes: (cart. coord. in units of alat)
               a(1) = (   1.000000   0.000000   0.000000 )  
               a(2) = (   0.000000   1.000000   0.000000 )  
               a(3) = (   0.000000   0.000000   1.000000 )  

     reciprocal axes: (cart. coord. in units 2 pi/alat)
               b(1) = (  1.000000  0.000000  0.000000 )  
               b(2) = (  0.000000  1.000000  0.000000 )  
               b(3) = (  0.000000  0.000000  1.000000 )  


     PseudoPot. # 1 for Si read from file:
     /home/ppiaggi/pseudos/Si_ONCV_PBE_sr.upf
     MD5 check sum: 8553c464762ac42b85b1eed164b4d029
     Pseudo is Norm-conserving, Zval =  4.0
     Generated using ONCVPSP code by D. R. Hamann
     Using radial grid of 1510 points,  4 beta functions with: 
                l(1) =   0
                l(2) =   0
                l(3) =   1
                l(4) =   1

     atomic species   valence    mass     pseudopotential
        Si             4.00    28.08500     Si( 1.00)

     No symmetry found



   Cartesian axes

     site n.     atom                  positions (alat units)
         1           Si  tau(   1) = (   0.3358010   0.3425070   0.4480430  )
         2           Si  tau(   2) = (   0.5639020   0.8327930   0.5724050  )
         3           Si  tau(   3) = (   0.0529409   0.2762310   0.8286390  )
         4           Si  tau(   4) = (   0.2840570   0.0087931   0.9477780  )
         5           Si  tau(   5) = (   0.0762589   0.9155420   0.9417350  )
         6           Si  tau(   6) = (   0.8164870   0.7379550   0.6065600  )
         7           Si  tau(   7) = (   0.1923110   0.3597580   0.2462060  )
         8           Si  tau(   8) = (   0.0916331   0.6416830   0.4199220  )
         9           Si  tau(   9) = (   0.3965060   0.5532890   0.3537680  )
        10           Si  tau(  10) = (   0.8218310   0.6543760   0.3738500  )
        11           Si  tau(  11) = (   0.9685520   0.0692843   0.0872564  )
        12           Si  tau(  12) = (   0.3515950   0.8707850   0.6528720  )
        13           Si  tau(  13) = (   0.8073620   0.0632476   0.7472410  )
        14           Si  tau(  14) = (   0.5909280   0.8700480   0.8210390  )
        15           Si  tau(  15) = (   0.0021403   0.6816620   0.9081490  )
        16           Si  tau(  16) = (   0.7315140   0.2557520   0.1056090  )
        17           Si  tau(  17) = (   0.4150620   0.1713030   0.5977890  )
        18           Si  tau(  18) = (   0.3749500   0.1966460   0.3165550  )
        19           Si  tau(  19) = (   0.4318530   0.0733412   0.8015580  )
        20           Si  tau(  20) = (   0.5118400   0.2880040   0.1522340  )
        21           Si  tau(  21) = (   0.1143240   0.4618500   0.9254260  )
        22           Si  tau(  22) = (   0.2779190   0.5617930   0.5354450  )
        23           Si  tau(  23) = (   0.1787520   0.2851650   0.6496010  )
        24           Si  tau(  24) = (   0.6383030   0.7710760   0.0624228  )
        25           Si  tau(  25) = (   0.7405870   0.5554410   0.7136080  )
        26           Si  tau(  26) = (   0.9861030   0.2492670   0.2490690  )
        27           Si  tau(  27) = (   0.4729320   0.6673240   0.8110380  )
        28           Si  tau(  28) = (   0.8041090   0.1139030   0.2878240  )
        29           Si  tau(  29) = (   0.5868180   0.0588080   0.6450320  )
        30           Si  tau(  30) = (   0.2026580   0.5462920   0.1394100  )
        31           Si  tau(  31) = (   0.8691470   0.2286710   0.9316740  )
        32           Si  tau(  32) = (   0.2124090   0.7480110   0.2811340  )
        33           Si  tau(  33) = (   0.5934500   0.0739008   0.0017602  )
        34           Si  tau(  34) = (   0.8996800   0.8447220   0.2697230  )
        35           Si  tau(  35) = (   0.2831170   0.2295470   0.1003720  )
        36           Si  tau(  36) = (   0.6697430   0.3733320   0.5378210  )
        37           Si  tau(  37) = (   0.7259020   0.5584390   0.0944586  )
        38           Si  tau(  38) = (   0.3070670   0.7998520   0.8810880  )
        39           Si  tau(  39) = (   0.6842150   0.9524560   0.3829990  )
        40           Si  tau(  40) = (   0.5583180   0.5187700   0.2170900  )
        41           Si  tau(  41) = (   0.9669930   0.5439660   0.1019190  )
        42           Si  tau(  42) = (   0.6100260   0.5774620   0.4242620  )
        43           Si  tau(  43) = (   0.4294220   0.7172520   0.1219840  )
        44           Si  tau(  44) = (   0.3133060   0.9670120   0.3458110  )
        45           Si  tau(  45) = (   0.1410680   0.7521960   0.5991690  )
        46           Si  tau(  46) = (   0.8339660   0.4640150   0.9182090  )
        47           Si  tau(  47) = (   0.3833550   0.5208800   0.0049547  )
        48           Si  tau(  48) = (   0.3799730   0.4616430   0.6973370  )
        49           Si  tau(  49) = (   0.0891915   0.9486480   0.1953530  )
        50           Si  tau(  50) = (   0.8408960   0.2176710   0.5524880  )
        51           Si  tau(  51) = (   0.2906000   0.3265730   0.9192580  )
        52           Si  tau(  52) = (   0.7870190   0.9340650   0.0620885  )
        53           Si  tau(  53) = (   0.0275025   0.0486083   0.7553380  )
        54           Si  tau(  54) = (   0.5461810   0.9604790   0.1648070  )
        55           Si  tau(  55) = (   0.1638110   0.0430030   0.5775670  )
        56           Si  tau(  56) = (   0.8675820   0.4079030   0.3853190  )
        57           Si  tau(  57) = (   0.8770900   0.9432370   0.5327240  )
        58           Si  tau(  58) = (   0.4850990   0.8588120   0.3337500  )
        59           Si  tau(  59) = (   0.0056016   0.1130130   0.4189120  )
        60           Si  tau(  60) = (   0.6261250   0.2446230   0.3361200  )
        61           Si  tau(  61) = (   0.4914680   0.3035290   0.9161980  )
        62           Si  tau(  62) = (   0.0090596   0.8341590   0.7489710  )
        63           Si  tau(  63) = (   0.5902290   0.3709230   0.7440720  )
        64           Si  tau(  64) = (   0.0535865   0.4376260   0.5150810  )

     number of k points=     1  Fermi-Dirac smearing, width (Ry)=  0.0100
                       cart. coord. in units 2pi/alat
        k(    1) = (   0.0000000   0.0000000   0.0000000), wk =   2.0000000

     Dense  grid:    92058 G-vectors     FFT dimensions: (  72,  72,  72)

     Estimated max dynamical RAM per process >     147.52 MB

     Estimated total dynamical RAM >     567.59 MB

     Initial potential from superposition of free atoms

     starting charge     255.9608, renormalised to     256.0000
     Starting wfcs are  256 randomized atomic wfcs

     total cpu time spent up to now is        4.5 secs

     Self-consistent Calculation

     iteration #  1     ecut=    30.00 Ry     beta= 0.50
     Davidson diagonalization with overlap
     ethr =  1.00E-02,  avg # of iterations =  3.0

     Threshold (ethr) on eigenvalues was too large:
     Diagonalizing with lowered threshold

     Davidson diagonalization with overlap
     ethr =  5.12E-04,  avg # of iterations =  4.0

     total cpu time spent up to now is        4.7 secs

     total energy              =    -500.49588659 Ry
     estimated scf accuracy    <       1.67725986 Ry

     iteration #  2     ecut=    30.00 Ry     beta= 0.50
     Davidson diagonalization with overlap
     ethr =  6.55E-04,  avg # of iterations =  3.0

     total cpu time spent up to now is        4.8 secs

     total energy              =    -499.74583567 Ry
     estimated scf accuracy    <      10.12939604 Ry

     iteration #  3     ecut=    30.00 Ry     beta= 0.50
     Davidson diagonalization with overlap
     ethr =  6.55E-04,  avg # of iterations =  4.0

     total cpu time spent up to now is        4.9 secs

     total energy              =    -500.67151262 Ry
     estimated scf accuracy    <       2.49304820 Ry

     iteration #  4     ecut=    30.00 Ry     beta= 0.50
     Davidson diagonalization with overlap
     ethr =  6.55E-04,  avg # of iterations =  2.0

     total cpu time spent up to now is        5.0 secs

     total energy              =    -500.82428872 Ry
     estimated scf accuracy    <       0.88896440 Ry

     iteration #  5     ecut=    30.00 Ry     beta= 0.50
     Davidson diagonalization with overlap
     ethr =  3.47E-04,  avg # of iterations =  2.0

     total cpu time spent up to now is        5.0 secs

     total energy              =    -500.87463297 Ry
     estimated scf accuracy    <       0.65725754 Ry

     iteration #  6     ecut=    30.00 Ry     beta= 0.50
     Davidson diagonalization with overlap
     ethr =  2.57E-04,  avg # of iterations =  2.0

     total cpu time spent up to now is        5.1 secs

     total energy              =    -500.93213293 Ry
     estimated scf accuracy    <       0.06564820 Ry

     iteration #  7     ecut=    30.00 Ry     beta= 0.50
     Davidson diagonalization with overlap
     ethr =  2.56E-05,  avg # of iterations = 11.0

     total cpu time spent up to now is        5.3 secs

     total energy              =    -500.93783536 Ry
     estimated scf accuracy    <       0.06588570 Ry

     iteration #  8     ecut=    30.00 Ry     beta= 0.50
     Davidson diagonalization with overlap
     ethr =  2.56E-05,  avg # of iterations =  2.0

     total cpu time spent up to now is        5.3 secs

     total energy              =    -500.94417658 Ry
     estimated scf accuracy    <       0.01472992 Ry

     iteration #  9     ecut=    30.00 Ry     beta= 0.50
     Davidson diagonalization with overlap
     ethr =  5.75E-06,  avg # of iterations = 13.0

     total cpu time spent up to now is        5.5 secs

     total energy              =    -500.94565556 Ry
     estimated scf accuracy    <       0.00215570 Ry

     iteration # 10     ecut=    30.00 Ry     beta= 0.50
     Davidson diagonalization with overlap
     ethr =  8.42E-07,  avg # of iterations =  4.0

     total cpu time spent up to now is        5.6 secs

     total energy              =    -500.94574204 Ry
     estimated scf accuracy    <       0.00353264 Ry

     iteration # 11     ecut=    30.00 Ry     beta= 0.50
     Davidson diagonalization with overlap
     ethr =  8.42E-07,  avg # of iterations =  2.0

     total cpu time spent up to now is        5.6 secs

     total energy              =    -500.94603291 Ry
     estimated scf accuracy    <       0.00045159 Ry

     iteration # 12     ecut=    30.00 Ry     beta= 0.50
     Davidson diagonalization with overlap
     ethr =  1.76E-07,  avg # of iterations =  3.0

     total cpu time spent up to now is        5.7 secs

     total energy              =    -500.94608048 Ry
     estimated scf accuracy    <       0.00022474 Ry

     iteration # 13     ecut=    30.00 Ry     beta= 0.50
     Davidson diagonalization with overlap
     ethr =  8.78E-08,  avg # of iterations =  3.0

     total cpu time spent up to now is        5.8 secs

     total energy              =    -500.94609337 Ry
     estimated scf accuracy    <       0.00031019 Ry

     iteration # 14     ecut=    30.00 Ry     beta= 0.50
     Davidson diagonalization with overlap
     ethr =  8.78E-08,  avg # of iterations =  2.0

     total cpu time spent up to now is        5.9 secs

     total energy              =    -500.94611336 Ry
     estimated scf accuracy    <       0.00001603 Ry

     iteration # 15     ecut=    30.00 Ry     beta= 0.50
     Davidson diagonalization with overlap
     ethr =  6.26E-09,  avg # of iterations =  5.0

     total cpu time spent up to now is        6.0 secs

     total energy              =    -500.94611263 Ry
     estimated scf accuracy    <       0.00009231 Ry

     iteration # 16     ecut=    30.00 Ry     beta= 0.50
     Davidson diagonalization with overlap
     ethr =  6.26E-09,  avg # of iterations =  3.0

     total cpu time spent up to now is        6.1 secs

     total energy              =    -500.94611857 Ry
     estimated scf accuracy    <       0.00000562 Ry

     iteration # 17     ecut=    30.00 Ry     beta= 0.50
     Davidson diagonalization with overlap
     ethr =  2.20E-09,  avg # of iterations =  5.0

     total cpu time spent up to now is        6.2 secs

     total energy              =    -500.94611862 Ry
     estimated scf accuracy    <       0.00001427 Ry

     iteration # 18     ecut=    30.00 Ry     beta= 0.50
     Davidson diagonalization with overlap
     ethr =  2.20E-09,  avg # of iterations =  3.0

     total cpu time spent up to now is        6.3 secs

     total energy              =    -500.94611961 Ry
     estimated scf accuracy    <       0.00000161 Ry

     iteration # 19     ecut=    30.00 Ry     beta= 0.50
     Davidson diagonalization with overlap
     ethr =  6.31E-10,  avg # of iterations =  2.0

     total cpu time spent up to now is        6.4 secs

     End of self-consistent calculation

          k = 0.0000 0.0000 0.0000 ( 11492 PWs)   bands (ev):

    -5.8692  -5.1537  -4.9492  -4.7868  -4.7832  -4.5541  -4.2355  -4.1342
    -3.9580  -3.8516  -3.8093  -3.6261  -3.4561  -3.3010  -3.2222  -3.0658
    -3.0130  -2.9274  -2.8769  -2.6154  -2.3551  -2.2630  -2.1533  -1.9883
    -1.8907  -1.6282  -1.4492  -1.3697  -1.2374  -0.9562  -0.8828  -0.8087
    -0.7407  -0.6351  -0.5572  -0.4192  -0.3514  -0.2789  -0.1653  -0.0142
     0.0256   0.1133   0.1992   0.3031   0.3653   0.4241   0.5105   0.6293
     0.7591   0.9070   0.9569   0.9926   1.1416   1.2111   1.4419   1.5043
     1.5972   1.6773   1.7269   1.8499   1.8857   2.0420   2.1318   2.2197
     2.3009   2.3701   2.4441   2.4939   2.5368   2.6122   2.7753   2.8579
     3.0052   3.0895   3.1440   3.1753   3.3322   3.4596   3.4824   3.5514
     3.6615   3.8051   3.8792   4.0850   4.1546   4.2062   4.2852   4.3788
     4.4726   4.5146   4.5912   4.6717   4.7217   4.8307   4.9043   4.9168
     4.9455   5.0378   5.1083   5.1503   5.1783   5.2895   5.3897   5.4296
     5.4741   5.5313   5.6622   5.6892   5.7432   5.8404   5.8868   5.9568
     5.9630   6.0335   6.1057   6.1343   6.2507   6.2978   6.3153   6.3567
     6.3800   6.4709   6.5348   6.5965   6.7239   6.7770   6.8032   6.8386
     6.9604   7.0274   7.0688   7.1079   7.1635   7.1869   7.2174   7.3373
     7.4399   7.4491   7.5746   7.6730   7.7031   7.7680   7.7773   7.8595
     7.8970   7.9551   7.9943   8.0548   8.0826   8.1537   8.1955   8.2808
     8.3322   8.3649

     the Fermi energy is     6.9010 ev

!    total energy              =    -500.94611954 Ry
     estimated scf accuracy    <       0.00000030 Ry
     smearing contrib. (-TS)   =      -0.14755401 Ry
     internal energy E=F+TS    =    -500.79856553 Ry

     The total energy is F=E-TS. E is the sum of the following terms:
     one-electron contribution =     159.23570920 Ry
     hartree contribution      =      36.06306734 Ry
     xc contribution           =    -151.35415443 Ry
     ewald contribution        =    -544.74318765 Ry

     convergence has been achieved in  19 iterations

     Forces acting on atoms (cartesian axes, Ry/au):

     atom    1 type  1   force =    -0.01499753    0.07202099    0.05777394
     atom    2 type  1   force =     0.01504485   -0.00790718   -0.00972990
     atom    3 type  1   force =     0.02030551   -0.01450015    0.00042168
     atom    4 type  1   force =    -0.02124687    0.00289901    0.02773173
     atom    5 type  1   force =     0.03739089    0.00702128    0.04656171
     atom    6 type  1   force =    -0.01101759   -0.00435052   -0.01251046
     atom    7 type  1   force =    -0.03655108   -0.00455321    0.04393382
     atom    8 type  1   force =    -0.05464539   -0.01836827    0.00875642
     atom    9 type  1   force =    -0.03147720    0.00213969    0.00067616
     atom   10 type  1   force =     0.01446888   -0.01310087    0.02028732
     atom   11 type  1   force =    -0.07106083    0.08191664   -0.05602192
     atom   12 type  1   force =    -0.02676520    0.01171704    0.01707167
     atom   13 type  1   force =    -0.02647239    0.01961556   -0.01552703
     atom   14 type  1   force =    -0.00172258    0.01566619    0.02475297
     atom   15 type  1   force =     0.01294197   -0.02441573    0.03399161
     atom   16 type  1   force =    -0.01099962   -0.01985661    0.01185606
     atom   17 type  1   force =    -0.04788606    0.04003824   -0.01706011
     atom   18 type  1   force =     0.02831908   -0.10465084   -0.04563701
     atom   19 type  1   force =     0.00623362   -0.00724185    0.01424837
     atom   20 type  1   force =     0.00181127    0.04358755   -0.03926247
     atom   21 type  1   force =    -0.02776908    0.05600495    0.00519939
     atom   22 type  1   force =    -0.02507262    0.01323056    0.01330431
     atom   23 type  1   force =     0.02870540    0.01006238   -0.03039434
     atom   24 type  1   force =     0.00822369   -0.02295256   -0.04146643
     atom   25 type  1   force =    -0.01499894   -0.04273166    0.03708493
     atom   26 type  1   force =     0.02301549    0.03255716   -0.01573003
     atom   27 type  1   force =    -0.00890446   -0.02589681    0.00233047
     atom   28 type  1   force =    -0.03046007   -0.00277666   -0.02267459
     atom   29 type  1   force =     0.07216129   -0.04529157   -0.01260868
     atom   30 type  1   force =    -0.00432855    0.03460442    0.02973085
     atom   31 type  1   force =    -0.03211044   -0.01141807   -0.00699241
     atom   32 type  1   force =     0.03736538    0.00490848   -0.06047070
     atom   33 type  1   force =     0.03159373    0.05244736   -0.06366673
     atom   34 type  1   force =    -0.03270123    0.00341856   -0.00446944
     atom   35 type  1   force =     0.02568124   -0.07293614    0.03759361
     atom   36 type  1   force =     0.01254469    0.00183248   -0.03318945
     atom   37 type  1   force =     0.04264288    0.02847497   -0.01534438
     atom   38 type  1   force =    -0.00505646   -0.00239492   -0.00292852
     atom   39 type  1   force =     0.03218031    0.01539635    0.01161135
     atom   40 type  1   force =    -0.02142811   -0.04977216   -0.03113843
     atom   41 type  1   force =    -0.01060764    0.01262870   -0.04027815
     atom   42 type  1   force =     0.01655513   -0.00038170    0.03255159
     atom   43 type  1   force =    -0.00305368    0.00405253    0.01806244
     atom   44 type  1   force =    -0.09516475    0.07698558    0.01793241
     atom   45 type  1   force =     0.04707540    0.01576251   -0.00183663
     atom   46 type  1   force =     0.00515176    0.00490498   -0.01581202
     atom   47 type  1   force =     0.02241162   -0.00553357   -0.00830799
     atom   48 type  1   force =     0.00904964   -0.02143912    0.03712831
     atom   49 type  1   force =     0.08020639   -0.07838156    0.07275747
     atom   50 type  1   force =    -0.00225749   -0.01039296    0.00493577
     atom   51 type  1   force =    -0.06769147    0.03799692   -0.08376444
     atom   52 type  1   force =    -0.00683841    0.00087523    0.02942316
     atom   53 type  1   force =     0.00132907    0.02869158   -0.00312903
     atom   54 type  1   force =     0.01480341   -0.00383080    0.01520000
     atom   55 type  1   force =     0.02956982    0.01704486   -0.02947909
     atom   56 type  1   force =     0.00872221    0.01297246    0.00000473
     atom   57 type  1   force =    -0.01235521    0.02292471   -0.01245420
     atom   58 type  1   force =     0.04456072   -0.08750600    0.04169641
     atom   59 type  1   force =    -0.00045708   -0.02198084    0.04031317
     atom   60 type  1   force =     0.00547267    0.00686823    0.03219770
     atom   61 type  1   force =     0.05617726   -0.03149557    0.04836260
     atom   62 type  1   force =    -0.05097226   -0.07443450   -0.04085286
     atom   63 type  1   force =     0.00970951    0.04289147   -0.05239282
     atom   64 type  1   force =     0.00564553   -0.00366720   -0.01035387

     Total force =     0.469414     Total SCF correction =     0.001060


     Computing stress (Cartesian axis) and pressure

          total   stress  (Ry/bohr**3)                   (kbar)     P=       -3.06
   0.00003449  -0.00005864  -0.00016647            5.07       -8.63      -24.49
  -0.00005864  -0.00016638  -0.00006422           -8.63      -24.48       -9.45
  -0.00016647  -0.00006422   0.00006941          -24.49       -9.45       10.21

 
     init_run     :      0.96s CPU      4.42s WALL (       1 calls)
     electrons    :      1.75s CPU      1.89s WALL (       1 calls)
     forces       :      0.03s CPU      0.03s WALL (       1 calls)
     stress       :      0.14s CPU      0.15s WALL (       1 calls)

     Called by init_run:
     wfcinit      :      0.46s CPU      3.74s WALL (       1 calls)
                                        3.74s GPU  (       1 calls)
     potinit      :      0.03s CPU      0.13s WALL (       1 calls)
     hinit0       :      0.45s CPU      0.48s WALL (       1 calls)

     Called by electrons:
     c_bands      :      1.15s CPU      1.21s WALL (      20 calls)
     sum_band     :      0.31s CPU      0.35s WALL (      20 calls)
     v_of_rho     :      0.13s CPU      0.23s WALL (      20 calls)
     mix_rho      :      0.14s CPU      0.16s WALL (      20 calls)

     Called by c_bands:
     init_us_2    :      0.05s CPU      0.06s WALL (      41 calls)
     init_us_2:gp :      0.05s CPU      0.06s WALL (      41 calls)
     regterg      :      1.01s CPU      1.06s WALL (      20 calls)

     Called by *egterg:
     rdiaghg      :      0.42s CPU      1.09s WALL (      97 calls)
                                        1.07s GPU  (      97 calls)
     h_psi        :      0.88s CPU      3.53s WALL (      99 calls)
                                        3.53s GPU  (      99 calls)
     g_psi        :      0.00s CPU      0.00s WALL (      78 calls)
                                        0.00s GPU  (      78 calls)

     Called by h_psi:
     h_psi:calbec :      0.45s CPU      3.03s WALL (      99 calls)
                                        3.03s GPU  (      99 calls)
     vloc_psi     :      0.37s CPU      0.44s WALL (      99 calls)
                                        0.44s GPU  (      99 calls)
     add_vuspsi   :      0.04s CPU      0.05s WALL (      99 calls)
                                        0.05s GPU  (      99 calls)

     General routines
     calbec       :      0.46s CPU      3.03s WALL (     104 calls)
     fft          :      0.54s CPU      0.67s WALL (     167 calls)
                                        0.13s GPU  (     106 calls)
     ffts         :      0.03s CPU      0.03s WALL (      20 calls)
     fftw         :      0.45s CPU      0.59s WALL (    2128 calls)
                                        0.52s GPU  (    2128 calls)
 
     Parallel routines
 
     PWSCF        :      2.93s CPU      6.56s WALL

 
   This run was terminated on:  12: 5:49  11May2023            

=------------------------------------------------------------------------------=
   JOB DONE.
=------------------------------------------------------------------------------=
