An instance of this daemon is already running
An instance of this daemon is already running

     Program PWSCF v.7.1 starts on 11May2023 at 12:15:11 

     This program is part of the open-source Quantum ESPRESSO suite
     for quantum simulation of materials; please cite
         "P. Giannozzi et al., J. Phys.:Condens. Matter 21 395502 (2009);
         "P. Giannozzi et al., J. Phys.:Condens. Matter 29 465901 (2017);
         "P. Giannozzi et al., J. Chem. Phys. 152 154105 (2020);
          URL http://www.quantum-espresso.org", 
     in publications or presentations arising from this work. More details at
     http://www.quantum-espresso.org/quote

     Parallel version (MPI & OpenMP), running on       4 processor cores
     Number of MPI processes:                 4
     Threads/MPI process:                     1

     MPI processes distributed on     1 nodes
     701370 MiB available memory on the printing compute node when the environment starts
 
     Reading input from pw-si-82.in
Warning: card &CELL ignored
Warning: card / ignored

     Current dimensions of program PWSCF are:
     Max number of different atomic species (ntypx) = 10
     Max number of k-points (npk) =  40000
     Max angular momentum in pseudopotentials (lmaxx) =  4

     IMPORTANT: XC functional enforced from input :
     Exchange-correlation= PBE
                           (   1   4   3   4   0   0   0)
     Any further DFT definition will be discarded
     Please, verify this is what you really want


     gamma-point specific algorithms are used
 
     K-points division:     npool     =       2
     R & G space division:  proc/nbgrp/npool/nimage =       2
     Subspace diagonalization in iterative solution of the eigenvalue problem:
     a serial algorithm will be used

     Message from routine divide_et_impera:
     suboptimal parallelization: some nodes have no k-points
 
     Parallelization info
     --------------------
     sticks:   dense  smooth     PW     G-vecs:    dense   smooth      PW
     Min        2046    2046    542                98378    98378   13370
     Max        2047    2047    543                98379    98379   13375
     Sum        4093    4093   1085               196757   196757   26745
 
     Using Slab Decomposition
 


     bravais-lattice index     =            0
     lattice parameter (alat)  =      20.6947  a.u.
     unit-cell volume          =    8862.8738 (a.u.)^3
     number of atoms/cell      =           64
     number of atomic types    =            1
     number of electrons       =       256.00
     number of Kohn-Sham states=          154
     kinetic-energy cutoff     =      30.0000  Ry
     charge density cutoff     =     120.0000  Ry
     scf convergence threshold =      1.0E-06
     mixing beta               =       0.5000
     number of iterations used =            8  plain     mixing
     Exchange-correlation= PBE
                           (   1   4   3   4   0   0   0)

     GPU acceleration is ACTIVE.
     GPU-aware MPI enabled

     Message from routine print_cuda_info:
     High GPU oversubscription detected. Are you sure this is what you want?

     celldm(1)=  20.694655  celldm(2)=   0.000000  celldm(3)=   0.000000
     celldm(4)=   0.000000  celldm(5)=   0.000000  celldm(6)=   0.000000

     crystal axes: (cart. coord. in units of alat)
               a(1) = (   1.000000   0.000000   0.000000 )  
               a(2) = (   0.000000   1.000000   0.000000 )  
               a(3) = (   0.000000   0.000000   1.000000 )  

     reciprocal axes: (cart. coord. in units 2 pi/alat)
               b(1) = (  1.000000  0.000000  0.000000 )  
               b(2) = (  0.000000  1.000000  0.000000 )  
               b(3) = (  0.000000  0.000000  1.000000 )  


     PseudoPot. # 1 for Si read from file:
     /home/ppiaggi/pseudos/Si_ONCV_PBE_sr.upf
     MD5 check sum: 8553c464762ac42b85b1eed164b4d029
     Pseudo is Norm-conserving, Zval =  4.0
     Generated using ONCVPSP code by D. R. Hamann
     Using radial grid of 1510 points,  4 beta functions with: 
                l(1) =   0
                l(2) =   0
                l(3) =   1
                l(4) =   1

     atomic species   valence    mass     pseudopotential
        Si             4.00    28.08500     Si( 1.00)

     No symmetry found



   Cartesian axes

     site n.     atom                  positions (alat units)
         1           Si  tau(   1) = (   0.2148120   0.2156750   0.6806860  )
         2           Si  tau(   2) = (   0.8798950   0.6795250   0.5653430  )
         3           Si  tau(   3) = (   0.9248220   0.2965710   0.8187510  )
         4           Si  tau(   4) = (   0.4127850   0.7423280   0.9876720  )
         5           Si  tau(   5) = (   0.8933840   0.9980660   0.1998020  )
         6           Si  tau(   6) = (   0.2123550   0.5079250   0.6560700  )
         7           Si  tau(   7) = (   0.1037350   0.0380256   0.2187960  )
         8           Si  tau(   8) = (   0.9313720   0.6402810   0.9773830  )
         9           Si  tau(   9) = (   0.4468120   0.4600990   0.7061920  )
        10           Si  tau(  10) = (   0.7715650   0.6366830   0.2596700  )
        11           Si  tau(  11) = (   0.9035710   0.1056470   0.9538990  )
        12           Si  tau(  12) = (   0.3132670   0.9284200   0.5778830  )
        13           Si  tau(  13) = (   0.8641670   0.0156337   0.5303450  )
        14           Si  tau(  14) = (   0.5838100   0.7624330   0.6648620  )
        15           Si  tau(  15) = (   0.0934957   0.1043720   0.8524720  )
        16           Si  tau(  16) = (   0.7358570   0.4220570   0.2071530  )
        17           Si  tau(  17) = (   0.6035640   0.1177590   0.6400190  )
        18           Si  tau(  18) = (   0.3904430   0.1038650   0.6904140  )
        19           Si  tau(  19) = (   0.5438350   0.0171277   0.0139082  )
        20           Si  tau(  20) = (   0.4498030   0.3709320   0.3585870  )
        21           Si  tau(  21) = (   0.2212260   0.3728750   0.8510430  )
        22           Si  tau(  22) = (   0.1631460   0.8062900   0.4064110  )
        23           Si  tau(  23) = (   0.2369930   0.7965360   0.7275550  )
        24           Si  tau(  24) = (   0.6743870   0.8156830   0.9278770  )
        25           Si  tau(  25) = (   0.7261350   0.3736290   0.8643560  )
        26           Si  tau(  26) = (   0.0763867   0.3652290   0.9990350  )
        27           Si  tau(  27) = (   0.1621920   0.6477850   0.9248070  )
        28           Si  tau(  28) = (   0.1957720   0.0317848   0.4328420  )
        29           Si  tau(  29) = (   0.4798150   0.9030750   0.7892240  )
        30           Si  tau(  30) = (   0.3432990   0.5289190   0.9775300  )
        31           Si  tau(  31) = (   0.0157977   0.4854940   0.7253880  )
        32           Si  tau(  32) = (   0.9568650   0.8550730   0.0621583  )
        33           Si  tau(  33) = (   0.5934570   0.2098550   0.9222870  )
        34           Si  tau(  34) = (   0.6270330   0.7092040   0.1104880  )
        35           Si  tau(  35) = (   0.5535400   0.5656350   0.3402460  )
        36           Si  tau(  36) = (   0.6311280   0.3624560   0.6555910  )
        37           Si  tau(  37) = (   0.7429980   0.6215460   0.8121880  )
        38           Si  tau(  38) = (   0.0059750   0.9040340   0.6300450  )
        39           Si  tau(  39) = (   0.5002390   0.8325090   0.4844790  )
        40           Si  tau(  40) = (   0.5273850   0.5235810   0.1108280  )
        41           Si  tau(  41) = (   0.9708950   0.7160490   0.7522220  )
        42           Si  tau(  42) = (   0.6741590   0.5659100   0.5922400  )
        43           Si  tau(  43) = (   0.2557080   0.5538720   0.1999590  )
        44           Si  tau(  44) = (   0.0849162   0.3349970   0.4889530  )
        45           Si  tau(  45) = (   0.0673363   0.6686560   0.1685190  )
        46           Si  tau(  46) = (   0.9520450   0.4837610   0.1403190  )
        47           Si  tau(  47) = (   0.2516050   0.4604670   0.4192930  )
        48           Si  tau(  48) = (   0.5580080   0.5435840   0.8927410  )
        49           Si  tau(  49) = (   0.2176990   0.8129830   0.0259590  )
        50           Si  tau(  50) = (   0.9522850   0.1458320   0.3712890  )
        51           Si  tau(  51) = (   0.4000100   0.3458460   0.1376880  )
        52           Si  tau(  52) = (   0.7040820   0.9714400   0.1445330  )
        53           Si  tau(  53) = (   0.8933510   0.8981860   0.8501590  )
        54           Si  tau(  54) = (   0.5952490   0.2376770   0.1718660  )
        55           Si  tau(  55) = (   0.2448040   0.1945310   0.0361994  )
        56           Si  tau(  56) = (   0.7173920   0.3481950   0.4210920  )
        57           Si  tau(  57) = (   0.6643460   0.9883990   0.4621370  )
        58           Si  tau(  58) = (   0.3533730   0.6683010   0.4074780  )
        59           Si  tau(  59) = (   0.0575043   0.1197260   0.5736830  )
        60           Si  tau(  60) = (   0.7395550   0.1178480   0.3081410  )
        61           Si  tau(  61) = (   0.8228920   0.1110310   0.7152280  )
        62           Si  tau(  62) = (   0.9595730   0.6814770   0.3690570  )
        63           Si  tau(  63) = (   0.4213660   0.2573420   0.8442040  )
        64           Si  tau(  64) = (   0.1669590   0.3581880   0.2106500  )

     number of k points=     1  Fermi-Dirac smearing, width (Ry)=  0.0100
                       cart. coord. in units 2pi/alat
        k(    1) = (   0.0000000   0.0000000   0.0000000), wk =   2.0000000

     Dense  grid:    98379 G-vectors     FFT dimensions: (  75,  75,  75)

     Estimated max dynamical RAM per process >     158.42 MB

     Estimated total dynamical RAM >     609.66 MB

     Initial potential from superposition of free atoms

     starting charge     255.9608, renormalised to     256.0000
     Starting wfcs are  256 randomized atomic wfcs

     total cpu time spent up to now is        4.2 secs

     Self-consistent Calculation

     iteration #  1     ecut=    30.00 Ry     beta= 0.50
     Davidson diagonalization with overlap
     ethr =  1.00E-02,  avg # of iterations =  3.0

     Threshold (ethr) on eigenvalues was too large:
     Diagonalizing with lowered threshold

     Davidson diagonalization with overlap
     ethr =  5.77E-04,  avg # of iterations =  4.0

     total cpu time spent up to now is        4.4 secs

     total energy              =    -500.45476503 Ry
     estimated scf accuracy    <       1.90160375 Ry

     iteration #  2     ecut=    30.00 Ry     beta= 0.50
     Davidson diagonalization with overlap
     ethr =  7.43E-04,  avg # of iterations =  4.0

     total cpu time spent up to now is        4.6 secs

     total energy              =    -499.91015855 Ry
     estimated scf accuracy    <       7.74593445 Ry

     iteration #  3     ecut=    30.00 Ry     beta= 0.50
     Davidson diagonalization with overlap
     ethr =  7.43E-04,  avg # of iterations =  4.0

     total cpu time spent up to now is        4.7 secs

     total energy              =    -500.55596703 Ry
     estimated scf accuracy    <       4.79294637 Ry

     iteration #  4     ecut=    30.00 Ry     beta= 0.50
     Davidson diagonalization with overlap
     ethr =  7.43E-04,  avg # of iterations =  3.0

     total cpu time spent up to now is        4.8 secs

     total energy              =    -500.91489395 Ry
     estimated scf accuracy    <       0.80883639 Ry

     iteration #  5     ecut=    30.00 Ry     beta= 0.50
     Davidson diagonalization with overlap
     ethr =  3.16E-04,  avg # of iterations =  2.0

     total cpu time spent up to now is        4.9 secs

     total energy              =    -500.93842780 Ry
     estimated scf accuracy    <       0.84084709 Ry

     iteration #  6     ecut=    30.00 Ry     beta= 0.50
     Davidson diagonalization with overlap
     ethr =  3.16E-04,  avg # of iterations =  2.0

     total cpu time spent up to now is        5.0 secs

     total energy              =    -501.00547630 Ry
     estimated scf accuracy    <       0.11017327 Ry

     iteration #  7     ecut=    30.00 Ry     beta= 0.50
     Davidson diagonalization with overlap
     ethr =  4.30E-05,  avg # of iterations =  2.0

     total cpu time spent up to now is        5.1 secs

     total energy              =    -501.01654496 Ry
     estimated scf accuracy    <       0.06106573 Ry

     iteration #  8     ecut=    30.00 Ry     beta= 0.50
     Davidson diagonalization with overlap
     ethr =  2.39E-05,  avg # of iterations =  2.0

     total cpu time spent up to now is        5.2 secs

     total energy              =    -501.02191728 Ry
     estimated scf accuracy    <       0.03283933 Ry

     iteration #  9     ecut=    30.00 Ry     beta= 0.50
     Davidson diagonalization with overlap
     ethr =  1.28E-05,  avg # of iterations =  8.0

     total cpu time spent up to now is        5.3 secs

     total energy              =    -501.02436413 Ry
     estimated scf accuracy    <       0.00679185 Ry

     iteration # 10     ecut=    30.00 Ry     beta= 0.50
     Davidson diagonalization with overlap
     ethr =  2.65E-06,  avg # of iterations = 11.0

     total cpu time spent up to now is        5.4 secs

     total energy              =    -501.02493632 Ry
     estimated scf accuracy    <       0.00740131 Ry

     iteration # 11     ecut=    30.00 Ry     beta= 0.50
     Davidson diagonalization with overlap
     ethr =  2.65E-06,  avg # of iterations =  2.0

     total cpu time spent up to now is        5.5 secs

     total energy              =    -501.02548850 Ry
     estimated scf accuracy    <       0.00070309 Ry

     iteration # 12     ecut=    30.00 Ry     beta= 0.50
     Davidson diagonalization with overlap
     ethr =  2.75E-07,  avg # of iterations =  4.0

     total cpu time spent up to now is        5.7 secs

     total energy              =    -501.02552528 Ry
     estimated scf accuracy    <       0.00088532 Ry

     iteration # 13     ecut=    30.00 Ry     beta= 0.50
     Davidson diagonalization with overlap
     ethr =  2.75E-07,  avg # of iterations =  3.0

     total cpu time spent up to now is        5.8 secs

     total energy              =    -501.02558990 Ry
     estimated scf accuracy    <       0.00083339 Ry

     iteration # 14     ecut=    30.00 Ry     beta= 0.50
     Davidson diagonalization with overlap
     ethr =  2.75E-07,  avg # of iterations =  2.0

     total cpu time spent up to now is        5.9 secs

     total energy              =    -501.02563889 Ry
     estimated scf accuracy    <       0.00011534 Ry

     iteration # 15     ecut=    30.00 Ry     beta= 0.50
     Davidson diagonalization with overlap
     ethr =  4.51E-08,  avg # of iterations =  2.0

     total cpu time spent up to now is        6.0 secs

     total energy              =    -501.02565189 Ry
     estimated scf accuracy    <       0.00005684 Ry

     iteration # 16     ecut=    30.00 Ry     beta= 0.50
     Davidson diagonalization with overlap
     ethr =  2.22E-08,  avg # of iterations =  2.0

     total cpu time spent up to now is        6.0 secs

     total energy              =    -501.02565618 Ry
     estimated scf accuracy    <       0.00002280 Ry

     iteration # 17     ecut=    30.00 Ry     beta= 0.50
     Davidson diagonalization with overlap
     ethr =  8.90E-09,  avg # of iterations =  2.0

     total cpu time spent up to now is        6.1 secs

     total energy              =    -501.02565766 Ry
     estimated scf accuracy    <       0.00000988 Ry

     iteration # 18     ecut=    30.00 Ry     beta= 0.50
     Davidson diagonalization with overlap
     ethr =  3.86E-09,  avg # of iterations =  2.0

     total cpu time spent up to now is        6.2 secs

     total energy              =    -501.02565830 Ry
     estimated scf accuracy    <       0.00001028 Ry

     iteration # 19     ecut=    30.00 Ry     beta= 0.50
     Davidson diagonalization with overlap
     ethr =  3.86E-09,  avg # of iterations =  1.0

     total cpu time spent up to now is        6.3 secs

     total energy              =    -501.02565885 Ry
     estimated scf accuracy    <       0.00000212 Ry

     iteration # 20     ecut=    30.00 Ry     beta= 0.50
     Davidson diagonalization with overlap
     ethr =  8.28E-10,  avg # of iterations =  2.0

     total cpu time spent up to now is        6.4 secs

     total energy              =    -501.02565907 Ry
     estimated scf accuracy    <       0.00000111 Ry

     iteration # 21     ecut=    30.00 Ry     beta= 0.50
     Davidson diagonalization with overlap
     ethr =  4.35E-10,  avg # of iterations =  2.0

     total cpu time spent up to now is        6.5 secs

     End of self-consistent calculation

          k = 0.0000 0.0000 0.0000 ( 12287 PWs)   bands (ev):

    -6.5219  -6.0823  -5.5984  -5.4829  -5.3665  -5.1930  -4.8906  -4.8364
    -4.5911  -4.4721  -4.4608  -4.2840  -4.2001  -4.0406  -3.9264  -3.7112
    -3.5932  -3.3892  -3.1967  -3.1415  -3.0443  -2.8491  -2.6962  -2.6021
    -2.4153  -2.3281  -2.0314  -1.9714  -1.8421  -1.7916  -1.6400  -1.4619
    -1.3998  -1.3162  -1.2267  -1.1706  -1.0901  -1.0480  -0.9729  -0.8915
    -0.7653  -0.6590  -0.6472  -0.4574  -0.3086  -0.2216  -0.1587  -0.0537
    -0.0097   0.1976   0.3375   0.4200   0.4963   0.5532   0.7397   0.7904
     0.8478   0.9975   1.1368   1.2058   1.3402   1.4808   1.5620   1.7007
     1.7381   1.8562   1.8973   2.0468   2.1256   2.1965   2.2326   2.2857
     2.4140   2.5274   2.5662   2.7147   2.7664   2.8843   2.8995   2.9377
     3.0316   3.0962   3.1412   3.3269   3.3832   3.4867   3.5588   3.6168
     3.6690   3.7665   3.8174   3.8447   3.8830   3.9922   4.0154   4.0881
     4.1104   4.1824   4.2735   4.3182   4.4665   4.5280   4.6274   4.6466
     4.6753   4.7265   4.8414   4.9084   4.9957   5.0509   5.0934   5.1232
     5.2026   5.3369   5.3551   5.3749   5.4491   5.5879   5.6401   5.6425
     5.8034   5.8208   5.8895   5.9796   6.0333   6.0455   6.1371   6.1712
     6.1866   6.2098   6.3104   6.3381   6.3795   6.4342   6.5318   6.5695
     6.6561   6.7117   6.7875   6.8133   6.9075   6.9483   7.0423   7.0899
     7.1749   7.2257   7.2488   7.3488   7.3908   7.4356   7.4869   7.6259
     7.7109   7.7596

     the Fermi energy is     6.1767 ev

!    total energy              =    -501.02565883 Ry
     estimated scf accuracy    <       0.00000051 Ry
     smearing contrib. (-TS)   =      -0.16924295 Ry
     internal energy E=F+TS    =    -500.85641588 Ry

     The total energy is F=E-TS. E is the sum of the following terms:
     one-electron contribution =      92.24673148 Ry
     hartree contribution      =      62.70071253 Ry
     xc contribution           =    -150.71100996 Ry
     ewald contribution        =    -505.09284993 Ry

     convergence has been achieved in  21 iterations

     Forces acting on atoms (cartesian axes, Ry/au):

     atom    1 type  1   force =    -0.02773489    0.04944137    0.02001545
     atom    2 type  1   force =    -0.03682597   -0.02080429   -0.01582834
     atom    3 type  1   force =     0.01643519   -0.00721995    0.00880709
     atom    4 type  1   force =     0.05571665    0.00696524   -0.01419300
     atom    5 type  1   force =     0.05570824    0.01235663    0.00261972
     atom    6 type  1   force =     0.05207303   -0.01040553   -0.01980842
     atom    7 type  1   force =     0.03777494    0.01937841    0.01918285
     atom    8 type  1   force =     0.00561483   -0.01763250   -0.00110979
     atom    9 type  1   force =    -0.02271234   -0.00621276    0.03815824
     atom   10 type  1   force =    -0.02180659   -0.01441249    0.01041739
     atom   11 type  1   force =    -0.01620914   -0.02099412    0.00842986
     atom   12 type  1   force =     0.05426686    0.00236582   -0.02491587
     atom   13 type  1   force =    -0.03236774   -0.00927436   -0.03045110
     atom   14 type  1   force =     0.02297594   -0.02800142    0.00658036
     atom   15 type  1   force =     0.03497897    0.00808901   -0.00846555
     atom   16 type  1   force =     0.00710686    0.00903641    0.01004770
     atom   17 type  1   force =     0.01133912    0.01754181   -0.00551257
     atom   18 type  1   force =     0.04380939   -0.03619968    0.00727345
     atom   19 type  1   force =    -0.01300141    0.00555000   -0.04298465
     atom   20 type  1   force =     0.01777148   -0.00882062   -0.00193362
     atom   21 type  1   force =     0.04109022    0.00660097   -0.03903113
     atom   22 type  1   force =    -0.00985162   -0.00118791    0.00338809
     atom   23 type  1   force =    -0.03981280   -0.01825562    0.03402676
     atom   24 type  1   force =     0.02105324    0.02122272   -0.02497905
     atom   25 type  1   force =    -0.01594195    0.01211246   -0.01978379
     atom   26 type  1   force =    -0.02862029   -0.02038855   -0.00363061
     atom   27 type  1   force =    -0.05006874   -0.04283591   -0.04791080
     atom   28 type  1   force =    -0.01426995   -0.01056055   -0.04031446
     atom   29 type  1   force =    -0.00794722   -0.00091703    0.05529862
     atom   30 type  1   force =    -0.03331024   -0.01041528    0.00867686
     atom   31 type  1   force =    -0.02276020   -0.00908114   -0.00644686
     atom   32 type  1   force =     0.02691965   -0.05517170   -0.02019189
     atom   33 type  1   force =     0.08943206   -0.02920929    0.05978663
     atom   34 type  1   force =    -0.00452936    0.05791061   -0.00561013
     atom   35 type  1   force =     0.01737260    0.00699796    0.01400047
     atom   36 type  1   force =     0.02456697   -0.04166259   -0.00548568
     atom   37 type  1   force =     0.02243757    0.02041616   -0.01154059
     atom   38 type  1   force =     0.04303355   -0.02683686    0.02484570
     atom   39 type  1   force =    -0.02848719    0.02153166   -0.01261055
     atom   40 type  1   force =     0.02099256   -0.01780381    0.01614160
     atom   41 type  1   force =     0.02274142   -0.01731972    0.02137128
     atom   42 type  1   force =     0.03042653    0.03667861   -0.01381259
     atom   43 type  1   force =     0.01582597    0.02398074   -0.00142396
     atom   44 type  1   force =    -0.00752172    0.00304683    0.01939589
     atom   45 type  1   force =     0.01531240    0.01606257    0.00477404
     atom   46 type  1   force =    -0.02635234   -0.01089929   -0.00964218
     atom   47 type  1   force =    -0.00150336    0.00440064    0.02407076
     atom   48 type  1   force =    -0.01389839   -0.01077026   -0.01352817
     atom   49 type  1   force =    -0.02779118    0.06945145    0.03707997
     atom   50 type  1   force =     0.01581809    0.02244061    0.00436711
     atom   51 type  1   force =    -0.02179445   -0.01490900    0.00843010
     atom   52 type  1   force =    -0.06589824   -0.04494000   -0.04357562
     atom   53 type  1   force =    -0.02462851    0.02849869    0.00564394
     atom   54 type  1   force =     0.01125766   -0.00249186   -0.01388277
     atom   55 type  1   force =    -0.01944644    0.01058502    0.00871442
     atom   56 type  1   force =    -0.01600349   -0.01406614   -0.00837434
     atom   57 type  1   force =    -0.03348173   -0.01470941    0.02518193
     atom   58 type  1   force =    -0.01043640    0.00583901   -0.02180486
     atom   59 type  1   force =     0.00824768    0.00763560   -0.00186809
     atom   60 type  1   force =    -0.02941032    0.05695835    0.01558293
     atom   61 type  1   force =    -0.02676210    0.01855611    0.03409471
     atom   62 type  1   force =     0.01599763    0.00856275    0.00204624
     atom   63 type  1   force =    -0.10184732    0.03908493   -0.03318288
     atom   64 type  1   force =    -0.00506368   -0.03488950    0.00538376

     Total force =     0.375585     Total SCF correction =     0.001276


     Computing stress (Cartesian axis) and pressure

          total   stress  (Ry/bohr**3)                   (kbar)     P=      -13.88
  -0.00002992  -0.00003737   0.00000800           -4.40       -5.50        1.18
  -0.00003737  -0.00015518  -0.00001416           -5.50      -22.83       -2.08
   0.00000800  -0.00001416  -0.00009799            1.18       -2.08      -14.41

 
     init_run     :      0.63s CPU      4.15s WALL (       1 calls)
     electrons    :      2.16s CPU      2.31s WALL (       1 calls)
     forces       :      0.03s CPU      0.03s WALL (       1 calls)
     stress       :      0.15s CPU      0.15s WALL (       1 calls)

     Called by init_run:
     wfcinit      :      0.44s CPU      3.80s WALL (       1 calls)
                                        3.80s GPU  (       1 calls)
     potinit      :      0.04s CPU      0.13s WALL (       1 calls)
     hinit0       :      0.13s CPU      0.16s WALL (       1 calls)

     Called by electrons:
     c_bands      :      1.38s CPU      1.45s WALL (      22 calls)
     sum_band     :      0.39s CPU      0.44s WALL (      22 calls)
     v_of_rho     :      0.16s CPU      0.26s WALL (      22 calls)
     mix_rho      :      0.18s CPU      0.19s WALL (      22 calls)

     Called by c_bands:
     init_us_2    :      0.05s CPU      0.06s WALL (      45 calls)
     init_us_2:gp :      0.05s CPU      0.06s WALL (      45 calls)
     regterg      :      1.23s CPU      1.29s WALL (      22 calls)

     Called by *egterg:
     rdiaghg      :      0.38s CPU      1.08s WALL (      90 calls)
                                        1.06s GPU  (      90 calls)
     h_psi        :      1.11s CPU      3.82s WALL (      92 calls)
                                        3.82s GPU  (      92 calls)
     g_psi        :      0.00s CPU      0.00s WALL (      69 calls)
                                        0.00s GPU  (      69 calls)

     Called by h_psi:
     h_psi:calbec :      0.41s CPU      3.04s WALL (      92 calls)
                                        3.04s GPU  (      92 calls)
     vloc_psi     :      0.65s CPU      0.72s WALL (      92 calls)
                                        0.72s GPU  (      92 calls)
     add_vuspsi   :      0.03s CPU      0.05s WALL (      92 calls)
                                        0.05s GPU  (      92 calls)

     General routines
     calbec       :      0.42s CPU      3.05s WALL (      97 calls)
     fft          :      0.27s CPU      0.39s WALL (     183 calls)
                                        0.13s GPU  (     116 calls)
     ffts         :      0.04s CPU      0.05s WALL (      22 calls)
     fftw         :      0.73s CPU      0.92s WALL (    2292 calls)
                                        0.83s GPU  (    2292 calls)
 
     Parallel routines
 
     PWSCF        :      3.01s CPU      6.72s WALL

 
   This run was terminated on:  12:15:18  11May2023            

=------------------------------------------------------------------------------=
   JOB DONE.
=------------------------------------------------------------------------------=
