An instance of this daemon is already running
An instance of this daemon is already running

     Program PWSCF v.7.1 starts on 11May2023 at 12: 5:34 

     This program is part of the open-source Quantum ESPRESSO suite
     for quantum simulation of materials; please cite
         "P. Giannozzi et al., J. Phys.:Condens. Matter 21 395502 (2009);
         "P. Giannozzi et al., J. Phys.:Condens. Matter 29 465901 (2017);
         "P. Giannozzi et al., J. Chem. Phys. 152 154105 (2020);
          URL http://www.quantum-espresso.org", 
     in publications or presentations arising from this work. More details at
     http://www.quantum-espresso.org/quote

     Parallel version (MPI & OpenMP), running on       4 processor cores
     Number of MPI processes:                 4
     Threads/MPI process:                     1

     MPI processes distributed on     1 nodes
     701377 MiB available memory on the printing compute node when the environment starts
 
     Reading input from pw-si-16.in
Warning: card &CELL ignored
Warning: card / ignored

     Current dimensions of program PWSCF are:
     Max number of different atomic species (ntypx) = 10
     Max number of k-points (npk) =  40000
     Max angular momentum in pseudopotentials (lmaxx) =  4

     IMPORTANT: XC functional enforced from input :
     Exchange-correlation= PBE
                           (   1   4   3   4   0   0   0)
     Any further DFT definition will be discarded
     Please, verify this is what you really want


     gamma-point specific algorithms are used
 
     K-points division:     npool     =       2
     R & G space division:  proc/nbgrp/npool/nimage =       2
     Subspace diagonalization in iterative solution of the eigenvalue problem:
     a serial algorithm will be used

     Message from routine divide_et_impera:
     suboptimal parallelization: some nodes have no k-points
 
     Parallelization info
     --------------------
     sticks:   dense  smooth     PW     G-vecs:    dense   smooth      PW
     Min        1954    1954    520                92150    92150   12584
     Max        1955    1955    521                92157    92157   12589
     Sum        3909    3909   1041               184307   184307   25173
 
     Using Slab Decomposition
 


     bravais-lattice index     =            0
     lattice parameter (alat)  =      20.2584  a.u.
     unit-cell volume          =    8314.1602 (a.u.)^3
     number of atoms/cell      =           64
     number of atomic types    =            1
     number of electrons       =       256.00
     number of Kohn-Sham states=          154
     kinetic-energy cutoff     =      30.0000  Ry
     charge density cutoff     =     120.0000  Ry
     scf convergence threshold =      1.0E-06
     mixing beta               =       0.5000
     number of iterations used =            8  plain     mixing
     Exchange-correlation= PBE
                           (   1   4   3   4   0   0   0)

     GPU acceleration is ACTIVE.
     GPU-aware MPI enabled

     Message from routine print_cuda_info:
     High GPU oversubscription detected. Are you sure this is what you want?

     celldm(1)=  20.258446  celldm(2)=   0.000000  celldm(3)=   0.000000
     celldm(4)=   0.000000  celldm(5)=   0.000000  celldm(6)=   0.000000

     crystal axes: (cart. coord. in units of alat)
               a(1) = (   1.000000   0.000000   0.000000 )  
               a(2) = (   0.000000   1.000000   0.000000 )  
               a(3) = (   0.000000   0.000000   1.000000 )  

     reciprocal axes: (cart. coord. in units 2 pi/alat)
               b(1) = (  1.000000  0.000000  0.000000 )  
               b(2) = (  0.000000  1.000000  0.000000 )  
               b(3) = (  0.000000  0.000000  1.000000 )  


     PseudoPot. # 1 for Si read from file:
     /home/ppiaggi/pseudos/Si_ONCV_PBE_sr.upf
     MD5 check sum: 8553c464762ac42b85b1eed164b4d029
     Pseudo is Norm-conserving, Zval =  4.0
     Generated using ONCVPSP code by D. R. Hamann
     Using radial grid of 1510 points,  4 beta functions with: 
                l(1) =   0
                l(2) =   0
                l(3) =   1
                l(4) =   1

     atomic species   valence    mass     pseudopotential
        Si             4.00    28.08500     Si( 1.00)

     No symmetry found



   Cartesian axes

     site n.     atom                  positions (alat units)
         1           Si  tau(   1) = (   0.3474190   0.3474340   0.4477200  )
         2           Si  tau(   2) = (   0.5590030   0.8405140   0.5766340  )
         3           Si  tau(   3) = (   0.0429294   0.2697050   0.8208270  )
         4           Si  tau(   4) = (   0.2869630   0.0067958   0.9526650  )
         5           Si  tau(   5) = (   0.0793141   0.9184160   0.9405780  )
         6           Si  tau(   6) = (   0.8128470   0.7432320   0.6001800  )
         7           Si  tau(   7) = (   0.1957430   0.3654850   0.2360870  )
         8           Si  tau(   8) = (   0.0898808   0.6530100   0.4304880  )
         9           Si  tau(   9) = (   0.3941870   0.5525270   0.3624190  )
        10           Si  tau(  10) = (   0.8232640   0.6573710   0.3737720  )
        11           Si  tau(  11) = (   0.9622550   0.0631882   0.0934776  )
        12           Si  tau(  12) = (   0.3570190   0.8697790   0.6632090  )
        13           Si  tau(  13) = (   0.7936370   0.0621202   0.7406240  )
        14           Si  tau(  14) = (   0.5843670   0.8626060   0.8211010  )
        15           Si  tau(  15) = (   0.0064067   0.6738110   0.9187580  )
        16           Si  tau(  16) = (   0.7310800   0.2494310   0.1112360  )
        17           Si  tau(  17) = (   0.4096630   0.1813800   0.6032140  )
        18           Si  tau(  18) = (   0.3788590   0.1824460   0.3254710  )
        19           Si  tau(  19) = (   0.4383590   0.0716219   0.7987230  )
        20           Si  tau(  20) = (   0.5055180   0.2876900   0.1454160  )
        21           Si  tau(  21) = (   0.1155480   0.4554220   0.9252770  )
        22           Si  tau(  22) = (   0.2802950   0.5598050   0.5370860  )
        23           Si  tau(  23) = (   0.1742540   0.2829120   0.6418300  )
        24           Si  tau(  24) = (   0.6323490   0.7635820   0.0621035  )
        25           Si  tau(  25) = (   0.7449090   0.5640430   0.7103880  )
        26           Si  tau(  26) = (   0.9874000   0.2560100   0.2491390  )
        27           Si  tau(  27) = (   0.4628820   0.6639130   0.8215240  )
        28           Si  tau(  28) = (   0.8115870   0.1175410   0.2798510  )
        29           Si  tau(  29) = (   0.5841160   0.0476812   0.6426740  )
        30           Si  tau(  30) = (   0.2079130   0.5457380   0.1426930  )
        31           Si  tau(  31) = (   0.8624150   0.2318780   0.9350750  )
        32           Si  tau(  32) = (   0.2166670   0.7468910   0.2823780  )
        33           Si  tau(  33) = (   0.5869900   0.0813748   0.9979510  )
        34           Si  tau(  34) = (   0.9051780   0.8487610   0.2801560  )
        35           Si  tau(  35) = (   0.2786330   0.2306160   0.0994688  )
        36           Si  tau(  36) = (   0.6674570   0.3761230   0.5314380  )
        37           Si  tau(  37) = (   0.7247450   0.5644150   0.0971573  )
        38           Si  tau(  38) = (   0.3219050   0.7943140   0.8883790  )
        39           Si  tau(  39) = (   0.6851880   0.9470490   0.3903440  )
        40           Si  tau(  40) = (   0.5619670   0.5096780   0.2140550  )
        41           Si  tau(  41) = (   0.9715330   0.5479300   0.1084390  )
        42           Si  tau(  42) = (   0.6154380   0.5721600   0.4340270  )
        43           Si  tau(  43) = (   0.4285660   0.7320080   0.1108720  )
        44           Si  tau(  44) = (   0.3154750   0.9659160   0.3311720  )
        45           Si  tau(  45) = (   0.1461040   0.7465280   0.6066220  )
        46           Si  tau(  46) = (   0.8349860   0.4590730   0.9072060  )
        47           Si  tau(  47) = (   0.3825380   0.5306000   0.0021382  )
        48           Si  tau(  48) = (   0.3941660   0.4620320   0.6973680  )
        49           Si  tau(  49) = (   0.0899065   0.9244090   0.1874600  )
        50           Si  tau(  50) = (   0.8283600   0.2108820   0.5531080  )
        51           Si  tau(  51) = (   0.2867340   0.3295990   0.9261330  )
        52           Si  tau(  52) = (   0.7948570   0.9305950   0.0624684  )
        53           Si  tau(  53) = (   0.0322389   0.0601209   0.7407500  )
        54           Si  tau(  54) = (   0.5476600   0.9682850   0.1602680  )
        55           Si  tau(  55) = (   0.1650080   0.0456438   0.5673450  )
        56           Si  tau(  56) = (   0.8708510   0.4106860   0.3859740  )
        57           Si  tau(  57) = (   0.8684980   0.9412050   0.5298420  )
        58           Si  tau(  58) = (   0.4832600   0.8566530   0.3312670  )
        59           Si  tau(  59) = (   0.0022712   0.1121060   0.4123320  )
        60           Si  tau(  60) = (   0.6164170   0.2529300   0.3352460  )
        61           Si  tau(  61) = (   0.4960060   0.3108480   0.9184600  )
        62           Si  tau(  62) = (   0.0074798   0.8360450   0.7548890  )
        63           Si  tau(  63) = (   0.5952180   0.3711370   0.7476780  )
        64           Si  tau(  64) = (   0.0475435   0.4352130   0.5152600  )

     number of k points=     1  Fermi-Dirac smearing, width (Ry)=  0.0100
                       cart. coord. in units 2pi/alat
        k(    1) = (   0.0000000   0.0000000   0.0000000), wk =   2.0000000

     Dense  grid:    92154 G-vectors     FFT dimensions: (  72,  72,  72)

     Estimated max dynamical RAM per process >     147.81 MB

     Estimated total dynamical RAM >     568.75 MB

     Initial potential from superposition of free atoms

     starting charge     255.9608, renormalised to     256.0000
     Starting wfcs are  256 randomized atomic wfcs

     total cpu time spent up to now is        4.5 secs

     Self-consistent Calculation

     iteration #  1     ecut=    30.00 Ry     beta= 0.50
     Davidson diagonalization with overlap
     ethr =  1.00E-02,  avg # of iterations =  3.0

     Threshold (ethr) on eigenvalues was too large:
     Diagonalizing with lowered threshold

     Davidson diagonalization with overlap
     ethr =  5.36E-04,  avg # of iterations =  4.0

     total cpu time spent up to now is        4.7 secs

     total energy              =    -500.44012999 Ry
     estimated scf accuracy    <       1.74085442 Ry

     iteration #  2     ecut=    30.00 Ry     beta= 0.50
     Davidson diagonalization with overlap
     ethr =  6.80E-04,  avg # of iterations =  5.0

     total cpu time spent up to now is        4.8 secs

     total energy              =    -499.58066948 Ry
     estimated scf accuracy    <      11.66137998 Ry

     iteration #  3     ecut=    30.00 Ry     beta= 0.50
     Davidson diagonalization with overlap
     ethr =  6.80E-04,  avg # of iterations =  5.0

     total cpu time spent up to now is        4.9 secs

     total energy              =    -500.62642492 Ry
     estimated scf accuracy    <       2.56314587 Ry

     iteration #  4     ecut=    30.00 Ry     beta= 0.50
     Davidson diagonalization with overlap
     ethr =  6.80E-04,  avg # of iterations =  2.0

     total cpu time spent up to now is        5.0 secs

     total energy              =    -500.76924517 Ry
     estimated scf accuracy    <       1.06548358 Ry

     iteration #  5     ecut=    30.00 Ry     beta= 0.50
     Davidson diagonalization with overlap
     ethr =  4.16E-04,  avg # of iterations =  2.0

     total cpu time spent up to now is        5.0 secs

     total energy              =    -500.83404921 Ry
     estimated scf accuracy    <       0.64337255 Ry

     iteration #  6     ecut=    30.00 Ry     beta= 0.50
     Davidson diagonalization with overlap
     ethr =  2.51E-04,  avg # of iterations =  2.0

     total cpu time spent up to now is        5.1 secs

     total energy              =    -500.89498476 Ry
     estimated scf accuracy    <       0.05083813 Ry

     iteration #  7     ecut=    30.00 Ry     beta= 0.50
     Davidson diagonalization with overlap
     ethr =  1.99E-05,  avg # of iterations = 20.0

     total cpu time spent up to now is        5.3 secs

     total energy              =    -500.90010236 Ry
     estimated scf accuracy    <       0.04572969 Ry

     iteration #  8     ecut=    30.00 Ry     beta= 0.50
     Davidson diagonalization with overlap
     ethr =  1.79E-05,  avg # of iterations =  2.0

     total cpu time spent up to now is        5.4 secs

     total energy              =    -500.90460610 Ry
     estimated scf accuracy    <       0.01916590 Ry

     iteration #  9     ecut=    30.00 Ry     beta= 0.50
     Davidson diagonalization with overlap
     ethr =  7.49E-06,  avg # of iterations =  2.0

     total cpu time spent up to now is        5.5 secs

     total energy              =    -500.90607859 Ry
     estimated scf accuracy    <       0.00336080 Ry

     iteration # 10     ecut=    30.00 Ry     beta= 0.50
     Davidson diagonalization with overlap
     ethr =  1.31E-06,  avg # of iterations =  9.0

     total cpu time spent up to now is        5.6 secs

     total energy              =    -500.90638703 Ry
     estimated scf accuracy    <       0.00234847 Ry

     iteration # 11     ecut=    30.00 Ry     beta= 0.50
     Davidson diagonalization with overlap
     ethr =  9.17E-07,  avg # of iterations =  2.0

     total cpu time spent up to now is        5.7 secs

     total energy              =    -500.90660007 Ry
     estimated scf accuracy    <       0.00091733 Ry

     iteration # 12     ecut=    30.00 Ry     beta= 0.50
     Davidson diagonalization with overlap
     ethr =  3.58E-07,  avg # of iterations =  2.0

     total cpu time spent up to now is        5.8 secs

     total energy              =    -500.90667814 Ry
     estimated scf accuracy    <       0.00028961 Ry

     iteration # 13     ecut=    30.00 Ry     beta= 0.50
     Davidson diagonalization with overlap
     ethr =  1.13E-07,  avg # of iterations =  2.0

     total cpu time spent up to now is        5.9 secs

     total energy              =    -500.90670128 Ry
     estimated scf accuracy    <       0.00023938 Ry

     iteration # 14     ecut=    30.00 Ry     beta= 0.50
     Davidson diagonalization with overlap
     ethr =  9.35E-08,  avg # of iterations =  1.0

     total cpu time spent up to now is        5.9 secs

     total energy              =    -500.90671557 Ry
     estimated scf accuracy    <       0.00002720 Ry

     iteration # 15     ecut=    30.00 Ry     beta= 0.50
     Davidson diagonalization with overlap
     ethr =  1.06E-08,  avg # of iterations =  5.0

     total cpu time spent up to now is        6.0 secs

     total energy              =    -500.90671553 Ry
     estimated scf accuracy    <       0.00010975 Ry

     iteration # 16     ecut=    30.00 Ry     beta= 0.50
     Davidson diagonalization with overlap
     ethr =  1.06E-08,  avg # of iterations =  3.0

     total cpu time spent up to now is        6.1 secs

     total energy              =    -500.90672327 Ry
     estimated scf accuracy    <       0.00001021 Ry

     iteration # 17     ecut=    30.00 Ry     beta= 0.50
     Davidson diagonalization with overlap
     ethr =  3.99E-09,  avg # of iterations =  2.0

     total cpu time spent up to now is        6.2 secs

     total energy              =    -500.90672399 Ry
     estimated scf accuracy    <       0.00000651 Ry

     iteration # 18     ecut=    30.00 Ry     beta= 0.50
     Davidson diagonalization with overlap
     ethr =  2.54E-09,  avg # of iterations =  2.0

     total cpu time spent up to now is        6.3 secs

     total energy              =    -500.90672458 Ry
     estimated scf accuracy    <       0.00000262 Ry

     iteration # 19     ecut=    30.00 Ry     beta= 0.50
     Davidson diagonalization with overlap
     ethr =  1.03E-09,  avg # of iterations =  2.0

     total cpu time spent up to now is        6.4 secs

     End of self-consistent calculation

          k = 0.0000 0.0000 0.0000 ( 11492 PWs)   bands (ev):

    -5.8808  -5.1568  -5.0131  -4.7988  -4.7682  -4.5838  -4.1869  -4.1078
    -4.0838  -3.8223  -3.7965  -3.6997  -3.6044  -3.3384  -3.1909  -3.1089
    -3.0513  -2.9613  -2.8034  -2.6798  -2.4564  -2.3452  -2.2012  -2.1011
    -1.8974  -1.7011  -1.4468  -1.3613  -1.1816  -0.9907  -0.9623  -0.9190
    -0.8077  -0.7645  -0.5428  -0.4548  -0.3952  -0.3629  -0.2400  -0.1075
     0.0225   0.0801   0.1984   0.2950   0.4095   0.4483   0.5597   0.6044
     0.7395   0.7772   0.9216   1.0085   1.0720   1.1116   1.4188   1.4525
     1.5119   1.6464   1.7715   1.8015   1.8852   2.0107   2.1070   2.1876
     2.2939   2.4005   2.4051   2.4478   2.4756   2.6245   2.8048   2.8795
     3.0421   3.0575   3.0919   3.1619   3.2875   3.3720   3.4699   3.5468
     3.6182   3.7935   3.8742   3.9859   4.1646   4.2113   4.2439   4.2882
     4.4455   4.5394   4.5948   4.6011   4.6639   4.8004   4.8308   4.8795
     4.9838   5.0143   5.0304   5.1154   5.1187   5.2444   5.3165   5.4427
     5.4915   5.5230   5.5704   5.6322   5.6958   5.7441   5.8321   5.8448
     5.9481   5.9584   6.0220   6.1325   6.2388   6.2429   6.2796   6.3557
     6.4434   6.4682   6.5594   6.5771   6.6644   6.7477   6.7508   6.7829
     6.8530   6.9211   6.9923   7.0095   7.1186   7.1488   7.1816   7.2844
     7.3698   7.4405   7.5293   7.6039   7.6176   7.6972   7.8029   7.8529
     7.9068   7.9506   7.9675   8.0705   8.1169   8.1514   8.1764   8.2640
     8.3292   8.3444

     the Fermi energy is     6.8430 ev

!    total energy              =    -500.90672430 Ry
     estimated scf accuracy    <       0.00000071 Ry
     smearing contrib. (-TS)   =      -0.15748348 Ry
     internal energy E=F+TS    =    -500.74924083 Ry

     The total energy is F=E-TS. E is the sum of the following terms:
     one-electron contribution =     157.37898075 Ry
     hartree contribution      =      36.71655864 Ry
     xc contribution           =    -151.39202593 Ry
     ewald contribution        =    -543.45275427 Ry

     convergence has been achieved in  19 iterations

     Forces acting on atoms (cartesian axes, Ry/au):

     atom    1 type  1   force =    -0.01078785    0.02550841    0.02717307
     atom    2 type  1   force =     0.02707474   -0.03858987   -0.01864960
     atom    3 type  1   force =     0.01432082    0.00628559    0.00691760
     atom    4 type  1   force =    -0.00903502    0.00582909    0.00472193
     atom    5 type  1   force =     0.04012331    0.01199158    0.04825885
     atom    6 type  1   force =    -0.01082222   -0.01557458   -0.00419946
     atom    7 type  1   force =    -0.04580650   -0.04090072    0.09222813
     atom    8 type  1   force =    -0.05859222   -0.03533420   -0.02387471
     atom    9 type  1   force =     0.03014612    0.00642535   -0.04676130
     atom   10 type  1   force =     0.01085350   -0.01806598    0.01368968
     atom   11 type  1   force =    -0.01413676    0.08174039   -0.03837222
     atom   12 type  1   force =    -0.03746602    0.00940776    0.01378759
     atom   13 type  1   force =     0.01153958    0.01683960   -0.00655925
     atom   14 type  1   force =     0.00098853    0.01083260    0.01966220
     atom   15 type  1   force =     0.00911559   -0.01609101    0.00771909
     atom   16 type  1   force =    -0.02239038   -0.01532795    0.00287918
     atom   17 type  1   force =    -0.02267933    0.02943203   -0.01285737
     atom   18 type  1   force =     0.03313982   -0.04897107   -0.02327086
     atom   19 type  1   force =    -0.02351963   -0.01142888    0.04662259
     atom   20 type  1   force =     0.01034286    0.03080591   -0.02278001
     atom   21 type  1   force =    -0.05211551    0.05232319    0.00556094
     atom   22 type  1   force =    -0.04062669    0.00615103    0.05410945
     atom   23 type  1   force =     0.02327749    0.00781620   -0.02667159
     atom   24 type  1   force =     0.04760217    0.02650265   -0.04030486
     atom   25 type  1   force =    -0.01872779   -0.04974066    0.03882282
     atom   26 type  1   force =     0.03344744    0.03544743   -0.01749189
     atom   27 type  1   force =     0.03631173   -0.07726335   -0.02696151
     atom   28 type  1   force =    -0.07400425   -0.02473093   -0.00101171
     atom   29 type  1   force =     0.05214002    0.00695881   -0.02692375
     atom   30 type  1   force =    -0.00642133    0.08452957    0.00421489
     atom   31 type  1   force =    -0.02282425   -0.01674655   -0.01459761
     atom   32 type  1   force =     0.02528876   -0.01405474   -0.05298538
     atom   33 type  1   force =     0.03320431    0.05418876   -0.07695233
     atom   34 type  1   force =    -0.04200444   -0.00535365    0.00430246
     atom   35 type  1   force =     0.03988068   -0.10689663    0.05858006
     atom   36 type  1   force =     0.01426911   -0.01198720   -0.00446118
     atom   37 type  1   force =     0.06702904    0.01369670   -0.03539562
     atom   38 type  1   force =    -0.06121004    0.05090489    0.02802354
     atom   39 type  1   force =     0.02275193    0.03393974   -0.00973296
     atom   40 type  1   force =    -0.05471412   -0.04312298    0.01873511
     atom   41 type  1   force =    -0.01317819   -0.00356491   -0.04366517
     atom   42 type  1   force =    -0.00495565    0.00932013   -0.00279220
     atom   43 type  1   force =    -0.03503694    0.00555026    0.02263924
     atom   44 type  1   force =    -0.11448390    0.07294541    0.01094173
     atom   45 type  1   force =     0.05231754    0.03325285    0.04318626
     atom   46 type  1   force =     0.00071237    0.03512727    0.00716082
     atom   47 type  1   force =     0.02559771   -0.00975093   -0.00245629
     atom   48 type  1   force =    -0.00501992    0.00164509    0.02646867
     atom   49 type  1   force =     0.06722368   -0.04950452    0.03244368
     atom   50 type  1   force =     0.00077418   -0.01576536   -0.00486536
     atom   51 type  1   force =     0.00220814    0.04181050   -0.11239729
     atom   52 type  1   force =    -0.04864104   -0.03013793    0.02430443
     atom   53 type  1   force =    -0.02947339   -0.00587651    0.00336164
     atom   54 type  1   force =     0.00927560   -0.03209879    0.04689493
     atom   55 type  1   force =     0.03396169    0.02087509   -0.03807743
     atom   56 type  1   force =    -0.00321381    0.01500868   -0.00189275
     atom   57 type  1   force =     0.00362883    0.04052770   -0.01003002
     atom   58 type  1   force =     0.07910593   -0.08368200    0.01806779
     atom   59 type  1   force =     0.00217580   -0.01922444    0.05049693
     atom   60 type  1   force =     0.00146191   -0.00964733    0.02174678
     atom   61 type  1   force =     0.00716800   -0.02354262    0.04545113
     atom   62 type  1   force =    -0.04018678   -0.06073424   -0.02911911
     atom   63 type  1   force =     0.03358289    0.03850907   -0.06677657
     atom   64 type  1   force =     0.02003216    0.01158120   -0.00628589

     Total force =     0.503872     Total SCF correction =     0.001541


     Computing stress (Cartesian axis) and pressure

          total   stress  (Ry/bohr**3)                   (kbar)     P=        1.17
   0.00000824  -0.00005627  -0.00016354            1.21       -8.28      -24.06
  -0.00005627  -0.00008090  -0.00007992           -8.28      -11.90      -11.76
  -0.00016354  -0.00007992   0.00009650          -24.06      -11.76       14.20

 
     init_run     :      0.91s CPU      4.42s WALL (       1 calls)
     electrons    :      1.76s CPU      1.88s WALL (       1 calls)
     forces       :      0.03s CPU      0.03s WALL (       1 calls)
     stress       :      0.14s CPU      0.14s WALL (       1 calls)

     Called by init_run:
     wfcinit      :      0.41s CPU      3.75s WALL (       1 calls)
                                        3.75s GPU  (       1 calls)
     potinit      :      0.03s CPU      0.13s WALL (       1 calls)
     hinit0       :      0.45s CPU      0.48s WALL (       1 calls)

     Called by electrons:
     c_bands      :      1.15s CPU      1.21s WALL (      20 calls)
     sum_band     :      0.30s CPU      0.35s WALL (      20 calls)
     v_of_rho     :      0.12s CPU      0.23s WALL (      20 calls)
     mix_rho      :      0.15s CPU      0.16s WALL (      20 calls)

     Called by c_bands:
     init_us_2    :      0.05s CPU      0.05s WALL (      41 calls)
     init_us_2:gp :      0.05s CPU      0.05s WALL (      41 calls)
     regterg      :      1.01s CPU      1.07s WALL (      20 calls)

     Called by *egterg:
     rdiaghg      :      0.44s CPU      1.11s WALL (      96 calls)
                                        1.09s GPU  (      96 calls)
     h_psi        :      0.82s CPU      3.52s WALL (      98 calls)
                                        3.52s GPU  (      98 calls)
     g_psi        :      0.00s CPU      0.00s WALL (      77 calls)
                                        0.00s GPU  (      77 calls)

     Called by h_psi:
     h_psi:calbec :      0.40s CPU      3.02s WALL (      98 calls)
                                        3.02s GPU  (      98 calls)
     vloc_psi     :      0.37s CPU      0.43s WALL (      98 calls)
                                        0.43s GPU  (      98 calls)
     add_vuspsi   :      0.03s CPU      0.06s WALL (      98 calls)
                                        0.06s GPU  (      98 calls)

     General routines
     calbec       :      0.40s CPU      3.03s WALL (     103 calls)
     fft          :      0.54s CPU      0.67s WALL (     167 calls)
                                        0.12s GPU  (     106 calls)
     ffts         :      0.03s CPU      0.03s WALL (      20 calls)
     fftw         :      0.44s CPU      0.58s WALL (    2122 calls)
                                        0.51s GPU  (    2122 calls)
 
     Parallel routines
 
     PWSCF        :      2.88s CPU      6.56s WALL

 
   This run was terminated on:  12: 5:40  11May2023            

=------------------------------------------------------------------------------=
   JOB DONE.
=------------------------------------------------------------------------------=
