0.00842409611945497 -0.002663575241693609 -0.005290424178779241 -0.002663575241693609 -0.021540895810194336 0.002433117680278547 -0.005290424178779241 0.002433117680278547 0.006666742443963218
0.008283618004329453 -0.0026048131543208444 -0.008614154745801256 -0.0026048131543208444 -0.01297632157561385 -0.0008134876470667142 -0.008614154745801256 -0.0008134876470667142 0.005467628598512735
0.006199400217826698 -0.001301029340737623 -0.009833468058786128 -0.001301029340737623 -0.0021604248685643096 -0.0013983540479487648 -0.009833468058786128 -0.0013983540479487648 0.006942189728523055
0.004673422261365209 -0.0018767141654676793 -0.007222227801158887 -0.0018767141654676793 0.0033375029312500072 -0.001428653249250347 -0.007222227801158887 -0.001428653249250347 0.006737440580333577
0.0046844401527476025 -0.0016214663484422317 -0.00339993764908357 -0.0016214663484422317 0.0038975790765216727 -0.0018831412687740753 -0.00339993764908357 -0.0018831412687740753 0.0013294922268088062
0.0068724097497678965 -0.0016435021312070186 -0.0003424727904693955 -0.0016435021312070186 -0.00013129653897352159 2.66265708407841e-05 -0.0003424727904693955 2.66265708407841e-05 -0.007774040527893758
0.012833088987642736 -0.0022999848260746264 0.0006105748141076354 -0.0022999848260746264 -0.002142061716260321 0.0016407476583614202 0.0006105748141076354 0.0016407476583614202 -0.012870733449865914
0.015215707999085315 -0.0029867667222438165 -1.3772364227991774e-05 -0.0029867667222438165 -0.001150451491844913 0.0022678493095426456 -1.3772364227991774e-05 0.0022678493095426456 -0.011940639785668868
0.015365367690362824 -0.004090392175713557 0.00033329121431740095 -0.004090392175713557 -0.0028104804601255216 0.003687320982640998 0.00033329121431740095 0.003687320982640998 -0.003023493026851794
0.017128230311545773 -0.004346558150354204 -0.0012046227911416806 -0.004346558150354204 -0.0056136156593294476 0.0035376612913634873 -0.0012046227911416806 0.0035376612913634873 0.005456610707130341
0.018700116148767234 -0.003040938021540584 -0.0026892836549191937 -0.003040938021540584 -0.0033577023987843946 0.002201741961248285 -0.0026892836549191937 0.002201741961248285 0.006227863103897882
0.017958244795686074 -0.0025882863172472545 -0.004761565392424357 -0.0025882863172472545 -0.0018372333880141028 -0.0012330856772128636 -0.004761565392424357 -0.0012330856772128636 0.0023486471796801975
0.01594380698793848 -0.002098908308345947 -0.007754759217974569 -0.002098908308345947 -0.0035927507482754546 -0.00333291214317401 -0.007754759217974569 -0.00333291214317401 -0.0027636544217503494
0.013585978232106288 0.0004462246009869335 -0.007278235415686054 0.0004462246009869335 -0.0033806563391643816 4.2235250299174776e-05 -0.007278235415686054 4.2235250299174776e-05 -0.008273518270562259
0.010478932862271343 0.0017215455284989717 -0.0005453856234284743 0.0017215455284989717 -0.004116100588939142 0.003675384933643405 -0.0005453856234284743 0.003675384933643405 -0.009704925992658204
0.005014058736604206 0.003154789565825316 0.009271555598284064 0.003154789565825316 -0.0017977526105605263 0.0052151352543328856 0.009271555598284064 0.0052151352543328856 -0.008632517898105244
-0.0007565618749243482 0.005166472900727315 0.015015549638971833 0.005166472900727315 0.007427895106963564 0.007337915660674018 0.015015549638971833 0.007337915660674018 -0.00886022098667471
-0.0031667256148229087 0.005384076255529585 0.015284569820225273 0.005384076255529585 0.015276306401688476 0.005896408204810879 0.015284569820225273 0.005896408204810879 -0.006372932007099394
-0.004122527692245538 0.002959221993787833 0.013892642875582905 0.002959221993787833 0.016295461354559868 0.0031648892995925102 0.013892642875582905 0.0031648892995925102 -0.0038838067122936807
-0.00537581283699279 0.0012514488295168526 0.009594747078834271 0.0012514488295168526 0.011284157090801262 0.00236150138629299 0.009594747078834271 0.00236150138629299 -0.004174862676311906
-0.006986261294052627 -0.0006170019174140315 0.0017711260397197423 -0.0006170019174140315 0.008489285310134131 0.0025341150179504866 0.0017711260397197423 0.0025341150179504866 -0.0040095943055760055
-0.008833594415833925 -0.0013441827486519974 -0.0031722345605141055 -0.0013441827486519974 0.000827260011294706 0.0018326425999381055 -0.0031722345605141055 0.0018326425999381055 -0.007363624073899603
-0.008701379719245204 0.00118901411168329 -0.0020254556991299902 0.00118901411168329 -0.012159161298086339 0.00017812257734869363 -0.0020254556991299902 0.00017812257734869363 -0.009704007835043004
-0.01142004441785078 0.002575432110634462 0.0039958219413480135 0.002575432110634462 -0.01811524974788518 -0.002125534879186731 0.0039958219413480135 -0.002125534879186731 -0.010160332169797132
-0.020171922805931955 0.0007914518643019274 0.006474847502386533 0.0007914518643019274 -0.018879156883731124 -0.004732184348737974 0.006474847502386533 -0.004732184348737974 -0.01652775523120533
-0.021293911411705682 -0.00020107651772867995 0.0031079635274501444 -0.00020107651772867995 -0.012357483342969421 -0.0052426799827888695 0.0031079635274501444 -0.0052426799827888695 -0.028450950022185412
-0.015405766625431598 -0.00029748306732462236 -0.0013184743354264126 -0.00029748306732462236 0.001500269543235904 -0.005227071303330479 -0.0013184743354264126 -0.005227071303330479 -0.030648101195357696
-0.008644453947102837 -0.00020107651772867995 -0.0016508473921286143 -0.00020107651772867995 0.0072213096435436875 -0.007097358365491761 -0.0016508473921286143 -0.007097358365491761 -0.02087982232725073
-0.012682511138750028 0.002266931151927446 -0.0011476970189993147 0.002266931151927446 0.002063100161353168 -0.009072315395785782 -0.0011476970189993147 -0.009072315395785782 -0.018476085690658565
-0.013833880788210138 0.0051618821126513175 0.0021163533030347363 0.0051618821126513175 0.00025524781702544757 -0.006735604265103178 0.0021163533030347363 -0.006735604265103178 -0.016335860289628645
-0.014204816464750716 0.004266678437831852 -0.0011467788613841153 0.004266678437831852 0.0011844233236072926 -0.004306159215285429 -0.0011467788613841153 -0.004306159215285429 -0.01843476859797459
-0.020238030154226316 0.003735983336246569 -0.009021816726949811 0.003735983336246569 -0.00045081538906293077 -0.00574307588307257 -0.009021816726949811 -0.00574307588307257 -0.027783449435935408
-0.02082932365841476 0.00467158594613481 -0.008524175299511709 0.00467158594613481 -0.00012119680520632764 -0.005672377746702212 -0.008524175299511709 -0.005672377746702212 -0.028426159766575025
-0.01610540272821358 0.0021282893520323293 -0.003870034348065689 0.0021282893520323293 0.001583821886219054 -0.0006922908418603866 -0.003870034348065689 -0.0006922908418603866 -0.017319207095507255
-0.011915849530058484 -0.0006583190100980068 0.0005215135254332886 -0.0006583190100980068 -0.0027085649648383825 0.0033898379153163754 0.0005215135254332886 0.0033898379153163754 -0.010812224076588743
-0.009773787813798163 -0.0008419505331378973 0.0027104012800687814 -0.0008419505331378973 -0.008683016566941214 0.0012128862096784758 0.0027104012800687814 0.0012128862096784758 -0.008786768377458752
-0.009555266301380694 0.0011394336004625196 0.002874751493189483 0.0011394336004625196 -0.013034165505371417 -0.001414880885022355 0.002874751493189483 -0.001414880885022355 -0.000892449201973867
-0.008336871146011022 0.0024055729518225634 0.0035780602264322632 0.0024055729518225634 -0.011866269018837715 -0.0017894891920237316 0.0035780602264322632 -0.0017894891920237316 0.004014185093652003
-0.002548805539793678 -0.000941111555579438 0.0019299673071492473 -0.000941111555579438 -0.0068347652875447185 -0.0008107331742211158 0.0019299673071492473 -0.0008107331742211158 0.0003764446222317752
0.0016756376477389994 -0.0038287172553817133 0.0012037046335264812 -0.0038287172553817133 -0.0019786296607548185 -0.0005169227373572913 0.0012037046335264812 -0.0005169227373572913 -0.0050177313670650035
0.005711858524155789 -0.0036046867972730472 0.0037616917494721538 -0.0036046867972730472 0.009764606237646169 -0.0006509737491764112 0.0037616917494721538 -0.0006509737491764112 -0.0034715539430691267
0.007574800325395477 -0.0033117945180244223 0.005967106341181237 -0.0033117945180244223 0.013702584249236618 0.002142061716260321 0.005967106341181237 0.002142061716260321 0.000170777316427098
0.006629097981740042 -0.003234669278347668 0.003974704316198427 -0.003234669278347668 0.005484155435586325 0.004292386851057437 0.003974704316198427 0.004292386851057437 0.0019823022912156163
0.00393522353874485 -0.004472345743636529 0.0015379140054590816 -0.004472345743636529 -0.0048974527194738755 0.0037607735918569543 0.0015379140054590816 0.0037607735918569543 -0.001930885464764447
0.0021457343467211187 -0.006278361772733851 -0.00024973887133425085 -0.006278361772733851 -0.007681306608758613 0.0013092927592744182 -0.00024973887133425085 0.0013092927592744182 -0.0016205481908270322
0.0029647309394790294 -0.005199526574874495 -0.00257910474109526 -0.005199526574874495 -0.006603389568514457 0.0018262154966317095 -0.00257910474109526 0.0018262154966317095 0.005139846329886531
0.00505721214451858 -0.0016196300332118327 -0.004992941111454618 -0.0016196300332118327 -0.005338168374769613 0.0022182687983218754 -0.004992941111454618 0.0022182687983218754 0.0047652380228851545
0.009339499261808822 0.0004994777426685017 -0.002372519277675383 0.0004994777426685017 -0.0019198675733820537 0.0015498500544566746 -0.002372519277675383 0.0015498500544566746 -0.001786734719178133
0.012487861724327741 0.00046091512283012476 -0.0006601553253284058 0.00046091512283012476 -0.002768245209826347 0.004317177106667822 -0.0006601553253284058 0.004317177106667822 -0.013855916570974926
0.010227357675706693 0.0018620236436244879 0.001177078062685697 0.0018620236436244879 -0.005364794945610396 0.006985343136437429 0.001177078062685697 0.006985343136437429 -0.019709171367871432
0.004936015339312252 0.006562990633445681 0.003872788820911287 0.006562990633445681 -0.004385120770192581 0.005155455009344921 0.003872788820911287 0.005155455009344921 -0.018524748044264138
0.005429065978674358 0.008215674340804694 0.005237171037097673 0.008215674340804694 -0.0018197883933253132 0.002024537541514791 0.005237171037097673 0.002024537541514791 -0.017456930737787174
0.002874751493189483 0.006334369387261018 0.006760394520713563 0.006334369387261018 -0.0010292546866385852 0.0021108443573435395 0.006760394520713563 0.0021108443573435395 -0.0160741853692968
0.0035385794489786867 0.004521926254857299 0.0072589541057668655 0.004521926254857299 -0.0035394976065938866 0.00120554094875688 0.0072589541057668655 0.00120554094875688 -0.013958750223877263
0.009580056556991078 0.0031492806201341194 0.0064004767355553775 0.0031492806201341194 -0.012352892554893424 -0.0033540297683235967 0.0064004767355553775 -0.0033540297683235967 -0.015766602568204984
0.010423843405359375 0.0027856902045151366 0.0069311718371406605 0.0027856902045151366 -0.018566983294563313 -0.004745038555350766 0.0069311718371406605 -0.004745038555350766 -0.015819855709886553
0.00560994302886865 0.0001882223111158876 0.008952954905809853 0.0001882223111158876 -0.014557388988987308 4.958051122077039e-05 0.008952954905809853 4.958051122077039e-05 -0.009984045907678839
0.0002681020236382399 -0.002717746540990377 0.009508440263005522 -0.002717746540990377 -0.010792024609054356 0.003978376946659225 0.009508440263005522 0.003978376946659225 -0.006683269281036809
-0.0008401142179074983 -0.0035569426012826756 0.005878963210122089 -0.0035569426012826756 -0.014181862524370733 0.0037837275322369405 0.005878963210122089 0.0037837275322369405 0.0006013932379556408
-0.0025690050073280657 -0.005800001655214937 0.003102454581758947 -0.005800001655214937 -0.014833754431162341 -4.498972314477313e-05 0.003102454581758947 -4.498972314477313e-05 0.006844865021311912
-0.008797786268841146 -0.010094224821502771 0.0029381043686382453 -0.010094224821502771 -0.004413583656263764 -0.002943613314329442 0.0029381043686382453 -0.002943613314329442 0.011682637495797824
-0.013100272853665778 -0.008300144841403043 0.004211588980919885 -0.008300144841403043 0.006188382326444304 -0.003067564592381368 0.004211588980919885 -0.003067564592381368 0.014023021256941227
-0.0064877017089993265 -0.0031345900982909284 0.003962768267200834 -0.0031345900982909284 0.011680801180567423 -0.0015011877008511037 0.003962768267200834 -0.0015011877008511037 0.008451640847910953
0.0006289379664116244 -0.003355866083553996 0.0026204218337792353 -0.003355866083553996 0.012659557198370041 -0.000750134771617952 0.0026204218337792353 -0.000750134771617952 0.0029270864772558518
0.0026571481383872134 -0.006428939621626561 0.004039893506877588 -0.006428939621626561 0.011413617314544384 -0.00016251389789030294 0.004039893506877588 -0.00016251389789030294 0.003518379981444299
0.0007381987226203591 -0.006739276895563975 0.006821911080931926 -0.006739276895563975 0.006839356075620716 0.0007859429186107306 0.006821911080931926 0.0007859429186107306 0.005183917895416104
0.001063226518400965 -0.005396012304527178 0.008359825086391008 -0.005396012304527178 0.0030703190652269664 -0.00015241416412310898 0.008359825086391008 -0.00015241416412310898 0.004776255914267548
0.005466710440897536 -0.0017417449960333599 0.005846827693590109 -0.0017417449960333599 0.003963686424816033 -0.0008630681582874846 0.005846827693590109 -0.0008630681582874846 0.008737187866237983
0.004503563102553311 0.004543043880006887 0.002384455326672976 0.004543043880006887 0.0029463677871750405 -0.0004526517042933297 0.002384455326672976 -0.0004526517042933297 0.010033626418899608
0.0015314869021526853 0.009706762307888602 0.0011825870083768937 0.009706762307888602 -0.0004572424923693269 -0.0006693369014804003 0.0011825870083768937 -0.0006693369014804003 0.009107205385163361
0.0054006030926031755 0.010003327217598027 -0.0009851831211090116 0.010003327217598027 0.0016655379139718053 0.0005215135254332886 -0.0009851831211090116 0.0005215135254332886 0.009861930944857312
0.008220265128880692 0.0063628322733322 -0.0038553438262224978 0.0063628322733322 0.008309326417555038 0.004497135999246915 -0.0038553438262224978 0.004497135999246915 0.009482731849779937
0.006215927054900289 0.0028848512269566773 -0.0040077579903456065 0.0028848512269566773 0.013510689307659932 0.006049740526549187 -0.0040077579903456065 0.006049740526549187 0.007683142923989012
0.007785058419276151 0.0004223525029917478 -0.0019400670409164414 0.0004223525029917478 0.014142381746917154 0.005194935786798497 -0.0019400670409164414 0.005194935786798497 0.009479977376934338
0.011440243885385167 0.0004049075083029582 -0.0005417129929676765 0.0004049075083029582 0.012519997240859724 0.0028058896720495243 -0.0005417129929676765 0.0028058896720495243 0.012343710978741427
0.013741146869074993 0.0005545671995804689 -0.0013827453684903742 0.0005545671995804689 0.013685139254547826 0.0007299353040835641 -0.0013827453684903742 0.0007299353040835641 0.012793608210189161
0.01487323520861592 -0.00048478722082531054 -0.002871997020343885 -0.00048478722082531054 0.014861299159618325 0.002431281365048148 -0.002871997020343885 0.002431281365048148 0.010678173064769623
0.0175818001734543 -0.0006941271570907855 -0.002374355592905782 -0.0006941271570907855 0.014159826741605944 0.006443630143469751 -0.002374355592905782 0.006443630143469751 0.009502013159699126
0.019952483135899285 -0.0004985595850533022 -0.0016802284358149967 -0.0004985595850533022 0.01621007269634632 0.0076592708259938256 -0.0016802284358149967 0.0076592708259938256 0.012711892182436409
0.017277890002823284 -0.001666456071587005 -0.0013900906294119699 -0.001666456071587005 0.0144003840367882 0.005065475563055376 -0.0013900906294119699 0.005065475563055376 0.013090173119898584
0.012532851447472517 -0.0025589052735608716 -0.00043520670960454016 -0.0025589052735608716 0.009197184831452907 0.001954757562759633 -0.00043520670960454016 0.001954757562759633 0.014523417157224928
0.008221183286495891 0.0005297769439700837 0.0001827133654246909 0.0005297769439700837 0.010642364917776845 0.0009025489357410611 0.0001827133654246909 0.0009025489357410611 0.01371543845584941
0.0027471275846767595 0.0034311550080003512 -0.0007345260921595613 0.0034311550080003512 0.01424796987266509 0.0013001111831224235 -0.0007345260921595613 0.0013001111831224235 0.008997026471339428
0.0002451480832582536 0.001965775454142026 -0.0023817008538273778 0.001965775454142026 0.010848032223581522 -0.00032961858385660315 -0.0023817008538273778 -0.00032961858385660315 0.0011715691169945004
-0.0027967080958975297 0.0030097206626238026 -0.004358494199351797 0.0030097206626238026 0.002968403569939827 -0.005788065606217344 -0.004358494199351797 -0.005788065606217344 -0.007189174127011707
-0.003791072793158536 0.006259998620429862 -0.0055484264686502865 0.006259998620429862 -0.001583821886219054 -0.010773661456750365 -0.0055484264686502865 -0.010773661456750365 -0.007429731422193963
-0.00019097678396148596 0.005946906873646849 -0.00544283834290235 0.005946906873646849 0.0016829829086605949 -0.011614693832273065 -0.00544283834290235 -0.011614693832273065 -0.005828464541286119
0.0065565635301392845 0.002968403569939827 -0.0035349068185178893 0.002968403569939827 0.009174230891072922 -0.008943773329657859 -0.0035349068185178893 -0.008943773329657859 -0.006878836853074292
0.011801079828158551 0.0007850247609955312 -0.0009870194363394106 0.0007850247609955312 0.014409565612940194 -0.005447429130978347 -0.0009870194363394106 -0.005447429130978347 -0.005787147448602144
0.013834798945825337 0.00197587518790922 -0.00043704302483493903 0.00197587518790922 0.01133465575963723 -0.005187590525876902 -0.00043704302483493903 -0.005187590525876902 -0.0030602193314597727
0.014634514228664061 0.003642331259496225 -0.0008116513318363153 0.003642331259496225 0.005261961292708057 -0.006401394893170578 -0.0008116513318363153 -0.006401394893170578 -0.001766535251643745
0.01684911039652514 0.0023670103319841864 0.00029197412163342563 0.0023670103319841864 0.008321262466552631 -0.004652304636215622 0.00029197412163342563 -0.004652304636215622 -0.00344951816030434
0.017122721365854576 0.0020217830686691924 0.0006096566564924359 0.0020217830686691924 0.01214355261862795 -0.0018831412687740753 0.0006096566564924359 -0.0018831412687740753 -0.005484155435586325
0.01329675858331846 0.004182207937233503 0.00016985915881189857 0.004182207937233503 0.007097358365491761 -0.0004838690632101111 0.00016985915881189857 -0.0004838690632101111 -0.004757892761963559
0.00863986315902684 0.006568499579136877 0.001502105858466303 0.006568499579136877 -0.002839861503811904 -0.00222653221685867 0.001502105858466303 -0.00222653221685867 -0.004440210227104548
0.005729303518844578 0.006953207619905448 0.0023165116631482167 0.006953207619905448 -0.0076060176843122575 -0.00554291752295909 0.0023165116631482167 -0.00554291752295909 -0.004573343081308469
0.003983885892350421 0.005195853944413697 0.001264303036129645 0.005195853944413697 -0.0009190757728146512 -0.004852462996329102 0.001264303036129645 -0.004852462996329102 -0.002268767467157845
0.0032603776915732527 0.005272061026475252 0.0025800228987104593 0.005272061026475252 0.0037268017600945746 -0.002353237967756195 0.0025800228987104593 -0.002353237967756195 -0.0017243000013445703
0.00631141544688103 0.0071166396754109495 0.0036129502158098424 0.0071166396754109495 0.00247810740342332 -0.0008612318430570857 0.0036129502158098424 -0.0008612318430570857 0.0019134404700756574
0.010309073703459444 0.007890646545024088 0.00182529733901651 0.007890646545024088 -0.0006610734829436052 -0.0016352387126702236 0.00182529733901651 -0.0016352387126702236 0.007073486267496576
0.01130160208549005 0.006618998247972847 0.0006684187438652008 0.006618998247972847 -0.0020254556991299902 -0.0020502459547403758 0.0006684187438652008 -0.0020502459547403758 0.006177364435061911
