11.24269576463133 0.0 0.0 0.0 11.24269576463133 0.0 0.0 0.0 11.24269576463133
11.244235670307638 0.0 0.0 0.0 11.244235670307638 0.0 0.0 0.0 11.244235670307638
11.228092590389606 0.0 0.0 0.0 11.228092590389606 0.0 0.0 0.0 11.228092590389606
11.206565661553785 0.0 0.0 0.0 11.206565661553785 0.0 0.0 0.0 11.206565661553785
11.17652268390393 0.0 0.0 0.0 11.17652268390393 0.0 0.0 0.0 11.17652268390393
11.153003932055864 0.0 0.0 0.0 11.153003932055864 0.0 0.0 0.0 11.153003932055864
11.13268934820438 0.0 0.0 0.0 11.13268934820438 0.0 0.0 0.0 11.13268934820438
11.125397815450476 0.0 0.0 0.0 11.125397815450476 0.0 0.0 0.0 11.125397815450476
11.121823752585257 0.0 0.0 0.0 11.121823752585257 0.0 0.0 0.0 11.121823752585257
11.125940751266247 0.0 0.0 0.0 11.125940751266247 0.0 0.0 0.0 11.125940751266247
11.149442040266436 0.0 0.0 0.0 11.149442040266436 0.0 0.0 0.0 11.149442040266436
11.190531062963464 0.0 0.0 0.0 11.190531062963464 0.0 0.0 0.0 11.190531062963464
11.24205969362689 0.0 0.0 0.0 11.24205969362689 0.0 0.0 0.0 11.24205969362689
11.280087955350801 0.0 0.0 0.0 11.280087955350801 0.0 0.0 0.0 11.280087955350801
11.340503588051316 0.0 0.0 0.0 11.340503588051316 0.0 0.0 0.0 11.340503588051316
11.407441859021997 0.0 0.0 0.0 11.407441859021997 0.0 0.0 0.0 11.407441859021997
11.462518093690226 0.0 0.0 0.0 11.462518093690226 0.0 0.0 0.0 11.462518093690226
11.475204058906085 0.0 0.0 0.0 11.475204058906085 0.0 0.0 0.0 11.475204058906085
11.443838667412553 0.0 0.0 0.0 11.443838667412553 0.0 0.0 0.0 11.443838667412553
11.392330674660254 0.0 0.0 0.0 11.392330674660254 0.0 0.0 0.0 11.392330674660254
11.359847131725472 0.0 0.0 0.0 11.359847131725472 0.0 0.0 0.0 11.359847131725472
11.35522635634213 0.0 0.0 0.0 11.35522635634213 0.0 0.0 0.0 11.35522635634213
11.360309632605572 0.0 0.0 0.0 11.360309632605572 0.0 0.0 0.0 11.360309632605572
11.370927573291187 0.0 0.0 0.0 11.370927573291187 0.0 0.0 0.0 11.370927573291187
11.404000090458865 0.0 0.0 0.0 11.404000090458865 0.0 0.0 0.0 11.404000090458865
11.432868823883384 0.0 0.0 0.0 11.432868823883384 0.0 0.0 0.0 11.432868823883384
11.487144942612582 0.0 0.0 0.0 11.487144942612582 0.0 0.0 0.0 11.487144942612582
11.554085330292098 0.0 0.0 0.0 11.554085330292098 0.0 0.0 0.0 11.554085330292098
11.628673386986737 0.0 0.0 0.0 11.628673386986737 0.0 0.0 0.0 11.628673386986737
11.725693265543484 0.0 0.0 0.0 11.725693265543484 0.0 0.0 0.0 11.725693265543484
11.85632277613439 0.0 0.0 0.0 11.85632277613439 0.0 0.0 0.0 11.85632277613439
12.003309154235502 0.0 0.0 0.0 12.003309154235502 0.0 0.0 0.0 12.003309154235502
12.15444322329569 0.0 0.0 0.0 12.15444322329569 0.0 0.0 0.0 12.15444322329569
12.307956473084635 0.0 0.0 0.0 12.307956473084635 0.0 0.0 0.0 12.307956473084635
12.486352164387574 0.0 0.0 0.0 12.486352164387574 0.0 0.0 0.0 12.486352164387574
12.698894602591148 0.0 0.0 0.0 12.698894602591148 0.0 0.0 0.0 12.698894602591148
12.897619694707403 0.0 0.0 0.0 12.897619694707403 0.0 0.0 0.0 12.897619694707403
13.094922887664813 0.0 0.0 0.0 13.094922887664813 0.0 0.0 0.0 13.094922887664813
13.277204327208691 0.0 0.0 0.0 13.277204327208691 0.0 0.0 0.0 13.277204327208691
13.433457656582492 0.0 0.0 0.0 13.433457656582492 0.0 0.0 0.0 13.433457656582492
13.589770782980835 0.0 0.0 0.0 13.589770782980835 0.0 0.0 0.0 13.589770782980835
13.743630114664043 0.0 0.0 0.0 13.743630114664043 0.0 0.0 0.0 13.743630114664043
13.93159491742564 0.0 0.0 0.0 13.93159491742564 0.0 0.0 0.0 13.93159491742564
14.167814331462575 0.0 0.0 0.0 14.167814331462575 0.0 0.0 0.0 14.167814331462575
14.431160427554133 0.0 0.0 0.0 14.431160427554133 0.0 0.0 0.0 14.431160427554133
14.695761202806695 0.0 0.0 0.0 14.695761202806695 0.0 0.0 0.0 14.695761202806695
14.965143094136732 0.0 0.0 0.0 14.965143094136732 0.0 0.0 0.0 14.965143094136732
15.225125739891993 0.0 0.0 0.0 15.225125739891993 0.0 0.0 0.0 15.225125739891993
15.47236368176127 0.0 0.0 0.0 15.47236368176127 0.0 0.0 0.0 15.47236368176127
15.730508495071918 0.0 0.0 0.0 15.730508495071918 0.0 0.0 0.0 15.730508495071918
16.009239889319144 0.0 0.0 0.0 16.009239889319144 0.0 0.0 0.0 16.009239889319144
16.295190848219942 0.0 0.0 0.0 16.295190848219942 0.0 0.0 0.0 16.295190848219942
16.612955940886952 0.0 0.0 0.0 16.612955940886952 0.0 0.0 0.0 16.612955940886952
16.980103850637512 0.0 0.0 0.0 16.980103850637512 0.0 0.0 0.0 16.980103850637512
17.3420462441895 0.0 0.0 0.0 17.3420462441895 0.0 0.0 0.0 17.3420462441895
17.688946246416833 0.0 0.0 0.0 17.688946246416833 0.0 0.0 0.0 17.688946246416833
18.059856606118785 0.0 0.0 0.0 18.059856606118785 0.0 0.0 0.0 18.059856606118785
18.461367696248203 0.0 0.0 0.0 18.461367696248203 0.0 0.0 0.0 18.461367696248203
18.863156075234798 0.0 0.0 0.0 18.863156075234798 0.0 0.0 0.0 18.863156075234798
19.33043013375514 0.0 0.0 0.0 19.33043013375514 0.0 0.0 0.0 19.33043013375514
19.79529855268631 0.0 0.0 0.0 19.79529855268631 0.0 0.0 0.0 19.79529855268631
20.279983599715898 0.0 0.0 0.0 20.279983599715898 0.0 0.0 0.0 20.279983599715898
20.839477370336017 0.0 0.0 0.0 20.839477370336017 0.0 0.0 0.0 20.839477370336017
21.439346832776298 0.0 0.0 0.0 21.439346832776298 0.0 0.0 0.0 21.439346832776298
22.126014057639562 0.0 0.0 0.0 22.126014057639562 0.0 0.0 0.0 22.126014057639562
22.788671983382617 0.0 0.0 0.0 22.788671983382617 0.0 0.0 0.0 22.788671983382617
23.530355645889564 0.0 0.0 0.0 23.530355645889564 0.0 0.0 0.0 23.530355645889564
24.318559805960085 0.0 0.0 0.0 24.318559805960085 0.0 0.0 0.0 24.318559805960085
25.181650478670754 0.0 0.0 0.0 25.181650478670754 0.0 0.0 0.0 25.181650478670754
26.116511339441576 0.0 0.0 0.0 26.116511339441576 0.0 0.0 0.0 26.116511339441576
27.152483676944136 0.0 0.0 0.0 27.152483676944136 0.0 0.0 0.0 27.152483676944136
28.290808411732023 0.0 0.0 0.0 28.290808411732023 0.0 0.0 0.0 28.290808411732023
