10.1817450507146 3.997655274596079 6.608973734455469 8.331714491861456 6.523338120816272 1.1315773287101434 8.494519969229083 9.58422949891174 4.53768692295438 7.819564728999442 5.297749370122282 3.467899450166651 10.053207310037571 1.8120302471686902 5.921820169321203 1.9837736676691982 5.3927951201164745 10.391308899767328 0.03617674643143069 2.331330364537011 0.5501826783641869 2.7757990988959462 9.485855910971216 0.5460779701405201 6.63927279954115 10.297038895780895 2.3314990049734807 3.5654523213163567 0.5206717262516062 0.12853549213787707 10.606134330437904 1.2429137448672873 9.416061255664385 0.6223405483207437 7.118515191900089 11.051929702897066 6.374496071588318 3.4503720874695905 7.024964720442593 10.668969757066428 2.0633044975082 3.252725495927372 7.600163521152661 2.7878175406683368 10.410623851090966 7.789052052694232 5.079371247590083 6.435600123069089 4.9612779712783945 2.178058693177792 1.458132669889625 9.394700133711584 3.0491090329341337 8.510495839910623 7.624571413657676 9.069437702545034 6.597123933119547 3.219930552381942 1.529793612693385 9.372540780359495 5.0841943640731095 1.8844669359802095 8.2487996105973 8.942575123536935 7.148184666022952 7.236541012037189 4.1125106545275525 10.035488821512512 6.378959421806877 3.6790822474094855 4.251897596617452 0.938566100631682 1.147114734256864 7.40712643487394 2.512630076437456 2.4680415450349282 2.031262814579001 2.1249594410814385 10.35363462626005 10.425655335328278 10.629788962326689 7.790176322270695 0.9066154835381763 2.819150933764364 5.17185366294994 8.442117764270137 1.734174578998618 8.036661184214472 2.7753269056738317 4.766037316629808 4.11641186995788 4.1222243436681945 6.816187860093389 3.8239218969452313 2.7724375328623214 4.2993192873526676 2.007293387208807 8.547585493238143 7.184959523869062 5.860794816710784 5.025350094441029 10.81865500847673 9.644681474038162 8.34624005478936 1.1326116567204894 4.177156155174183 3.904442084011521 9.360297484671811 2.986003781607258 7.588156322076035 10.128634555922483 10.707374805798409 9.25270488620429 3.6801390608113613 5.864369993963936 10.600895234211587 7.84475961020798 2.074108728138011 4.591741804190728 3.703894876962027 2.9385596054805143 10.707689601279819 4.181282224519802 9.30283606661878 3.965310038881235 0.1182517983219688 2.045597251678906 9.537347457573228 2.64027964414908 2.5920259939272827 7.327932885907878 4.246152579081725 1.3698437800499752 4.205341593456114 7.900298527285259 4.5285466112977355 8.395876556590208 7.924683934398744 5.194777519614023 6.007455782960399 8.626486732114326 1.562611041630344 2.631836379629842 4.9323954858590575 8.870554414468707 3.565384865141769 2.2581291724134966 7.088575893078876 7.777146037879487 3.739961444974964 10.617006017242304 4.998603721216971 4.466003494759091 0.9085694640620693 0.487848675966765 5.073007881787301 4.568829190222409 5.392334169590125 4.120076988777149 0.9203911586585791 4.115512454296709 1.954632600247274 6.107414591003736 3.2812032442991828 3.3643542221743963 1.469813830789077 3.215478444859148 10.124216176486982 3.609040252795833 6.628491054302869 2.032848034681814 0.3315324825944839 6.747461260884198 8.320438068009532 7.918893946079959 8.27076783812139 10.742002308753474 10.803646009630947 7.11455776299094 5.458261337553923 10.09561475846176 0.5389006331643794 1.560812210308003 1.4704996352307194 10.967890552056447 9.82844333631106 7.664516711709411 5.790685365922543 9.748451555945708 4.612462092484943 9.140637694822447 3.858504429117237
10.40986840662813 4.136135870144313 6.69269275755948 8.07138222580291 6.346516473977719 1.511157808675325 8.4437913112035 9.429618429362051 4.29536549147154 8.054684535832504 5.47559420013404 4.23065491518892 9.962876306026391 1.453823450992426 6.00627714682988 2.2558298044127887 5.66564427143358 10.307410931200288 0.043051929534473884 2.681840161253734 0.6465469243133902 2.6398204525537947 9.557926402595932 0.3483261814419241 6.141365394172955 9.977842383703571 2.553903247796974 4.085278192207512 0.15254379879766153 11.23292396922331 10.748196213712017 1.4350118447160016 9.579267961898175 0.09367347852219887 6.998569700498859 11.07691019929779 6.805708570281742 3.447707541229728 6.98948435807725 10.882036350895689 2.5289185561375502 3.3185562503205746 7.037486000153793 2.6494680067589185 10.517824313298755 8.141310127436553 5.284655834216546 6.452886943418828 4.4423838728608125 2.107034833787608 1.2084629844306432 8.91422764317783 2.66597454472293 8.481369546813667 7.922969559190519 9.466297126118594 7.010398636424021 3.1287760406771223 1.725787779150157 9.437421928917244 5.4367453658931275 1.9138026437933708 8.189345502220108 9.497297483861633 7.256107674291584 6.780858809450362 4.296591113159603 9.989064130902538 6.050230864065113 3.533152488088396 4.319068340264549 1.243623709371695 0.9363592277506005 6.664379772141645 2.1527201633160677 2.0554237920608958 2.157667627011003 2.4320269773665095 10.470553546540781 10.357020498977684 10.786887628653545 8.18647822212418 0.6228834303452279 3.1203878408670724 5.506212253864288 7.886369572083669 1.2519444437677227 8.30494748914654 2.7472366359122438 4.665671904801782 3.776444015286842 4.428328578272928 6.71939781727646 3.8979492259401867 2.5500014980193773 4.004713243629758 1.8741554688198663 8.309490160357345 7.431742635461791 5.48653484144125 4.14735761734328 10.482382482465944 10.090228519228296 8.338354113323025 1.1460574764604357 3.4672387785890524 4.115738826638375 8.970280157994313 3.4929768340383864 7.611841558193107 10.648999566628563 10.858592119523097 8.57099734934169 3.2122982232361674 5.65102676506218 10.821238768626335 8.024999753662891 2.0502739321238947 4.8394178343793754 4.69926968098466 3.0584208580880072 0.2975584573904851 4.446994009485638 9.404633737702628 4.586411287561782 10.927373109118369 1.819137423685051 9.366504534544614 2.715201808487537 2.9668253143176813 7.402665042018375 4.403478817441548 1.5180167924342125 4.394134857599522 7.497982427795573 3.9331099508812386 8.155174270018042 8.380632439443382 5.659325010986867 6.1986435306775025 8.070403977299593 1.2575103404245251 2.5463920983692083 5.131902892635417 8.970246425287304 3.7270031110444997 2.258607130623355 7.043422956587716 7.7668658353796385 3.027926490950133 10.289498863777487 5.120489993430055 4.247768641879127 0.46010287939331823 0.07737495891808795 5.100239124987831 4.3146943325887985 5.389553308784846 4.177593367060737 1.0423260291311467 4.503485049493264 2.258685840273047 6.510558628171837 3.33886333994115 2.6792090101068826 1.2792004710325486 3.1664779628796635 9.869425463370463 3.580153393190282 6.452223533514281 2.052151719480836 0.46693712583373126 6.75704351830065 8.48918429060453 7.646327628993941 8.581690617464153 11.049373066141207 0.012996087587741569 7.664149742531378 5.2940447710012535 9.971118330772727 0.49447650783744873 1.5759808273146483 1.3469694794174927 0.05866455076269605 10.033186511672824 7.678778493138449 5.5368640403015466 9.651973189742383 4.862929531165988 8.827006107083253 4.010020522866142
10.24171588441647 3.826859569489899 6.726705358532051 7.818828240521476 5.870989966033279 1.261004622641476 8.526961584012168 9.270171488755237 4.300179812637773 7.896391904135888 5.891604744029234 4.221055444153298 10.017861402441872 1.6354390543457886 6.2657135610484245 2.289127376865681 5.890493162862786 10.384514765981045 10.917433724598705 2.8552814895508964 0.5810290897489632 2.377739483589036 9.70020743496716 0.677681633576296 6.206968180615507 10.110830009090298 2.334814485615976 4.555405585309919 0.18286520716412127 10.88903787843761 10.495560601699998 1.7188637822923831 9.587791771952178 11.213406245281377 6.327400701740025 10.821231427284248 7.096839430774245 3.365587069691513 6.7775012494109745 10.719010872341341 2.737981606259096 3.536343901806158 7.096244341866954 2.220018466971833 10.313676729828277 8.560062000968637 5.630675100321169 6.975486206057314 4.242186714408411 2.046207593672602 1.199418534783189 8.422203480143834 2.4038672550468725 8.460592328710375 8.267738610377844 9.630020628184633 6.696479333278723 3.4532335604520945 1.7048848070173481 9.491140350934105 5.630439310376772 2.2150444219542904 8.553302689229223 9.864115130601666 7.848627598256371 6.8720193328368735 4.130747895448794 10.070330279116762 6.060913152199719 2.95712028934573 4.372174342327352 0.9438985860851745 0.945955572647734 6.895272712591571 1.6532804934719174 1.7999418388875865 1.9580558387454527 2.3319400939128365 10.385424241480866 10.62012506089778 10.933804283595494 8.365658805858631 0.17661901925608756 3.488815385871039 6.001965666100174 7.33792903487509 0.5542871416264323 8.445288438509674 2.5425454266307743 4.512368306410956 4.013829767305067 5.093096483278496 6.379645016563108 4.422408828576754 2.6950341521008556 3.7139386423083507 1.7397368064179175 8.102023191836285 7.268876265444194 4.881705184079231 4.108359078823557 10.39559689336776 9.913631018925285 8.393762721612378 0.7362249083425875 3.11448200700004 4.236056175854058 8.722903027807057 3.731039027323514 7.558044562017088 11.05849225181177 10.536385946358655 8.354284748064568 3.2608514220083586 5.624701755063082 10.223481462049676 7.825879482668242 1.5717420850805082 5.204299512293715 5.088380684390533 2.916508278446291 0.8423517166976909 4.741758238032616 9.507533366116075 4.959044285841835 10.965220486663405 1.8174127509582327 9.067246171369126 2.8601432536425344 2.6869386973431846 7.406004960250622 4.479121924250812 1.109566846637855 4.83067350325591 7.439734150392153 3.9312920586731126 7.871880978011069 8.535697040047491 5.937426589890614 5.823090923042677 7.534252233818052 1.000887892836956 2.341865727762741 5.661967794370586 9.016439052397613 4.154450398907106 2.1507860480594907 7.1000057528847345 7.72553401918793 3.1617410487129898 10.622303310860316 5.22864201702968 3.9285187198032863 0.11647349567714753 10.932625333873503 4.923428776145119 4.529333954315034 4.83871281755063 4.094301506900389 1.5701701521178535 4.262610614830329 2.948339920940045 6.562123977342121 3.3092557291655282 2.07641116274075 1.0262532768079051 3.3503842323241257 9.633613617813559 3.3629933803031333 6.632748679735672 2.1827187433865585 0.4350380614609405 6.580526821097768 8.576746946557956 7.767964981087013 8.49559029331462 0.7317696012027208 0.7173134319925942 7.857082351976935 5.240218180490372 10.06622079722868 0.8305712019518542 1.6052242571850501 1.4477727147900166 11.069327361161497 10.300348983923485 7.138563022840133 5.225251133067382 9.482202789232154 5.274284213409613 8.56273428700515 4.388780691268537
9.635349122975637 3.9203480391187147 6.6745184423648185 7.423038582596981 5.340242321568902 1.198228413664654 8.88880133829991 9.063366011609931 4.4331941034884 8.338502931489309 5.652804644435299 4.452480602991934 10.00299171606857 0.9949861388267144 6.607323874658142 2.3089111363812496 5.993103217314041 10.00406754637208 10.537444039033732 3.091835433194382 0.4197183830656077 2.7552238204182906 9.812132696286648 0.9489865487557346 6.510958616534442 10.429861008682815 2.323087441943115 4.835722735485751 0.04593683330327512 10.868093758877876 10.46753748243696 1.6666740648832636 9.54197601788357 0.05662229366156665 6.229035044186734 10.811948864913491 7.092814712247976 3.4610693586112555 6.264100388141735 10.58444437541829 2.6987987623123675 3.6894703733593834 6.804245646462966 2.119475350438344 10.961287558919357 8.71752018872872 6.133622344144264 7.20254940320591 4.076735662925698 1.919763143783794 0.9299914199594009 8.434778537087718 2.1437039453986233 8.227311386995373 8.202298332438785 9.796488330623118 6.724107495417194 3.0878234826875453 1.7092926340941526 9.706163411390996 5.801336465713534 2.586497767817937 8.435148353754549 10.076428340848732 8.167513152625322 7.096871489017458 3.7235719526674913 10.126588928749847 6.0482395203688855 2.627581037533193 4.411061136306832 0.8667650971534805 1.1490203838447712 7.2734421375809 1.6809624361017446 1.9887059357336734 1.5327668117933575 2.4163260682472427 10.379969378357577 11.077723776142902 10.969401112458323 8.404980278993648 0.10220387883337052 3.306015316117998 5.526517855995249 6.561589880193341 0.042540123251258166 8.137591622308975 2.333531961139683 4.410512014589416 3.8803181865756446 5.701732510113644 6.180555441134851 4.870541534996198 2.0988776827524087 3.217696372139292 2.2616978752491232 8.24691167033743 7.571592817006538 4.675480053091193 3.860695490102264 10.340544680360232 10.383656338460229 8.278043509745226 0.6252893822480181 3.1655073958534365 4.4272770368191 8.27468154004676 3.534360298037818 7.885600786843275 11.039610246327957 10.283234303567045 8.145593110191323 2.931760849284747 5.687231214147593 9.368677686493303 7.722242679194805 1.3839324132422617 5.973727065285214 5.228087012428072 2.6625679355285636 1.3332787364520384 4.778916654147335 9.172092111658326 4.723903623314768 10.894115404344003 1.5496999325079652 8.994512872185345 3.2987870812662954 3.3973600328253224 7.348425268422356 4.489507095937708 0.5868553446551532 4.428991641365318 7.587304422064037 4.4524469832949505 7.646822492292548 8.451711657802326 6.480790541773539 5.519894775689271 7.12436119458525 0.8548659657340428 2.1328111635755933 6.284585990171055 9.190919141969736 4.259906978663794 2.2751009277803416 7.034529364242235 7.766452580729634 3.2972293686393397 10.714440537092312 5.411672971095646 3.560146605625053 11.179221641339595 10.873484116961084 4.630575344485347 4.703182683406554 4.891206442076103 3.6987494097271503 2.0782127756725033 3.9737361179303567 3.1292653625039715 6.354559786161796 3.2481894373043803 1.5380675173512726 0.9636850802774285 3.23412519739913 9.661718171977274 3.3337291529990205 6.359311370002296 2.1767857272315303 0.19935583786651262 7.2227996673563375 8.563553183104633 8.008144582352365 8.821248160492063 1.3657105374765752 0.30536658705511294 8.173318153638007 5.190892420997375 10.060458984781018 1.1837719439612495 2.034563202420751 1.5585307062492697 0.12682806556150267 10.124661399456059 6.789408153527068 4.691270104108322 9.614997999734255 5.120078132582017 8.591289433116978 4.645905926310353
9.13305198246967 4.087366110730506 6.670919917819054 6.776202761501429 5.458658384909414 1.5580296151815756 8.892376742994482 9.294955090068703 4.683801243757039 8.851694200425072 5.512059810293108 4.826190142749975 9.813176917353276 0.14749768751174855 6.891924477370571 2.3050013322376106 6.097731951975041 9.481670078026001 10.395563161366143 2.9815386033396836 0.25829390983409334 2.849689165237669 10.582579915435906 1.1074011617847161 6.054020571758293 10.96925407073093 2.3304279213434924 5.040231728669419 11.00944484630225 0.014188595547216038 10.359384757438345 1.4512267644141894 9.150777947446342 11.114627101280469 6.169474051083021 10.7531895342057 6.884212676718676 3.2942577080353153 5.876347390652272 10.805227423821957 2.6947490312707085 4.465736109671389 6.384163875318132 1.6315599579189795 10.738626525148574 8.943084626411355 6.44485239349173 7.003644998118874 3.8034489049912947 1.916058342837754 0.7659997469253816 8.307028720470383 2.1510000261760984 7.854547199612532 7.878342016406564 10.146740236854388 7.110436672363577 2.9775597612642133 1.9608538457548408 9.545040961643737 5.960249546440338 2.924337160243463 8.19153053505492 9.656079714508323 8.66883511279372 7.140087987043974 3.4581837662401345 9.863325974635952 6.121068531339033 2.553466608023479 4.052003592958633 0.6716911308663319 1.5584096169528283 7.3472224819447645 1.697143793028128 2.3038166208331172 1.200112652752236 2.341515031845925 10.557075090671237 10.809172736329375 0.24015441351811728 8.580752937521874 0.05195294804385902 3.3153589828625263 4.929282387986305 5.678768822646219 10.51153076073433 8.249380216466806 2.10265038904553 4.170597675157539 3.789545310772518 5.981730823038803 6.320815344745764 5.115650903740403 1.5349500958393139 3.2022078672106824 2.5337176924410207 8.387097328977871 7.520648584430902 4.248118036493096 3.778391141133982 10.294214453668502 10.22341118246597 8.671986892190581 11.045466778912472 3.247886315419798 4.584006072712461 7.997975515215072 3.462687904881747 8.039306296100149 10.76114721835664 10.197995769882773 7.707553573273828 2.5290235529137814 5.874659735727003 8.883703761391773 6.92175461641391 1.2691612098933946 6.483903163749289 5.60451200593436 2.827582003368907 1.5949233165611423 4.824301310416395 8.992507209719578 4.830046043075922 10.206512280167907 1.605339835702541 9.45068875714622 3.566763684114261 3.2549163481879733 7.311457609356272 4.207536082627842 0.3226147978799605 4.164998237292902 7.439194087110611 4.755755696796013 6.873628509737021 8.593985940379616 6.554225844476413 5.5207439684185005 7.154785114373308 0.40065710282485645 1.9073518316669928 6.475219005623896 9.026617956950854 4.204920776319808 2.6451588001222266 7.25259086438015 7.4768142624646305 3.8440643884246013 11.092564645502444 5.916180517497707 3.6169798005330414 11.040817345475968 10.990131815104464 4.440264814474773 4.746848008216941 4.521674605704329 3.3739463147715503 2.459259698320853 3.472869717046784 3.3826640024649954 5.710443087932403 3.2472716066721836 1.812261976672338 1.0718441725181442 3.286590613474157 9.828019339477502 3.588390255507615 5.939405331634858 1.9087265439571128 0.7393627404128333 7.639622668401059 8.800002783012017 8.388974984788765 8.843132984049204 1.685978446866908 0.19194112996429252 8.68953403280431 5.3574996780974 10.411914414052694 1.182006686004312 1.99935696640089 1.4029777159877763 11.123691261177115 10.403844964674915 6.851856643548775 4.428663583928881 9.722356494023872 5.628452117523284 9.40863150228669 4.873679187633883
9.290775712516565 4.100435354632134 6.869648159934081 6.190753657585908 5.633337674065689 2.0796560311947285 8.882196566469629 9.292894783263655 4.999802438709187 9.297857870013418 5.781103823161496 4.710828106829619 9.891777635403258 10.861040595122505 7.248783375600388 2.122438954278095 6.083506371775259 9.60871439560768 9.97418718145722 2.9965890964647692 11.142430884328276 2.8800290523708534 10.43553118910671 0.9844198920629108 6.2469647974034705 10.683261712445535 2.3180180312306264 5.125586017054913 10.395614588033881 0.21010363397324797 10.37759133367968 1.2704609839083476 9.024453131623002 0.03293147471018135 6.299339303868404 10.735022803694207 6.40651967165546 3.1779480934039297 5.382941582787102 10.632627074594001 2.832249583525926 4.707928325807285 5.930944430988667 1.867313989332317 10.373832771354577 8.806668423841748 6.551084908622769 7.013711511724446 3.845154247631308 1.7085509783595019 0.7903553930443524 8.306099301363215 2.0472788607799703 7.614969953701578 7.149175897483198 10.529506400238214 7.140911521569543 2.4018774677957544 1.3762026141881691 8.78428434495011 5.881492011553931 2.9969906046063235 7.874924169349936 9.609751624973361 8.716596764086464 7.601965551116801 3.6878411271696594 9.90577465533799 5.498364020479948 2.0909874831896977 3.845711897827911 0.7154094372217233 1.6704188579158028 7.697044909637577 1.6724821636432332 2.036215080879371 1.228837973233915 2.861871961969467 10.563366920175934 10.81310498422253 0.48263063095421266 8.775819214965681 10.980991152411766 2.978978503256053 5.060753605197872 5.84838989588359 10.801438942109598 8.501801061359 2.1481354753375514 4.014590683367101 3.8163794974866034 6.6581314403626415 5.858951790607247 4.789713303641051 1.295097969594259 4.021717452879684 2.876638539175509 7.910413027861738 7.5450294660436565 4.175840814216764 2.9346230066182675 9.802386308887831 10.099468874626002 8.35597553494737 10.270087528778593 3.0940998098427337 4.125607684506785 8.11288466124428 3.051261121739707 8.196632567770088 10.775541666979365 10.526751608266995 7.533508412981842 1.929380456214208 5.750299226301158 8.203547430207962 6.688021490900551 1.3551011307487195 6.7610067486319245 6.034377389454554 2.9460325296407603 1.3891066397375578 5.2715676855215925 9.368211018816828 4.959528941510533 9.924768221034281 1.9343993079836332 9.793196233647816 3.459382994625427 2.952088610775866 7.634766535680978 3.6181348525943107 0.5430486838549456 4.293683453762866 7.503964105565826 4.706344599248934 6.634777050128917 8.246765320444679 6.594771225024632 5.375937496317771 7.316370579428646 0.4703645572297376 1.1565218957384649 6.478144262907124 8.846216975784817 4.271009396768997 3.023724355031461 7.797566934077197 7.404579687527276 4.325424902953498 0.22269426011214585 6.172808474259231 3.983061141251178 10.872137834034902 0.26262089888851264 4.307368189587499 4.7968846851693625 4.166773422020003 3.725649810499329 2.5296016688256584 3.399591740545676 3.482815455886677 5.729130824838116 3.137708055217072 1.4135874833684203 0.6968675681846805 3.589839681618685 9.707808835543997 3.7204748166748556 5.918408454569037 1.5909313988920406 0.6896125391268781 8.35544019075863 8.977119782935358 8.275127409443897 8.847901079378557 2.3896537754862215 0.08261030012473779 9.142028099074734 5.372569289130291 11.02473323383329 1.492561904211308 2.3594625938421463 1.547456989564887 0.16811592007023726 10.353088184040953 6.88711376409168 4.280377920071923 9.84968619856368 6.124136765099738 10.087802832513072 4.285809432986835
9.670766848376877 4.053512385885349 7.03157358266611 5.802513545934997 5.449406905188651 2.5471259248011178 8.834033916965835 9.755731533482374 5.540383242542178 9.614880747848892 5.705636883226923 5.0435981130679055 9.513038905691518 10.967958943919001 7.492032746797191 2.294347080460789 5.968279290329761 9.640563862175199 9.648891113807656 2.71698849887602 11.046767251814938 2.7190257810267413 10.147479738956337 1.0513110655219413 6.86472796740457 10.62752130365091 1.8425936794000033 5.188701586032401 10.055334469221249 11.07961981808149 10.570878180247247 1.432955242143475 9.32213554874851 0.1574084345010662 6.37319746730265 10.787420120759169 6.3669854266463535 2.800405740162115 5.21666690167509 10.580229639299738 3.1998243685969925 4.9354551687394475 6.236154061426255 1.8744554363145642 10.464761385380163 8.505652979261852 6.439192049758806 7.128071733936346 3.3390275162069396 1.4880286563490421 0.7667428267478151 8.214844868108056 1.6960874875776335 7.475467305047062 7.071706927766386 10.780083678478704 6.9335057221977765 1.9893447903880335 1.4031975635157246 7.993994576818378 5.862251556977463 2.9264389162731375 7.590356659120531 9.882332476750154 8.107102700596135 8.252239571628674 4.034508885167964 9.755776064239766 4.741056147341103 2.1090212008812306 3.640266957280002 0.9775313934045865 1.6628675425625918 7.895893318282002 1.4520700697543418 2.3984043277984552 1.2650965521512494 3.5233737191238563 10.40940965394089 10.797784654542347 0.618063533964676 8.978202244025082 0.24389495824046156 2.713626426692862 5.4480041863307775 5.880620494402 10.87327542101252 8.131394228753917 2.0012233699225677 4.277669085911444 3.969983817705771 6.989480884240549 5.014419334286262 5.1585542632774635 1.061909385781432 4.328300557067077 2.938529016905287 8.010114710994579 7.687812221674713 3.5510161867754473 2.3799908596165253 9.496250810154425 9.451909308480527 8.731179000077775 10.508780039062962 2.895066997689897 4.110689878377726 7.9229012226407445 2.61828607511484 8.340288011683624 10.381121490307104 10.487750388884205 7.462731508432718 1.5333721000642784 5.696808660573797 7.7933501166956916 6.1316737718933565 1.171559696247636 6.9871430194774256 6.370670346820608 3.024985482383442 0.8901698402824223 5.838483265219047 9.299157677933815 4.816669373394107 9.498655471053638 2.2288646017146507 10.037210450962373 3.4427619155535085 2.9448523844550674 7.725774692352091 3.1520651312931953 0.8109640953767525 4.837042194901321 7.1286283684037555 4.549473696347854 6.168567504393306 8.72433239612863 6.897458074088291 4.891881822630576 7.408314922898694 0.29646797041842193 0.7914462644114807 6.343462054053597 8.570033321762518 4.495569214523848 2.8605556607104634 7.461685035633986 7.394031682464948 4.802274806066879 0.7165343977874135 6.804655975681659 3.951091643881868 10.697991227225042 0.4934586818970288 4.420122978811067 4.665509717424188 3.8209282400226625 3.696743090343443 2.398504522002589 3.7752508156269804 3.4191049506885736 6.176193396596826 3.3956706396106036 1.2592184921753975 0.4472947589768297 3.6200165953556183 9.707293202128337 3.3328043428612935 5.801233286659954 1.4714186838415213 1.0841168744932301 9.029880187979447 8.804855138184193 8.530378682304214 8.329333445364991 2.6356419378086904 0.33973516757021827 9.062888611896874 5.177535498616153 11.120799635980498 2.1021634642427367 1.9436339679243062 1.1373378091912558 0.13686082977108538 10.427856520190865 6.927750121804755 4.175348538112098 9.887698433015988 6.2273035733944315 10.31002813612947 4.974497510283601
9.835152054599238 3.6099690831573703 7.4061105733584895 5.885324318975487 5.565257749222791 2.6304779340872955 8.8059303772941 9.876761042429022 5.59722101714658 9.830045497001947 5.608457668940186 4.870287523885047 9.533931908745917 10.703767489040535 8.377658188388335 2.2697925369103906 5.797222293674934 9.710024705368866 9.209081417932579 2.6348835916222133 0.08251373797785155 2.7328649701828858 10.107245908971711 0.850871537465434 7.358271362752053 9.998806656464515 1.5607931849273629 4.953505499544616 10.226944064068142 0.22423239297040434 10.756835636620233 1.541112356191831 9.180088631225514 11.119768364155858 6.047009725427428 10.166288395178306 6.1695337315689835 2.9160557706120938 5.508384715590209 10.44632578359101 3.2628121697240537 4.951680934302883 6.144679592849268 1.8006122602372132 10.594160069762717 8.729888283225495 6.713398803777281 7.179541846846841 2.681398879888612 1.3056878130190832 0.5610682748503276 8.060306215702608 2.3369120619310033 7.380488782189507 7.259611334924638 10.810682562047013 7.562021898344212 1.7544196085074628 1.4455785651505575 7.725476243048811 5.4953791255439475 2.0879924112081145 8.001975754956202 10.530389289484553 7.881142809282594 9.009180269984563 4.203253172461898 9.194051005483905 4.422623766586951 2.0838871394142133 3.501329573489497 0.9855544908794959 1.2271981314310803 7.927824978516224 0.6176286848042963 2.8442079515199143 1.7739669324692096 4.023177483421017 10.34761012877452 10.982836967843294 0.6790241926488598 8.817778925967554 0.6646913426432148 2.2409888819661896 5.682296934241331 5.653626784070915 0.16977357066377427 8.598274827068716 2.1759053047458043 4.1896134347401555 3.8288279089829125 6.837213356065429 4.854033317676674 5.141368967056313 0.9812522995442612 4.085702219143848 3.360537664134971 7.950754423413867 7.511634971638037 3.6521565916735588 1.8500646535268905 9.610496896511847 9.228339481551123 8.998444261092654 0.040525374082559906 3.06736118090222 4.08807192887854 7.942621757610774 2.7812827014757264 8.514311449755512 9.822791737626273 10.150646085849782 7.552531934007633 1.5340366031812045 5.654405561917996 7.7885906248558605 6.505631999573744 1.1490422117775407 7.6958938102575285 6.40750599084147 3.774624970826038 0.38418223736313584 6.0841685541310335 9.227015559211084 4.777713088662684 9.375940134368705 1.878401041762843 10.166054761824181 3.2528771894748565 3.3232898322488427 7.596544007765555 2.5750957037619826 0.6549777578105451 5.093730013610554 6.8393160562525495 4.67550405893214 5.630597210592932 8.755955090307095 6.758690298283979 4.706955558556419 7.630609975876464 10.972301216112061 0.7605700210167672 6.576133645530253 7.943055648125576 4.315141298291883 3.011244674321088 8.115610568243213 7.365313739569233 4.950234632586874 0.8165619231423662 7.171108795302729 3.6537363981633524 10.464627062997426 0.7014819206791282 4.129781045288663 4.572594129139223 3.26110998385829 3.5866502493361865 1.8498755217640281 4.135744258517745 3.4274346811992746 6.6362441699271315 3.646883153109035 1.26016268515826 0.42568998407280007 3.8129297155046338 9.869251398903595 2.9793259079885606 5.659745752869413 1.2426846851901874 0.7013929174966045 9.881233452350834 8.575367632966705 8.306555770949789 8.5773813299713 3.007740174009221 0.41759736970184136 9.380368042699255 4.825741431031983 0.07425980533856884 2.5818599456337767 1.496065620437072 1.0379673525278645 11.10562798353242 10.54781166246355 7.0421876854172885 4.058166859550608 9.919649451007585 6.792155494912855 9.938306743144095 4.593465375441008