An instance of this daemon is already running

     Program PWSCF v.7.1 starts on 11May2023 at 15: 7: 1 

     This program is part of the open-source Quantum ESPRESSO suite
     for quantum simulation of materials; please cite
         "P. Giannozzi et al., J. Phys.:Condens. Matter 21 395502 (2009);
         "P. Giannozzi et al., J. Phys.:Condens. Matter 29 465901 (2017);
         "P. Giannozzi et al., J. Chem. Phys. 152 154105 (2020);
          URL http://www.quantum-espresso.org", 
     in publications or presentations arising from this work. More details at
     http://www.quantum-espresso.org/quote

     Parallel version (MPI & OpenMP), running on       4 processor cores
     Number of MPI processes:                 4
     Threads/MPI process:                     1

     MPI processes distributed on     1 nodes
     620888 MiB available memory on the printing compute node when the environment starts
 
     Reading input from pw-si-30.in
Warning: card &CELL ignored
Warning: card / ignored

     Current dimensions of program PWSCF are:
     Max number of different atomic species (ntypx) = 10
     Max number of k-points (npk) =  40000
     Max angular momentum in pseudopotentials (lmaxx) =  4

     IMPORTANT: XC functional enforced from input :
     Exchange-correlation= PBE
                           (   1   4   3   4   0   0   0)
     Any further DFT definition will be discarded
     Please, verify this is what you really want


     gamma-point specific algorithms are used
 
     K-points division:     npool     =       2
     R & G space division:  proc/nbgrp/npool/nimage =       2
     Subspace diagonalization in iterative solution of the eigenvalue problem:
     a serial algorithm will be used

     Message from routine divide_et_impera:
     suboptimal parallelization: some nodes have no k-points
 
     Parallelization info
     --------------------
     sticks:   dense  smooth     PW     G-vecs:    dense   smooth      PW
     Min        2404    2404    632               124723   124723   16820
     Max        2405    2405    633               124724   124724   16821
     Sum        4809    4809   1265               249447   249447   33641
 
     Using Slab Decomposition
 


     bravais-lattice index     =            0
     lattice parameter (alat)  =      22.4052  a.u.
     unit-cell volume          =   11247.2575 (a.u.)^3
     number of atoms/cell      =           64
     number of atomic types    =            1
     number of electrons       =       256.00
     number of Kohn-Sham states=          154
     kinetic-energy cutoff     =      30.0000  Ry
     charge density cutoff     =     120.0000  Ry
     scf convergence threshold =      1.0E-06
     mixing beta               =       0.5000
     number of iterations used =            8  plain     mixing
     Exchange-correlation= PBE
                           (   1   4   3   4   0   0   0)

     GPU acceleration is ACTIVE.
     GPU-aware MPI enabled

     Message from routine print_cuda_info:
     High GPU oversubscription detected. Are you sure this is what you want?

     celldm(1)=  22.405203  celldm(2)=   0.000000  celldm(3)=   0.000000
     celldm(4)=   0.000000  celldm(5)=   0.000000  celldm(6)=   0.000000

     crystal axes: (cart. coord. in units of alat)
               a(1) = (   1.000000   0.000000   0.000000 )  
               a(2) = (   0.000000   1.000000   0.000000 )  
               a(3) = (   0.000000   0.000000   1.000000 )  

     reciprocal axes: (cart. coord. in units 2 pi/alat)
               b(1) = (  1.000000  0.000000  0.000000 )  
               b(2) = (  0.000000  1.000000  0.000000 )  
               b(3) = (  0.000000  0.000000  1.000000 )  


     PseudoPot. # 1 for Si read from file:
     /home/ppiaggi/pseudos/Si_ONCV_PBE_sr.upf
     MD5 check sum: 8553c464762ac42b85b1eed164b4d029
     Pseudo is Norm-conserving, Zval =  4.0
     Generated using ONCVPSP code by D. R. Hamann
     Using radial grid of 1510 points,  4 beta functions with: 
                l(1) =   0
                l(2) =   0
                l(3) =   1
                l(4) =   1

     atomic species   valence    mass     pseudopotential
        Si             4.00    28.08500     Si( 1.00)

     No symmetry found



   Cartesian axes

     site n.     atom                  positions (alat units)
         1           Si  tau(   1) = (   0.0678070   0.2602630   0.0564302  )
         2           Si  tau(   2) = (   0.4574680   0.4424550   0.2328070  )
         3           Si  tau(   3) = (   0.5913970   0.1379570   0.4057550  )
         4           Si  tau(   4) = (   0.6099450   0.4222510   0.0808319  )
         5           Si  tau(   5) = (   0.6612380   0.0763214   0.7923580  )
         6           Si  tau(   6) = (   0.0785034   0.5828210   0.8259950  )
         7           Si  tau(   7) = (   0.6995200   0.5584490   0.4251760  )
         8           Si  tau(   8) = (   0.4063250   0.7607770   0.6900460  )
         9           Si  tau(   9) = (   0.4490840   0.7889610   0.0325983  )
        10           Si  tau(  10) = (   0.5196090   0.2495490   0.2459380  )
        11           Si  tau(  11) = (   0.1874670   0.1519630   0.2211450  )
        12           Si  tau(  12) = (   0.2473750   0.1664160   0.0412784  )
        13           Si  tau(  13) = (   0.7623500   0.2906830   0.3929150  )
        14           Si  tau(  14) = (   0.1492370   0.3523690   0.7278030  )
        15           Si  tau(  15) = (   0.3730520   0.0053908   0.1255480  )
        16           Si  tau(  16) = (   0.8985480   0.5975550   0.6834890  )
        17           Si  tau(  17) = (   0.0842225   0.1561940   0.4339380  )
        18           Si  tau(  18) = (   0.4889910   0.5559000   0.4899030  )
        19           Si  tau(  19) = (   0.3062770   0.7415940   0.2930850  )
        20           Si  tau(  20) = (   0.5564360   0.9200180   0.6996470  )
        21           Si  tau(  21) = (   0.8670350   0.0630556   0.7746130  )
        22           Si  tau(  22) = (   0.1614180   0.0089525   0.0023845  )
        23           Si  tau(  23) = (   0.2516040   0.3692260   0.2833820  )
        24           Si  tau(  24) = (   0.2244960   0.3944080   0.5366660  )
        25           Si  tau(  25) = (   0.2203420   0.9043320   0.1990240  )
        26           Si  tau(  26) = (   0.5646870   0.3928000   0.4266440  )
        27           Si  tau(  27) = (   0.9156270   0.3469190   0.6499370  )
        28           Si  tau(  28) = (   0.6895820   0.1472960   0.2175850  )
        29           Si  tau(  29) = (   0.0548879   0.4181840   0.2406300  )
        30           Si  tau(  30) = (   0.6056280   0.2256680   0.9986880  )
        31           Si  tau(  31) = (   0.1644430   0.5887980   0.5845560  )
        32           Si  tau(  32) = (   0.4219350   0.3315890   0.5261200  )
        33           Si  tau(  33) = (   0.1703130   0.7196760   0.9601990  )
        34           Si  tau(  34) = (   0.3569380   0.1491350   0.7455690  )
        35           Si  tau(  35) = (   0.4297620   0.4251250   0.9806700  )
        36           Si  tau(  36) = (   0.2897500   0.9980470   0.4774070  )
        37           Si  tau(  37) = (   0.5579020   0.0372229   0.0798469  )
        38           Si  tau(  38) = (   0.9255760   0.5660540   0.3325820  )
        39           Si  tau(  39) = (   0.5138900   0.0483693   0.5489040  )
        40           Si  tau(  40) = (   0.2130750   0.1876870   0.6142840  )
        41           Si  tau(  41) = (   0.4667440   0.5165630   0.6963190  )
        42           Si  tau(  42) = (   0.7079070   0.5640240   0.7442960  )
        43           Si  tau(  43) = (   0.2677740   0.5177540   0.3935540  )
        44           Si  tau(  44) = (   0.3706970   0.5982690   0.9236880  )
        45           Si  tau(  45) = (   0.2624140   0.5078660   0.7504920  )
        46           Si  tau(  46) = (   0.3998850   0.2349630   0.9190420  )
        47           Si  tau(  47) = (   0.5502930   0.2163070   0.6870830  )
        48           Si  tau(  48) = (   0.2385460   0.9751090   0.7043950  )
        49           Si  tau(  49) = (   0.6396130   0.3715880   0.7421930  )
        50           Si  tau(  50) = (   0.9909700   0.6813420   0.5213980  )
        51           Si  tau(  51) = (   0.8470690   0.4826490   0.5290500  )
        52           Si  tau(  52) = (   0.9932390   0.3428030   0.4610150  )
        53           Si  tau(  53) = (   0.3602200   0.6297610   0.1070460  )
        54           Si  tau(  54) = (   0.7713180   0.4101060   0.9457410  )
        55           Si  tau(  55) = (   0.0456453   0.4305650   0.9643720  )
        56           Si  tau(  56) = (   0.9251650   0.2616520   0.2461800  )
        57           Si  tau(  57) = (   0.9166380   0.5456520   0.1158030  )
        58           Si  tau(  58) = (   0.2306750   0.7979650   0.5853150  )
        59           Si  tau(  59) = (   0.4066090   0.1834570   0.4037420  )
        60           Si  tau(  60) = (   0.1198530   0.6881770   0.3764960  )
        61           Si  tau(  61) = (   0.7743150   0.2336610   0.8425910  )
        62           Si  tau(  62) = (   0.3055400   0.8176560   0.8410870  )
        63           Si  tau(  63) = (   0.0239254   0.2356910   0.8535430  )
        64           Si  tau(  64) = (   0.6234350   0.6749020   0.5870770  )

     number of k points=     1  Fermi-Dirac smearing, width (Ry)=  0.0100
                       cart. coord. in units 2pi/alat
        k(    1) = (   0.0000000   0.0000000   0.0000000), wk =   2.0000000

     Dense  grid:   124724 G-vectors     FFT dimensions: (  80,  80,  80)

     Estimated max dynamical RAM per process >     199.15 MB

     Estimated total dynamical RAM >     766.16 MB

     Initial potential from superposition of free atoms

     starting charge     255.9608, renormalised to     256.0000
     Starting wfcs are  256 randomized atomic wfcs

     total cpu time spent up to now is        4.5 secs

     Self-consistent Calculation

     iteration #  1     ecut=    30.00 Ry     beta= 0.50
     Davidson diagonalization with overlap
     ethr =  1.00E-02,  avg # of iterations =  3.0

     Threshold (ethr) on eigenvalues was too large:
     Diagonalizing with lowered threshold

     Davidson diagonalization with overlap
     ethr =  7.53E-04,  avg # of iterations =  4.0

     total cpu time spent up to now is        4.8 secs

     total energy              =    -499.63727478 Ry
     estimated scf accuracy    <       2.57335194 Ry

     iteration #  2     ecut=    30.00 Ry     beta= 0.50
     Davidson diagonalization with overlap
     ethr =  1.01E-03,  avg # of iterations =  6.0

     total cpu time spent up to now is        4.9 secs

     total energy              =    -498.13930416 Ry
     estimated scf accuracy    <      25.07036132 Ry

     iteration #  3     ecut=    30.00 Ry     beta= 0.50
     Davidson diagonalization with overlap
     ethr =  1.01E-03,  avg # of iterations =  5.0

     total cpu time spent up to now is        5.0 secs

     total energy              =    -500.26035082 Ry
     estimated scf accuracy    <       2.16538244 Ry

     iteration #  4     ecut=    30.00 Ry     beta= 0.50
     Davidson diagonalization with overlap
     ethr =  8.46E-04,  avg # of iterations =  3.0

     total cpu time spent up to now is        5.1 secs

     total energy              =    -500.43928162 Ry
     estimated scf accuracy    <       1.62804483 Ry

     iteration #  5     ecut=    30.00 Ry     beta= 0.50
     Davidson diagonalization with overlap
     ethr =  6.36E-04,  avg # of iterations =  2.0

     total cpu time spent up to now is        5.2 secs

     total energy              =    -500.55818928 Ry
     estimated scf accuracy    <       0.40436245 Ry

     iteration #  6     ecut=    30.00 Ry     beta= 0.50
     Davidson diagonalization with overlap
     ethr =  1.58E-04,  avg # of iterations =  2.0

     total cpu time spent up to now is        5.3 secs

     total energy              =    -500.59682959 Ry
     estimated scf accuracy    <       0.14899538 Ry

     iteration #  7     ecut=    30.00 Ry     beta= 0.50
     Davidson diagonalization with overlap
     ethr =  5.82E-05,  avg # of iterations =  2.0

     total cpu time spent up to now is        5.4 secs

     total energy              =    -500.60737768 Ry
     estimated scf accuracy    <       0.11388289 Ry

     iteration #  8     ecut=    30.00 Ry     beta= 0.50
     Davidson diagonalization with overlap
     ethr =  4.45E-05,  avg # of iterations =  1.0

     total cpu time spent up to now is        5.5 secs

     total energy              =    -500.61737736 Ry
     estimated scf accuracy    <       0.01342447 Ry

     iteration #  9     ecut=    30.00 Ry     beta= 0.50
     Davidson diagonalization with overlap
     ethr =  5.24E-06,  avg # of iterations = 13.0

     total cpu time spent up to now is        5.7 secs

     total energy              =    -500.61838102 Ry
     estimated scf accuracy    <       0.01790135 Ry

     iteration # 10     ecut=    30.00 Ry     beta= 0.50
     Davidson diagonalization with overlap
     ethr =  5.24E-06,  avg # of iterations =  2.0

     total cpu time spent up to now is        5.8 secs

     total energy              =    -500.61989990 Ry
     estimated scf accuracy    <       0.00468265 Ry

     iteration # 11     ecut=    30.00 Ry     beta= 0.50
     Davidson diagonalization with overlap
     ethr =  1.83E-06,  avg # of iterations =  2.0

     total cpu time spent up to now is        5.9 secs

     total energy              =    -500.62012134 Ry
     estimated scf accuracy    <       0.00072906 Ry

     iteration # 12     ecut=    30.00 Ry     beta= 0.50
     Davidson diagonalization with overlap
     ethr =  2.85E-07,  avg # of iterations =  4.0

     total cpu time spent up to now is        6.0 secs

     total energy              =    -500.62017742 Ry
     estimated scf accuracy    <       0.00210620 Ry

     iteration # 13     ecut=    30.00 Ry     beta= 0.50
     Davidson diagonalization with overlap
     ethr =  2.85E-07,  avg # of iterations =  3.0

     total cpu time spent up to now is        6.1 secs

     total energy              =    -500.62029370 Ry
     estimated scf accuracy    <       0.00094783 Ry

     iteration # 14     ecut=    30.00 Ry     beta= 0.50
     Davidson diagonalization with overlap
     ethr =  2.85E-07,  avg # of iterations =  2.0

     total cpu time spent up to now is        6.2 secs

     total energy              =    -500.62035893 Ry
     estimated scf accuracy    <       0.00006592 Ry

     iteration # 15     ecut=    30.00 Ry     beta= 0.50
     Davidson diagonalization with overlap
     ethr =  2.57E-08,  avg # of iterations =  4.0

     total cpu time spent up to now is        6.4 secs

     total energy              =    -500.62036886 Ry
     estimated scf accuracy    <       0.00003718 Ry

     iteration # 16     ecut=    30.00 Ry     beta= 0.50
     Davidson diagonalization with overlap
     ethr =  1.45E-08,  avg # of iterations =  2.0

     total cpu time spent up to now is        6.5 secs

     total energy              =    -500.62036955 Ry
     estimated scf accuracy    <       0.00001907 Ry

     iteration # 17     ecut=    30.00 Ry     beta= 0.50
     Davidson diagonalization with overlap
     ethr =  7.45E-09,  avg # of iterations =  5.0

     total cpu time spent up to now is        6.6 secs

     total energy              =    -500.62036883 Ry
     estimated scf accuracy    <       0.00007238 Ry

     iteration # 18     ecut=    30.00 Ry     beta= 0.50
     Davidson diagonalization with overlap
     ethr =  7.45E-09,  avg # of iterations =  3.0

     total cpu time spent up to now is        6.7 secs

     total energy              =    -500.62037334 Ry
     estimated scf accuracy    <       0.00000711 Ry

     iteration # 19     ecut=    30.00 Ry     beta= 0.50
     Davidson diagonalization with overlap
     ethr =  2.78E-09,  avg # of iterations =  2.0

     total cpu time spent up to now is        6.8 secs

     total energy              =    -500.62037392 Ry
     estimated scf accuracy    <       0.00000127 Ry

     iteration # 20     ecut=    30.00 Ry     beta= 0.50
     Davidson diagonalization with overlap
     ethr =  4.96E-10,  avg # of iterations =  5.0

     total cpu time spent up to now is        6.9 secs

     End of self-consistent calculation

          k = 0.0000 0.0000 0.0000 ( 15672 PWs)   bands (ev):

    -8.5984  -7.9694  -7.6243  -7.4656  -7.3792  -7.2285  -7.0959  -6.9229
    -6.7484  -6.5924  -6.4186  -6.2603  -6.0419  -5.8365  -5.8052  -5.5936
    -5.4472  -5.3445  -5.2059  -5.0864  -5.0674  -4.8448  -4.7669  -4.6952
    -4.4276  -4.3655  -4.1654  -4.1363  -4.0195  -3.9582  -3.8342  -3.7101
    -3.6087  -3.3882  -3.3356  -3.2210  -3.0932  -3.0343  -3.0059  -2.9214
    -2.7608  -2.6623  -2.6179  -2.4737  -2.4190  -2.3153  -2.1549  -2.1163
    -1.9359  -1.7863  -1.7642  -1.5917  -1.4388  -1.2835  -1.1647  -1.0102
    -0.9869  -0.9133  -0.8113  -0.7862  -0.6782  -0.4160  -0.3435  -0.2951
    -0.2206  -0.0861  -0.0073   0.0872   0.1657   0.2770   0.3196   0.4093
     0.4966   0.5736   0.6729   0.6895   0.7483   0.7786   0.8543   0.9339
     1.0305   1.0736   1.0993   1.2026   1.2685   1.3091   1.3546   1.4072
     1.5226   1.5580   1.6330   1.6637   1.7442   1.8013   1.8151   1.9926
     2.0252   2.0502   2.1658   2.1932   2.2744   2.3425   2.3498   2.4094
     2.4125   2.4757   2.6114   2.6589   2.7039   2.7752   2.8133   2.8724
     2.9410   2.9642   3.0641   3.1039   3.1604   3.2256   3.2594   3.3168
     3.3729   3.4599   3.5553   3.6398   3.6811   3.7794   3.8166   3.8400
     3.8991   3.9790   4.0619   4.0860   4.2019   4.3034   4.3094   4.3576
     4.4462   4.5067   4.5395   4.5603   4.6275   4.6580   4.8097   4.8319
     4.8960   4.9431   5.0609   5.1196   5.1651   5.1739   5.2408   5.3117
     5.3657   5.4113

     the Fermi energy is     3.8951 ev

!    total energy              =    -500.62037378 Ry
     estimated scf accuracy    <       0.00000044 Ry
     smearing contrib. (-TS)   =      -0.14242355 Ry
     internal energy E=F+TS    =    -500.47795023 Ry

     The total energy is F=E-TS. E is the sum of the following terms:
     one-electron contribution =    -249.26650983 Ry
     hartree contribution      =     212.31304192 Ry
     xc contribution           =    -148.48397011 Ry
     ewald contribution        =    -315.04051221 Ry

     convergence has been achieved in  20 iterations

     Forces acting on atoms (cartesian axes, Ry/au):

     atom    1 type  1   force =    -0.02662421   -0.01867210    0.01252605
     atom    2 type  1   force =    -0.01095795    0.00740088   -0.00833424
     atom    3 type  1   force =     0.11972121    0.01258514   -0.02989596
     atom    4 type  1   force =    -0.02314585   -0.01955041   -0.00686980
     atom    5 type  1   force =    -0.01250188   -0.03162596   -0.00285729
     atom    6 type  1   force =    -0.01296877   -0.01289498   -0.00873298
     atom    7 type  1   force =    -0.00827277    0.00679090   -0.02026340
     atom    8 type  1   force =     0.03645675   -0.01877458   -0.03857278
     atom    9 type  1   force =    -0.01932465    0.03333466   -0.03053920
     atom   10 type  1   force =    -0.00251945   -0.00105989   -0.02635515
     atom   11 type  1   force =    -0.00868546   -0.00230235    0.06937179
     atom   12 type  1   force =     0.09238249    0.06349001   -0.04476553
     atom   13 type  1   force =    -0.01016851    0.00505881   -0.00105804
     atom   14 type  1   force =    -0.04831375   -0.04622752    0.01120666
     atom   15 type  1   force =    -0.03601323    0.00651093   -0.00627336
     atom   16 type  1   force =     0.03209549   -0.00449346    0.03904904
     atom   17 type  1   force =     0.02252697    0.00383583   -0.00392889
     atom   18 type  1   force =    -0.04964502    0.04556819    0.02486434
     atom   19 type  1   force =    -0.01382512   -0.01773049   -0.01085597
     atom   20 type  1   force =    -0.01249679   -0.02505700   -0.01644229
     atom   21 type  1   force =    -0.00986329    0.02819934    0.01150426
     atom   22 type  1   force =    -0.02711397   -0.09083128    0.00168119
     atom   23 type  1   force =     0.00656582   -0.07059712   -0.04278765
     atom   24 type  1   force =    -0.03267620   -0.03990534    0.02224994
     atom   25 type  1   force =    -0.00164306    0.02497706   -0.01575472
     atom   26 type  1   force =     0.09523539   -0.01939656   -0.09219667
     atom   27 type  1   force =     0.03174258   -0.03531416    0.04604509
     atom   28 type  1   force =    -0.01045127   -0.00705527   -0.00330633
     atom   29 type  1   force =    -0.03059342    0.01055981   -0.00517782
     atom   30 type  1   force =    -0.02269889   -0.00546916   -0.02425883
     atom   31 type  1   force =     0.01828269    0.02865102    0.00250567
     atom   32 type  1   force =    -0.04500990   -0.00414267    0.09200567
     atom   33 type  1   force =     0.02829834   -0.01177141   -0.00296778
     atom   34 type  1   force =     0.02625919    0.01170836   -0.01581842
     atom   35 type  1   force =     0.02066253   -0.03553133    0.01159449
     atom   36 type  1   force =     0.01066371    0.02395806    0.02625217
     atom   37 type  1   force =     0.03247788    0.01378840    0.00297526
     atom   38 type  1   force =     0.00860486    0.00606375    0.01066211
     atom   39 type  1   force =    -0.03369147   -0.02256098    0.05016337
     atom   40 type  1   force =    -0.01443491   -0.01441999   -0.01485451
     atom   41 type  1   force =     0.01231349    0.01550851    0.00820607
     atom   42 type  1   force =    -0.01465066   -0.01913348   -0.01393551
     atom   43 type  1   force =     0.03191941    0.12419867    0.02286692
     atom   44 type  1   force =    -0.02564839    0.03227093   -0.09777683
     atom   45 type  1   force =     0.02833423    0.03131580   -0.01043116
     atom   46 type  1   force =     0.00824838    0.01515330    0.02787717
     atom   47 type  1   force =    -0.06033116   -0.06227828   -0.03672514
     atom   48 type  1   force =     0.01049007    0.01035079   -0.01341530
     atom   49 type  1   force =     0.01387972    0.07041016    0.02357246
     atom   50 type  1   force =    -0.02964963   -0.00692091    0.01678017
     atom   51 type  1   force =     0.01344979    0.00393107   -0.01993281
     atom   52 type  1   force =     0.01172968   -0.00218214   -0.02124637
     atom   53 type  1   force =    -0.02542120    0.01071403    0.11046673
     atom   54 type  1   force =     0.01342956    0.01951370   -0.01241395
     atom   55 type  1   force =    -0.03756532    0.02786317   -0.00693129
     atom   56 type  1   force =     0.02588641   -0.00765833    0.01215071
     atom   57 type  1   force =     0.02805366   -0.03623544    0.00656178
     atom   58 type  1   force =     0.00943932   -0.00807003   -0.00989400
     atom   59 type  1   force =    -0.09623113   -0.03609626   -0.02283487
     atom   60 type  1   force =     0.03848766   -0.01919969   -0.02404907
     atom   61 type  1   force =     0.02048131    0.03113270    0.01816336
     atom   62 type  1   force =    -0.00812297    0.00321542    0.05392218
     atom   63 type  1   force =    -0.02052568    0.01480871    0.00517938
     atom   64 type  1   force =    -0.00633264    0.01029043    0.02204989

     Total force =     0.467957     Total SCF correction =     0.001176


     Computing stress (Cartesian axis) and pressure

          total   stress  (Ry/bohr**3)                   (kbar)     P=      -25.11
  -0.00021968   0.00001495  -0.00008119          -32.32        2.20      -11.94
   0.00001495  -0.00011423  -0.00000569            2.20      -16.80       -0.84
  -0.00008119  -0.00000569  -0.00017819          -11.94       -0.84      -26.21

 
     init_run     :      0.97s CPU      4.48s WALL (       1 calls)
     electrons    :      2.20s CPU      2.35s WALL (       1 calls)
     forces       :      0.04s CPU      0.04s WALL (       1 calls)
     stress       :      0.19s CPU      0.19s WALL (       1 calls)

     Called by init_run:
     wfcinit      :      0.44s CPU      3.79s WALL (       1 calls)
                                        3.79s GPU  (       1 calls)
     potinit      :      0.05s CPU      0.13s WALL (       1 calls)
     hinit0       :      0.46s CPU      0.48s WALL (       1 calls)

     Called by electrons:
     c_bands      :      1.37s CPU      1.43s WALL (      21 calls)
     sum_band     :      0.39s CPU      0.44s WALL (      21 calls)
     v_of_rho     :      0.18s CPU      0.28s WALL (      21 calls)
     mix_rho      :      0.21s CPU      0.23s WALL (      21 calls)

     Called by c_bands:
     init_us_2    :      0.05s CPU      0.06s WALL (      43 calls)
     init_us_2:gp :      0.05s CPU      0.06s WALL (      43 calls)
     regterg      :      1.20s CPU      1.26s WALL (      21 calls)

     Called by *egterg:
     rdiaghg      :      0.44s CPU      1.13s WALL (      95 calls)
                                        1.12s GPU  (      95 calls)
     h_psi        :      0.98s CPU      3.67s WALL (      97 calls)
                                        3.67s GPU  (      97 calls)
     g_psi        :      0.00s CPU      0.00s WALL (      75 calls)
                                        0.00s GPU  (      75 calls)

     Called by h_psi:
     h_psi:calbec :      0.42s CPU      3.01s WALL (      97 calls)
                                        3.01s GPU  (      97 calls)
     vloc_psi     :      0.51s CPU      0.60s WALL (      97 calls)
                                        0.59s GPU  (      97 calls)
     add_vuspsi   :      0.04s CPU      0.05s WALL (      97 calls)
                                        0.05s GPU  (      97 calls)

     General routines
     calbec       :      0.42s CPU      3.02s WALL (     102 calls)
     fft          :      0.60s CPU      0.72s WALL (     175 calls)
                                        0.12s GPU  (     111 calls)
     ffts         :      0.04s CPU      0.05s WALL (      21 calls)
     fftw         :      0.59s CPU      0.76s WALL (    2219 calls)
                                        0.66s GPU  (    2219 calls)
 
     Parallel routines
 
     PWSCF        :      3.43s CPU      7.14s WALL

 
   This run was terminated on:  15: 7: 8  11May2023            

=------------------------------------------------------------------------------=
   JOB DONE.
=------------------------------------------------------------------------------=
