An instance of this daemon is already running
An instance of this daemon is already running

     Program PWSCF v.7.1 starts on 11May2023 at 15:15:25 

     This program is part of the open-source Quantum ESPRESSO suite
     for quantum simulation of materials; please cite
         "P. Giannozzi et al., J. Phys.:Condens. Matter 21 395502 (2009);
         "P. Giannozzi et al., J. Phys.:Condens. Matter 29 465901 (2017);
         "P. Giannozzi et al., J. Chem. Phys. 152 154105 (2020);
          URL http://www.quantum-espresso.org", 
     in publications or presentations arising from this work. More details at
     http://www.quantum-espresso.org/quote

     Parallel version (MPI & OpenMP), running on       4 processor cores
     Number of MPI processes:                 4
     Threads/MPI process:                     1

     MPI processes distributed on     1 nodes
     634434 MiB available memory on the printing compute node when the environment starts
 
     Reading input from pw-si-66.in
Warning: card &CELL ignored
Warning: card / ignored

     Current dimensions of program PWSCF are:
     Max number of different atomic species (ntypx) = 10
     Max number of k-points (npk) =  40000
     Max angular momentum in pseudopotentials (lmaxx) =  4

     IMPORTANT: XC functional enforced from input :
     Exchange-correlation= PBE
                           (   1   4   3   4   0   0   0)
     Any further DFT definition will be discarded
     Please, verify this is what you really want


     gamma-point specific algorithms are used
 
     K-points division:     npool     =       2
     R & G space division:  proc/nbgrp/npool/nimage =       2
     Subspace diagonalization in iterative solution of the eigenvalue problem:
     a serial algorithm will be used

     Message from routine divide_et_impera:
     suboptimal parallelization: some nodes have no k-points
 
     Parallelization info
     --------------------
     sticks:   dense  smooth     PW     G-vecs:    dense   smooth      PW
     Min        9452    9452   2423               976223   976223  126821
     Max        9457    9457   2426               976224   976224  126826
     Sum       18909   18909   4849              1952447  1952447  253647
 
     Using Slab Decomposition
 


     bravais-lattice index     =            0
     lattice parameter (alat)  =      44.4659  a.u.
     unit-cell volume          =   87918.8653 (a.u.)^3
     number of atoms/cell      =           64
     number of atomic types    =            1
     number of electrons       =       256.00
     number of Kohn-Sham states=          154
     kinetic-energy cutoff     =      30.0000  Ry
     charge density cutoff     =     120.0000  Ry
     scf convergence threshold =      1.0E-06
     mixing beta               =       0.5000
     number of iterations used =            8  plain     mixing
     Exchange-correlation= PBE
                           (   1   4   3   4   0   0   0)

     GPU acceleration is ACTIVE.
     GPU-aware MPI enabled

     Message from routine print_cuda_info:
     High GPU oversubscription detected. Are you sure this is what you want?

     celldm(1)=  44.465928  celldm(2)=   0.000000  celldm(3)=   0.000000
     celldm(4)=   0.000000  celldm(5)=   0.000000  celldm(6)=   0.000000

     crystal axes: (cart. coord. in units of alat)
               a(1) = (   1.000000   0.000000   0.000000 )  
               a(2) = (   0.000000   1.000000   0.000000 )  
               a(3) = (   0.000000   0.000000   1.000000 )  

     reciprocal axes: (cart. coord. in units 2 pi/alat)
               b(1) = (  1.000000  0.000000  0.000000 )  
               b(2) = (  0.000000  1.000000  0.000000 )  
               b(3) = (  0.000000  0.000000  1.000000 )  


     PseudoPot. # 1 for Si read from file:
     /home/ppiaggi/pseudos/Si_ONCV_PBE_sr.upf
     MD5 check sum: 8553c464762ac42b85b1eed164b4d029
     Pseudo is Norm-conserving, Zval =  4.0
     Generated using ONCVPSP code by D. R. Hamann
     Using radial grid of 1510 points,  4 beta functions with: 
                l(1) =   0
                l(2) =   0
                l(3) =   1
                l(4) =   1

     atomic species   valence    mass     pseudopotential
        Si             4.00    28.08500     Si( 1.00)

     No symmetry found



   Cartesian axes

     site n.     atom                  positions (alat units)
         1           Si  tau(   1) = (   0.2337890   0.2641140   0.7535910  )
         2           Si  tau(   2) = (   0.4247800   0.5254970   0.2324330  )
         3           Si  tau(   3) = (   0.4760390   0.4103160   0.2170580  )
         4           Si  tau(   4) = (   0.9536090   0.6591660   0.1930000  )
         5           Si  tau(   5) = (   0.2352270   0.0760577   0.7216430  )
         6           Si  tau(   6) = (   0.2823360   0.3708910   0.9676580  )
         7           Si  tau(   7) = (   0.4795410   0.4757240   0.3073470  )
         8           Si  tau(   8) = (   0.2372570   0.5555050   0.0472281  )
         9           Si  tau(   9) = (   0.2813680   0.4654780   0.0096491  )
        10           Si  tau(  10) = (   0.6079530   0.3946270   0.5741200  )
        11           Si  tau(  11) = (   0.1705500   0.4719330   0.1605820  )
        12           Si  tau(  12) = (   0.2853840   0.8787480   0.6507320  )
        13           Si  tau(  13) = (   0.9506330   0.5916430   0.2617420  )
        14           Si  tau(  14) = (   0.3161770   0.5082570   0.4231020  )
        15           Si  tau(  15) = (   0.2271250   0.9814980   0.6830550  )
        16           Si  tau(  16) = (   0.3080620   0.1811310   0.8771740  )
        17           Si  tau(  17) = (   0.1676840   0.4939230   0.2649160  )
        18           Si  tau(  18) = (   0.2991200   0.3202550   0.7706410  )
        19           Si  tau(  19) = (   0.0516901   0.6356040   0.1569610  )
        20           Si  tau(  20) = (   0.2162360   0.0536100   0.6091290  )
        21           Si  tau(  21) = (   0.3364090   0.2213640   0.7859580  )
        22           Si  tau(  22) = (   0.3197870   0.9465850   0.5961300  )
        23           Si  tau(  23) = (   0.3211980   0.4460170   0.2432490  )
        24           Si  tau(  24) = (   0.2178630   0.9386500   0.5864210  )
        25           Si  tau(  25) = (   0.1868470   0.4753500   0.0574426  )
        26           Si  tau(  26) = (   0.3713980   0.5215790   0.3325030  )
        27           Si  tau(  27) = (   0.4487460   0.2993230   0.4312210  )
        28           Si  tau(  28) = (   0.8752080   0.5962610   0.1902950  )
        29           Si  tau(  29) = (   0.4413060   0.4162770   0.4740210  )
        30           Si  tau(  30) = (   0.1458910   0.6367590   0.2369370  )
        31           Si  tau(  31) = (   0.3998200   0.3704360   0.3903310  )
        32           Si  tau(  32) = (   0.4963330   0.4068950   0.5758960  )
        33           Si  tau(  33) = (   0.2137940   0.5658990   0.1571300  )
        34           Si  tau(  34) = (   0.5036080   0.3363680   0.4946680  )
        35           Si  tau(  35) = (   0.3287020   0.5663160   0.2454660  )
        36           Si  tau(  36) = (   0.3727120   0.9538300   0.6839920  )
        37           Si  tau(  37) = (   0.4233860   0.4671570   0.1379910  )
        38           Si  tau(  38) = (   0.2205290   0.5844690   0.2558610  )
        39           Si  tau(  39) = (   0.3174070   0.0044160   0.7501790  )
        40           Si  tau(  40) = (   0.2019430   0.1818290   0.8807360  )
        41           Si  tau(  41) = (   0.2946040   0.3058220   0.8769530  )
        42           Si  tau(  42) = (   0.3930520   0.4088680   0.5574460  )
        43           Si  tau(  43) = (   0.3766440   0.3719050   0.2328870  )
        44           Si  tau(  44) = (   0.1485330   0.6032110   0.0995203  )
        45           Si  tau(  45) = (   0.1999730   0.2962800   0.8606010  )
        46           Si  tau(  46) = (   0.3597370   0.4903490   0.0657236  )
        47           Si  tau(  47) = (   0.5426870   0.4064230   0.4200610  )
        48           Si  tau(  48) = (   0.2471740   0.1569960   0.7767070  )
        49           Si  tau(  49) = (   0.5651730   0.4832340   0.5687110  )
        50           Si  tau(  50) = (   0.2472720   0.3940090   0.0711882  )
        51           Si  tau(  51) = (   0.9683150   0.5612240   0.1536860  )
        52           Si  tau(  52) = (   0.4354930   0.3969060   0.3019010  )
        53           Si  tau(  53) = (   0.3199630   0.4258370   0.1413880  )
        54           Si  tau(  54) = (   0.5809090   0.4914120   0.4668090  )
        55           Si  tau(  55) = (   0.0807064   0.5209660   0.1619570  )
        56           Si  tau(  56) = (   0.0699956   0.5715010   0.2530910  )
        57           Si  tau(  57) = (   0.2397990   0.5187990   0.3401950  )
        58           Si  tau(  58) = (   0.2448950   0.2370230   0.9357630  )
        59           Si  tau(  59) = (   0.3185820   0.0403716   0.6585240  )
        60           Si  tau(  60) = (   0.3231760   0.4270750   0.3777680  )
        61           Si  tau(  61) = (   0.6602210   0.4753240   0.5297920  )
        62           Si  tau(  62) = (   0.2887250   0.9095950   0.7401390  )
        63           Si  tau(  63) = (   0.6446860   0.4001140   0.4552930  )
        64           Si  tau(  64) = (   0.5344670   0.3159150   0.5836040  )

     number of k points=     1  Fermi-Dirac smearing, width (Ry)=  0.0100
                       cart. coord. in units 2pi/alat
        k(    1) = (   0.0000000   0.0000000   0.0000000), wk =   2.0000000

     Dense  grid:   976224 G-vectors     FFT dimensions: ( 160, 160, 160)

     Estimated max dynamical RAM per process >       1.50 GB

     Estimated total dynamical RAM >       5.78 GB

     Initial potential from superposition of free atoms

     starting charge     255.9608, renormalised to     256.0000

     negative rho (up, down):  2.586E-04 0.000E+00
     Starting wfcs are  256 randomized atomic wfcs

     total cpu time spent up to now is        5.7 secs

     Self-consistent Calculation

     iteration #  1     ecut=    30.00 Ry     beta= 0.50
     Davidson diagonalization with overlap
     ethr =  1.00E-02,  avg # of iterations =  2.0

     total cpu time spent up to now is        6.3 secs

     total energy              =    -498.32204028 Ry
     estimated scf accuracy    <       2.80910107 Ry

     iteration #  2     ecut=    30.00 Ry     beta= 0.50
     Davidson diagonalization with overlap
     ethr =  1.10E-03,  avg # of iterations =  5.0

     total cpu time spent up to now is        7.0 secs

     total energy              =    -497.83298495 Ry
     estimated scf accuracy    <       8.51205094 Ry

     iteration #  3     ecut=    30.00 Ry     beta= 0.50
     Davidson diagonalization with overlap
     ethr =  1.10E-03,  avg # of iterations =  4.0

     total cpu time spent up to now is        7.6 secs

     total energy              =    -498.50248121 Ry
     estimated scf accuracy    <       7.83378186 Ry

     iteration #  4     ecut=    30.00 Ry     beta= 0.50
     Davidson diagonalization with overlap
     ethr =  1.10E-03,  avg # of iterations =  3.0

     total cpu time spent up to now is        8.2 secs

     total energy              =    -498.80133478 Ry
     estimated scf accuracy    <       5.69539646 Ry

     iteration #  5     ecut=    30.00 Ry     beta= 0.50
     Davidson diagonalization with overlap
     ethr =  1.10E-03,  avg # of iterations =  2.0

     total cpu time spent up to now is        8.8 secs

     total energy              =    -499.00510211 Ry
     estimated scf accuracy    <       4.16314972 Ry

     iteration #  6     ecut=    30.00 Ry     beta= 0.50
     Davidson diagonalization with overlap
     ethr =  1.10E-03,  avg # of iterations =  1.0

     total cpu time spent up to now is        9.4 secs

     total energy              =    -499.16667661 Ry
     estimated scf accuracy    <       1.29649223 Ry

     iteration #  7     ecut=    30.00 Ry     beta= 0.50
     Davidson diagonalization with overlap
     ethr =  5.06E-04,  avg # of iterations =  1.0

     total cpu time spent up to now is        9.9 secs

     total energy              =    -499.24369199 Ry
     estimated scf accuracy    <       0.29086322 Ry

     iteration #  8     ecut=    30.00 Ry     beta= 0.50
     Davidson diagonalization with overlap
     ethr =  1.14E-04,  avg # of iterations =  2.0

     total cpu time spent up to now is       10.5 secs

     total energy              =    -499.23727925 Ry
     estimated scf accuracy    <       0.66185404 Ry

     iteration #  9     ecut=    30.00 Ry     beta= 0.50
     Davidson diagonalization with overlap
     ethr =  1.14E-04,  avg # of iterations =  1.0

     total cpu time spent up to now is       11.1 secs

     total energy              =    -499.26614690 Ry
     estimated scf accuracy    <       0.16590448 Ry

     iteration # 10     ecut=    30.00 Ry     beta= 0.50
     Davidson diagonalization with overlap
     ethr =  6.48E-05,  avg # of iterations =  1.0

     total cpu time spent up to now is       11.7 secs

     total energy              =    -499.27211021 Ry
     estimated scf accuracy    <       0.08472845 Ry

     iteration # 11     ecut=    30.00 Ry     beta= 0.50
     Davidson diagonalization with overlap
     ethr =  3.31E-05,  avg # of iterations =  2.0

     total cpu time spent up to now is       12.3 secs

     total energy              =    -499.27487026 Ry
     estimated scf accuracy    <       0.05748903 Ry

     iteration # 12     ecut=    30.00 Ry     beta= 0.50
     Davidson diagonalization with overlap
     ethr =  2.25E-05,  avg # of iterations =  1.0

     total cpu time spent up to now is       12.9 secs

     total energy              =    -499.27834777 Ry
     estimated scf accuracy    <       0.01439062 Ry

     iteration # 13     ecut=    30.00 Ry     beta= 0.50
     Davidson diagonalization with overlap
     ethr =  5.62E-06,  avg # of iterations = 18.0

     total cpu time spent up to now is       13.7 secs

     total energy              =    -499.27905469 Ry
     estimated scf accuracy    <       0.01234531 Ry

     iteration # 14     ecut=    30.00 Ry     beta= 0.50
     Davidson diagonalization with overlap
     ethr =  4.82E-06,  avg # of iterations =  2.0

     total cpu time spent up to now is       14.3 secs

     total energy              =    -499.27974345 Ry
     estimated scf accuracy    <       0.00703799 Ry

     iteration # 15     ecut=    30.00 Ry     beta= 0.50
     Davidson diagonalization with overlap
     ethr =  2.75E-06,  avg # of iterations =  2.0

     total cpu time spent up to now is       14.9 secs

     total energy              =    -499.27980358 Ry
     estimated scf accuracy    <       0.00915541 Ry

     iteration # 16     ecut=    30.00 Ry     beta= 0.50
     Davidson diagonalization with overlap
     ethr =  2.75E-06,  avg # of iterations =  1.0

     total cpu time spent up to now is       15.5 secs

     total energy              =    -499.28002193 Ry
     estimated scf accuracy    <       0.00725587 Ry

     iteration # 17     ecut=    30.00 Ry     beta= 0.50
     Davidson diagonalization with overlap
     ethr =  2.75E-06,  avg # of iterations =  1.0

     total cpu time spent up to now is       16.1 secs

     total energy              =    -499.28034717 Ry
     estimated scf accuracy    <       0.00067283 Ry

     iteration # 18     ecut=    30.00 Ry     beta= 0.50
     Davidson diagonalization with overlap
     ethr =  2.63E-07,  avg # of iterations =  2.0

     total cpu time spent up to now is       16.7 secs

     total energy              =    -499.28032567 Ry
     estimated scf accuracy    <       0.00182056 Ry

     iteration # 19     ecut=    30.00 Ry     beta= 0.50
     Davidson diagonalization with overlap
     ethr =  2.63E-07,  avg # of iterations =  2.0

     total cpu time spent up to now is       17.3 secs

     total energy              =    -499.28037634 Ry
     estimated scf accuracy    <       0.00141728 Ry

     iteration # 20     ecut=    30.00 Ry     beta= 0.50
     Davidson diagonalization with overlap
     ethr =  2.63E-07,  avg # of iterations =  1.0

     total cpu time spent up to now is       17.9 secs

     total energy              =    -499.28043433 Ry
     estimated scf accuracy    <       0.00025170 Ry

     iteration # 21     ecut=    30.00 Ry     beta= 0.50
     Davidson diagonalization with overlap
     ethr =  9.83E-08,  avg # of iterations =  2.0

     total cpu time spent up to now is       18.5 secs

     total energy              =    -499.28044637 Ry
     estimated scf accuracy    <       0.00013327 Ry

     iteration # 22     ecut=    30.00 Ry     beta= 0.50
     Davidson diagonalization with overlap
     ethr =  5.21E-08,  avg # of iterations =  2.0

     total cpu time spent up to now is       19.1 secs

     total energy              =    -499.28045353 Ry
     estimated scf accuracy    <       0.00006607 Ry

     iteration # 23     ecut=    30.00 Ry     beta= 0.50
     Davidson diagonalization with overlap
     ethr =  2.58E-08,  avg # of iterations =  2.0

     total cpu time spent up to now is       19.7 secs

     total energy              =    -499.28045689 Ry
     estimated scf accuracy    <       0.00001868 Ry

     iteration # 24     ecut=    30.00 Ry     beta= 0.50
     Davidson diagonalization with overlap
     ethr =  7.30E-09,  avg # of iterations =  4.0

     total cpu time spent up to now is       20.3 secs

     total energy              =    -499.28045574 Ry
     estimated scf accuracy    <       0.00006481 Ry

     iteration # 25     ecut=    30.00 Ry     beta= 0.50
     Davidson diagonalization with overlap
     ethr =  7.30E-09,  avg # of iterations =  2.0

     total cpu time spent up to now is       20.9 secs

     total energy              =    -499.28045898 Ry
     estimated scf accuracy    <       0.00001651 Ry

     iteration # 26     ecut=    30.00 Ry     beta= 0.50
     Davidson diagonalization with overlap
     ethr =  6.45E-09,  avg # of iterations =  2.0

     total cpu time spent up to now is       21.5 secs

     total energy              =    -499.28045941 Ry
     estimated scf accuracy    <       0.00001169 Ry

     iteration # 27     ecut=    30.00 Ry     beta= 0.50
     Davidson diagonalization with overlap
     ethr =  4.57E-09,  avg # of iterations =  1.0

     total cpu time spent up to now is       22.1 secs

     total energy              =    -499.28045974 Ry
     estimated scf accuracy    <       0.00000661 Ry

     iteration # 28     ecut=    30.00 Ry     beta= 0.50
     Davidson diagonalization with overlap
     ethr =  2.58E-09,  avg # of iterations =  2.0

     total cpu time spent up to now is       22.7 secs

     total energy              =    -499.28045954 Ry
     estimated scf accuracy    <       0.00001428 Ry

     iteration # 29     ecut=    30.00 Ry     beta= 0.50
     Davidson diagonalization with overlap
     ethr =  2.58E-09,  avg # of iterations =  1.0

     total cpu time spent up to now is       23.3 secs

     total energy              =    -499.28046018 Ry
     estimated scf accuracy    <       0.00000297 Ry

     iteration # 30     ecut=    30.00 Ry     beta= 0.50
     Davidson diagonalization with overlap
     ethr =  1.16E-09,  avg # of iterations =  2.0

     total cpu time spent up to now is       23.9 secs

     total energy              =    -499.28046028 Ry
     estimated scf accuracy    <       0.00000174 Ry

     iteration # 31     ecut=    30.00 Ry     beta= 0.50
     Davidson diagonalization with overlap
     ethr =  6.80E-10,  avg # of iterations =  1.0

     total cpu time spent up to now is       24.4 secs

     End of self-consistent calculation

          k = 0.0000 0.0000 0.0000 (122009 PWs)   bands (ev):

   -16.1570 -15.6093 -15.4481 -15.2528 -15.2203 -14.8146 -14.5976 -14.5416
   -14.0589 -13.9619 -13.8644 -13.6143 -13.5884 -13.4830 -13.1969 -13.1258
   -12.9558 -12.7918 -12.5424 -12.4220 -12.3820 -12.3316 -12.1332 -11.8086
   -11.6473 -11.4793 -11.4422 -11.2249 -11.0817 -11.0186 -10.8810 -10.8185
   -10.5192 -10.4849 -10.4209 -10.4028 -10.1246 -10.0114  -9.8710  -9.8513
    -9.7144  -9.6022  -9.5215  -9.3462  -9.2005  -9.1731  -9.0785  -9.0213
    -8.9907  -8.8933  -8.8228  -8.7708  -8.6034  -8.5310  -8.4760  -8.3961
    -8.1190  -8.0383  -7.9346  -7.8614  -7.7225  -7.6710  -7.4241  -7.2437
    -7.1133  -7.0718  -6.8960  -6.8222  -6.7813  -6.7511  -6.6905  -6.6378
    -6.5812  -6.5444  -6.4647  -6.4490  -6.4130  -6.3498  -6.2629  -6.1731
    -6.1535  -6.0964  -6.0778  -6.0267  -5.8899  -5.8582  -5.7913  -5.7207
    -5.7112  -5.6946  -5.5758  -5.5516  -5.5276  -5.5147  -5.4346  -5.3336
    -5.3158  -5.2503  -5.1748  -5.1648  -5.1067  -5.0390  -4.9020  -4.8417
    -4.7846  -4.7669  -4.7311  -4.6414  -4.6246  -4.5484  -4.5005  -4.4713
    -4.3768  -4.3642  -4.2984  -4.2668  -4.1668  -4.0948  -4.0482  -3.9883
    -3.9260  -3.8791  -3.8648  -3.8527  -3.7203  -3.7005  -3.6325  -3.6146
    -3.5091  -3.4950  -3.4726  -3.4232  -3.3570  -3.2640  -3.2407  -3.1858
    -3.1177  -3.0595  -3.0086  -2.9133  -2.8822  -2.8465  -2.7608  -2.6329
    -2.5725  -2.5462  -2.5049  -2.4716  -2.3689  -2.2940  -2.2534  -2.1996
    -2.1221  -2.0580

     the Fermi energy is    -3.5704 ev

!    total energy              =    -499.28045986 Ry
     estimated scf accuracy    <       0.00000062 Ry
     smearing contrib. (-TS)   =      -0.17325520 Ry
     internal energy E=F+TS    =    -499.10720466 Ry

     The total energy is F=E-TS. E is the sum of the following terms:
     one-electron contribution =   -2778.36621886 Ry
     hartree contribution      =    1407.70245971 Ry
     xc contribution           =    -146.92699365 Ry
     ewald contribution        =    1018.48354814 Ry

     convergence has been achieved in  31 iterations

     Forces acting on atoms (cartesian axes, Ry/au):

     atom    1 type  1   force =    -0.12241546   -0.13395536   -0.00150236
     atom    2 type  1   force =    -0.01780792   -0.02010795   -0.01815689
     atom    3 type  1   force =     0.00908042    0.02567734   -0.04239870
     atom    4 type  1   force =     0.05173219    0.05297620   -0.03254173
     atom    5 type  1   force =     0.00390608   -0.04102640   -0.01698093
     atom    6 type  1   force =    -0.02085687    0.00568197    0.01277621
     atom    7 type  1   force =     0.05420022    0.11127469    0.00048822
     atom    8 type  1   force =     0.03025873    0.06368561    0.00176367
     atom    9 type  1   force =     0.00125612    0.00991942   -0.03203469
     atom   10 type  1   force =    -0.00544896   -0.03487442   -0.03654702
     atom   11 type  1   force =     0.00763147   -0.00074944    0.01092793
     atom   12 type  1   force =    -0.04839246   -0.04687917   -0.03462066
     atom   13 type  1   force =     0.03636167   -0.03024547    0.03395637
     atom   14 type  1   force =    -0.00479480    0.05642470    0.00303704
     atom   15 type  1   force =    -0.00217588   -0.02893973    0.03230176
     atom   16 type  1   force =     0.01590520   -0.00902064   -0.00255432
     atom   17 type  1   force =     0.00387977    0.01376766   -0.00020917
     atom   18 type  1   force =     0.10593686    0.07350500    0.06001852
     atom   19 type  1   force =    -0.01088534   -0.02578106    0.01529481
     atom   20 type  1   force =     0.05201230   -0.01546745    0.03115788
     atom   21 type  1   force =    -0.02569659    0.00635997   -0.01456421
     atom   22 type  1   force =     0.03559890    0.05523007   -0.07377240
     atom   23 type  1   force =    -0.04529051    0.10333576    0.03227991
     atom   24 type  1   force =     0.01349486    0.00131907    0.02762201
     atom   25 type  1   force =    -0.03226231   -0.06024325    0.00222857
     atom   26 type  1   force =    -0.00907710   -0.02203833   -0.00783875
     atom   27 type  1   force =    -0.04249505   -0.06108363   -0.03217348
     atom   28 type  1   force =     0.02502001   -0.03358772   -0.01273060
     atom   29 type  1   force =     0.02037577    0.00065024   -0.04479093
     atom   30 type  1   force =    -0.06464448    0.04991133   -0.03509691
     atom   31 type  1   force =     0.01668508    0.01541143    0.00063385
     atom   32 type  1   force =    -0.01136199    0.01915782    0.00367197
     atom   33 type  1   force =     0.02920506   -0.04259509    0.01809233
     atom   34 type  1   force =     0.05826034    0.04810691   -0.00682567
     atom   35 type  1   force =     0.00167885   -0.04335531    0.02284983
     atom   36 type  1   force =     0.01277639   -0.02660136   -0.02424982
     atom   37 type  1   force =    -0.01462801   -0.00654896    0.02107243
     atom   38 type  1   force =     0.07586993   -0.04473785    0.03981125
     atom   39 type  1   force =    -0.03613805    0.04982287    0.06478091
     atom   40 type  1   force =    -0.07850733   -0.06282464   -0.12629882
     atom   41 type  1   force =     0.07380140   -0.00490677    0.01699499
     atom   42 type  1   force =     0.01488360    0.00371535    0.01141138
     atom   43 type  1   force =     0.00565850   -0.08387314   -0.07151357
     atom   44 type  1   force =    -0.06951602    0.01062688   -0.01402924
     atom   45 type  1   force =    -0.06489934   -0.01284711   -0.02731764
     atom   46 type  1   force =     0.00839405    0.01033251    0.03248564
     atom   47 type  1   force =    -0.03290934   -0.02742280    0.00110105
     atom   48 type  1   force =     0.03023217    0.08350531    0.04601662
     atom   49 type  1   force =    -0.03742152    0.04591110    0.04561551
     atom   50 type  1   force =     0.00135352   -0.04139845    0.00041224
     atom   51 type  1   force =     0.00460832   -0.00026265   -0.00305151
     atom   52 type  1   force =    -0.05330780   -0.08103921    0.08833122
     atom   53 type  1   force =     0.01772482    0.01564002    0.00119229
     atom   54 type  1   force =     0.00873847   -0.01457569   -0.00203380
     atom   55 type  1   force =    -0.01091750    0.05255204    0.00695242
     atom   56 type  1   force =    -0.02431974   -0.02000083   -0.02143253
     atom   57 type  1   force =     0.01937192   -0.01611655   -0.01892602
     atom   58 type  1   force =     0.07261605    0.09079364    0.07737895
     atom   59 type  1   force =    -0.01159215    0.05195222   -0.07341439
     atom   60 type  1   force =    -0.02495103   -0.02002531   -0.06354118
     atom   61 type  1   force =     0.01914832   -0.02174604   -0.00238201
     atom   62 type  1   force =    -0.02152649   -0.00828007    0.06795299
     atom   63 type  1   force =    -0.03087770    0.02285952    0.01727024
     atom   64 type  1   force =     0.03746041   -0.00694879    0.04564893

     Total force =     0.577534     Total SCF correction =     0.000993


     Computing stress (Cartesian axis) and pressure

          total   stress  (Ry/bohr**3)                   (kbar)     P=       -0.09
  -0.00000738   0.00001150   0.00000627           -1.09        1.69        0.92
   0.00001150   0.00000787   0.00000127            1.69        1.16        0.19
   0.00000627   0.00000127  -0.00000241            0.92        0.19       -0.35

 
     init_run     :      1.95s CPU      5.60s WALL (       1 calls)
     electrons    :     18.01s CPU     18.75s WALL (       1 calls)
     forces       :      0.18s CPU      0.19s WALL (       1 calls)
     stress       :      1.40s CPU      1.43s WALL (       1 calls)

     Called by init_run:
     wfcinit      :      0.74s CPU      3.96s WALL (       1 calls)
                                        3.96s GPU  (       1 calls)
     potinit      :      0.17s CPU      0.30s WALL (       1 calls)
     hinit0       :      0.83s CPU      0.86s WALL (       1 calls)

     Called by electrons:
     c_bands      :      7.04s CPU      7.19s WALL (      31 calls)
     sum_band     :      4.53s CPU      4.84s WALL (      31 calls)
     v_of_rho     :      2.45s CPU      2.67s WALL (      32 calls)
     mix_rho      :      3.17s CPU      3.31s WALL (      31 calls)

     Called by c_bands:
     init_us_2    :      0.09s CPU      0.11s WALL (      63 calls)
     init_us_2:gp :      0.08s CPU      0.10s WALL (      63 calls)
     regterg      :      5.91s CPU      6.04s WALL (      31 calls)

     Called by *egterg:
     rdiaghg      :      0.43s CPU      1.03s WALL (     106 calls)
                                        1.01s GPU  (     106 calls)
     h_psi        :      4.99s CPU      7.73s WALL (     107 calls)
                                        7.69s GPU  (     107 calls)
     g_psi        :      0.00s CPU      0.04s WALL (      75 calls)
                                        0.04s GPU  (      75 calls)

     Called by h_psi:
     h_psi:calbec :      0.59s CPU      2.79s WALL (     107 calls)
                                        2.79s GPU  (     107 calls)
     vloc_psi     :      4.15s CPU      4.63s WALL (     107 calls)
                                        4.60s GPU  (     107 calls)
     add_vuspsi   :      0.04s CPU      0.19s WALL (     107 calls)
                                        0.19s GPU  (     107 calls)

     General routines
     calbec       :      0.61s CPU      2.81s WALL (     112 calls)
     fft          :      4.27s CPU      4.65s WALL (     262 calls)
                                        0.32s GPU  (     166 calls)
     ffts         :      1.26s CPU      1.34s WALL (      31 calls)
     fftw         :      4.43s CPU      5.65s WALL (    3129 calls)
                                        4.65s GPU  (    3129 calls)
 
     Parallel routines
 
     PWSCF        :     21.58s CPU     26.17s WALL

 
   This run was terminated on:  15:15:51  11May2023            

=------------------------------------------------------------------------------=
   JOB DONE.
=------------------------------------------------------------------------------=
