An instance of this daemon is already running
An instance of this daemon is already running

     Program PWSCF v.7.1 starts on 11May2023 at 15:23:55 

     This program is part of the open-source Quantum ESPRESSO suite
     for quantum simulation of materials; please cite
         "P. Giannozzi et al., J. Phys.:Condens. Matter 21 395502 (2009);
         "P. Giannozzi et al., J. Phys.:Condens. Matter 29 465901 (2017);
         "P. Giannozzi et al., J. Chem. Phys. 152 154105 (2020);
          URL http://www.quantum-espresso.org", 
     in publications or presentations arising from this work. More details at
     http://www.quantum-espresso.org/quote

     Parallel version (MPI & OpenMP), running on       4 processor cores
     Number of MPI processes:                 4
     Threads/MPI process:                     1

     MPI processes distributed on     1 nodes
     634424 MiB available memory on the printing compute node when the environment starts
 
     Reading input from pw-si-84.in
Warning: card &CELL ignored
Warning: card / ignored

     Current dimensions of program PWSCF are:
     Max number of different atomic species (ntypx) = 10
     Max number of k-points (npk) =  40000
     Max angular momentum in pseudopotentials (lmaxx) =  4

     IMPORTANT: XC functional enforced from input :
     Exchange-correlation= PBE
                           (   1   4   3   4   0   0   0)
     Any further DFT definition will be discarded
     Please, verify this is what you really want


     gamma-point specific algorithms are used
 
     K-points division:     npool     =       2
     R & G space division:  proc/nbgrp/npool/nimage =       2
     Subspace diagonalization in iterative solution of the eigenvalue problem:
     a serial algorithm will be used

     Message from routine divide_et_impera:
     suboptimal parallelization: some nodes have no k-points
 
     Parallelization info
     --------------------
     sticks:   dense  smooth     PW     G-vecs:    dense   smooth      PW
     Min      128736  128736  32415             49131221 49131221 6207077
     Max      128737  128737  32418             49131224 49131224 6207082
     Sum      257473  257473  64833             98262445 9826244512414159
 
     Using Slab Decomposition
 


     bravais-lattice index     =            0
     lattice parameter (alat)  =     164.1933  a.u.
     unit-cell volume          = 4426557.3152 (a.u.)^3
     number of atoms/cell      =           64
     number of atomic types    =            1
     number of electrons       =       256.00
     number of Kohn-Sham states=          154
     kinetic-energy cutoff     =      30.0000  Ry
     charge density cutoff     =     120.0000  Ry
     scf convergence threshold =      1.0E-06
     mixing beta               =       0.5000
     number of iterations used =            8  plain     mixing
     Exchange-correlation= PBE
                           (   1   4   3   4   0   0   0)

     GPU acceleration is ACTIVE.
     GPU-aware MPI enabled

     Message from routine print_cuda_info:
     High GPU oversubscription detected. Are you sure this is what you want?

     celldm(1)= 164.193274  celldm(2)=   0.000000  celldm(3)=   0.000000
     celldm(4)=   0.000000  celldm(5)=   0.000000  celldm(6)=   0.000000

     crystal axes: (cart. coord. in units of alat)
               a(1) = (   1.000000   0.000000   0.000000 )  
               a(2) = (   0.000000   1.000000   0.000000 )  
               a(3) = (   0.000000   0.000000   1.000000 )  

     reciprocal axes: (cart. coord. in units 2 pi/alat)
               b(1) = (  1.000000  0.000000  0.000000 )  
               b(2) = (  0.000000  1.000000  0.000000 )  
               b(3) = (  0.000000  0.000000  1.000000 )  


     PseudoPot. # 1 for Si read from file:
     /home/ppiaggi/pseudos/Si_ONCV_PBE_sr.upf
     MD5 check sum: 8553c464762ac42b85b1eed164b4d029
     Pseudo is Norm-conserving, Zval =  4.0
     Generated using ONCVPSP code by D. R. Hamann
     Using radial grid of 1510 points,  4 beta functions with: 
                l(1) =   0
                l(2) =   0
                l(3) =   1
                l(4) =   1

     atomic species   valence    mass     pseudopotential
        Si             4.00    28.08500     Si( 1.00)

     No symmetry found



   Cartesian axes

     site n.     atom                  positions (alat units)
         1           Si  tau(   1) = (   0.2197340   0.3687080   0.9292650  )
         2           Si  tau(   2) = (   0.2917250   0.4243380   0.2170760  )
         3           Si  tau(   3) = (   0.3737800   0.4275700   0.2563760  )
         4           Si  tau(   4) = (   0.1418020   0.5640640   0.1891350  )
         5           Si  tau(   5) = (   0.2787460   0.9831140   0.6958300  )
         6           Si  tau(   6) = (   0.2485320   0.3719610   0.9720240  )
         7           Si  tau(   7) = (   0.3223980   0.4306000   0.2343040  )
         8           Si  tau(   8) = (   0.2551780   0.4519020   0.1686730  )
         9           Si  tau(   9) = (   0.2755820   0.4396300   0.1530210  )
        10           Si  tau(  10) = (   0.4795300   0.3919700   0.4347760  )
        11           Si  tau(  11) = (   0.2990430   0.4481740   0.2105360  )
        12           Si  tau(  12) = (   0.2790960   0.9423160   0.6943440  )
        13           Si  tau(  13) = (   0.1161600   0.5553140   0.1907780  )
        14           Si  tau(  14) = (   0.3490370   0.4330750   0.2630820  )
        15           Si  tau(  15) = (   0.2627880   0.9641970   0.6903620  )
        16           Si  tau(  16) = (   0.2714730   0.3579390   0.9287630  )
        17           Si  tau(  17) = (   0.2245340   0.4860510   0.1902470  )
        18           Si  tau(  18) = (   0.2447760   0.3673510   0.9150870  )
        19           Si  tau(  19) = (   0.1311220   0.5546120   0.2120630  )
        20           Si  tau(  20) = (   0.2678470   0.9808680   0.6695710  )
        21           Si  tau(  21) = (   0.2641370   0.3838990   0.9302890  )
        22           Si  tau(  22) = (   0.2892790   0.9678820   0.6533570  )
        23           Si  tau(  23) = (   0.3496700   0.4150560   0.2453130  )
        24           Si  tau(  24) = (   0.2748630   0.9532350   0.6672440  )
        25           Si  tau(  25) = (   0.2337580   0.4586970   0.1847560  )
        26           Si  tau(  26) = (   0.3865640   0.4457260   0.2968530  )
        27           Si  tau(  27) = (   0.4799720   0.4191100   0.4080350  )
        28           Si  tau(  28) = (   0.1214530   0.5808920   0.1994490  )
        29           Si  tau(  29) = (   0.5097170   0.4175630   0.4069130  )
        30           Si  tau(  30) = (   0.2093550   0.5026840   0.1783420  )
        31           Si  tau(  31) = (   0.3946070   0.4209470   0.2990590  )
        32           Si  tau(  32) = (   0.4621920   0.3987180   0.4140990  )
        33           Si  tau(  33) = (   0.2146080   0.4759250   0.1711150  )
        34           Si  tau(  34) = (   0.4941880   0.3951210   0.4098180  )
        35           Si  tau(  35) = (   0.2730440   0.4694080   0.1817030  )
        36           Si  tau(  36) = (   0.3036560   0.9528620   0.6732470  )
        37           Si  tau(  37) = (   0.2934550   0.4458160   0.1738010  )
        38           Si  tau(  38) = (   0.2412890   0.4805070   0.1708340  )
        39           Si  tau(  39) = (   0.2992930   0.9609490   0.7001480  )
        40           Si  tau(  40) = (   0.2616260   0.3645870   0.9510040  )
        41           Si  tau(  41) = (   0.2314610   0.3784370   0.9529360  )
        42           Si  tau(  42) = (   0.4663900   0.4238940   0.4296110  )
        43           Si  tau(  43) = (   0.2956550   0.4264450   0.1921260  )
        44           Si  tau(  44) = (   0.1741760   0.5296330   0.1799260  )
        45           Si  tau(  45) = (   0.2378320   0.3920230   0.9288210  )
        46           Si  tau(  46) = (   0.2970020   0.4240040   0.1612100  )
        47           Si  tau(  47) = (   0.5125930   0.3939780   0.4290350  )
        48           Si  tau(  48) = (   0.2462730   0.3479080   0.9364370  )
        49           Si  tau(  49) = (   0.4671270   0.4276970   0.4569880  )
        50           Si  tau(  50) = (   0.2677690   0.4235610   0.1752900  )
        51           Si  tau(  51) = (   0.1202430   0.5761080   0.1732810  )
        52           Si  tau(  52) = (   0.3966260   0.4366050   0.2753230  )
        53           Si  tau(  53) = (   0.2768150   0.4432460   0.1952850  )
        54           Si  tau(  54) = (   0.4885830   0.4349610   0.4403510  )
        55           Si  tau(  55) = (   0.1474560   0.5382600   0.1931130  )
        56           Si  tau(  56) = (   0.1669190   0.5534460   0.1908320  )
        57           Si  tau(  57) = (   0.2558950   0.4614660   0.2048550  )
        58           Si  tau(  58) = (   0.2516180   0.3964280   0.9547490  )
        59           Si  tau(  59) = (   0.3020080   0.9803880   0.6750950  )
        60           Si  tau(  60) = (   0.3745180   0.4223850   0.2846350  )
        61           Si  tau(  61) = (   0.4748170   0.4038580   0.4591580  )
        62           Si  tau(  62) = (   0.2760800   0.9620550   0.7146880  )
        63           Si  tau(  63) = (   0.5140760   0.4251360   0.4326670  )
        64           Si  tau(  64) = (   0.5006850   0.4036600   0.4507900  )

     number of k points=     1  Fermi-Dirac smearing, width (Ry)=  0.0100
                       cart. coord. in units 2pi/alat
        k(    1) = (   0.0000000   0.0000000   0.0000000), wk =   2.0000000

     Dense  grid: 49131223 G-vectors     FFT dimensions: ( 576, 576, 576)
