An instance of this daemon is already running
An instance of this daemon is already running

     Program PWSCF v.7.1 starts on 11May2023 at 15:14:58 

     This program is part of the open-source Quantum ESPRESSO suite
     for quantum simulation of materials; please cite
         "P. Giannozzi et al., J. Phys.:Condens. Matter 21 395502 (2009);
         "P. Giannozzi et al., J. Phys.:Condens. Matter 29 465901 (2017);
         "P. Giannozzi et al., J. Chem. Phys. 152 154105 (2020);
          URL http://www.quantum-espresso.org", 
     in publications or presentations arising from this work. More details at
     http://www.quantum-espresso.org/quote

     Parallel version (MPI & OpenMP), running on       4 processor cores
     Number of MPI processes:                 4
     Threads/MPI process:                     1

     MPI processes distributed on     1 nodes
     634539 MiB available memory on the printing compute node when the environment starts
 
     Reading input from pw-si-65.in
Warning: card &CELL ignored
Warning: card / ignored

     Current dimensions of program PWSCF are:
     Max number of different atomic species (ntypx) = 10
     Max number of k-points (npk) =  40000
     Max angular momentum in pseudopotentials (lmaxx) =  4

     IMPORTANT: XC functional enforced from input :
     Exchange-correlation= PBE
                           (   1   4   3   4   0   0   0)
     Any further DFT definition will be discarded
     Please, verify this is what you really want


     gamma-point specific algorithms are used
 
     K-points division:     npool     =       2
     R & G space division:  proc/nbgrp/npool/nimage =       2
     Subspace diagonalization in iterative solution of the eigenvalue problem:
     a serial algorithm will be used

     Message from routine divide_et_impera:
     suboptimal parallelization: some nodes have no k-points
 
     Parallelization info
     --------------------
     sticks:   dense  smooth     PW     G-vecs:    dense   smooth      PW
     Min        8855    8855   2268               886397   886397  115192
     Max        8858    8858   2269               886402   886402  115197
     Sum       17713   17713   4537              1772799  1772799  230389
 
     Using Slab Decomposition
 


     bravais-lattice index     =            0
     lattice parameter (alat)  =      43.0643  a.u.
     unit-cell volume          =   79864.4778 (a.u.)^3
     number of atoms/cell      =           64
     number of atomic types    =            1
     number of electrons       =       256.00
     number of Kohn-Sham states=          154
     kinetic-energy cutoff     =      30.0000  Ry
     charge density cutoff     =     120.0000  Ry
     scf convergence threshold =      1.0E-06
     mixing beta               =       0.5000
     number of iterations used =            8  plain     mixing
     Exchange-correlation= PBE
                           (   1   4   3   4   0   0   0)

     GPU acceleration is ACTIVE.
     GPU-aware MPI enabled

     Message from routine print_cuda_info:
     High GPU oversubscription detected. Are you sure this is what you want?

     celldm(1)=  43.064349  celldm(2)=   0.000000  celldm(3)=   0.000000
     celldm(4)=   0.000000  celldm(5)=   0.000000  celldm(6)=   0.000000

     crystal axes: (cart. coord. in units of alat)
               a(1) = (   1.000000   0.000000   0.000000 )  
               a(2) = (   0.000000   1.000000   0.000000 )  
               a(3) = (   0.000000   0.000000   1.000000 )  

     reciprocal axes: (cart. coord. in units 2 pi/alat)
               b(1) = (  1.000000  0.000000  0.000000 )  
               b(2) = (  0.000000  1.000000  0.000000 )  
               b(3) = (  0.000000  0.000000  1.000000 )  


     PseudoPot. # 1 for Si read from file:
     /home/ppiaggi/pseudos/Si_ONCV_PBE_sr.upf
     MD5 check sum: 8553c464762ac42b85b1eed164b4d029
     Pseudo is Norm-conserving, Zval =  4.0
     Generated using ONCVPSP code by D. R. Hamann
     Using radial grid of 1510 points,  4 beta functions with: 
                l(1) =   0
                l(2) =   0
                l(3) =   1
                l(4) =   1

     atomic species   valence    mass     pseudopotential
        Si             4.00    28.08500     Si( 1.00)

     No symmetry found



   Cartesian axes

     site n.     atom                  positions (alat units)
         1           Si  tau(   1) = (   0.2200790   0.2528640   0.7720250  )
         2           Si  tau(   2) = (   0.4378080   0.5263240   0.2378880  )
         3           Si  tau(   3) = (   0.4551260   0.4205320   0.2200130  )
         4           Si  tau(   4) = (   0.9364630   0.6621400   0.1954730  )
         5           Si  tau(   5) = (   0.2218640   0.0610909   0.7083090  )
         6           Si  tau(   6) = (   0.2683590   0.3790860   0.9595900  )
         7           Si  tau(   7) = (   0.4939310   0.4876990   0.3093370  )
         8           Si  tau(   8) = (   0.2238370   0.5708060   0.0461591  )
         9           Si  tau(   9) = (   0.2760860   0.4833670   0.9951440  )
        10           Si  tau(  10) = (   0.6192400   0.3765750   0.5739080  )
        11           Si  tau(  11) = (   0.1603680   0.4453540   0.1458830  )
        12           Si  tau(  12) = (   0.2699580   0.8782770   0.6412950  )
        13           Si  tau(  13) = (   0.9597540   0.5793490   0.2659820  )
        14           Si  tau(  14) = (   0.2860730   0.5216570   0.4209620  )
        15           Si  tau(  15) = (   0.2243580   0.9466430   0.6993810  )
        16           Si  tau(  16) = (   0.3030450   0.1761690   0.8896080  )
        17           Si  tau(  17) = (   0.1690250   0.5131400   0.2391140  )
        18           Si  tau(  18) = (   0.3165270   0.3215790   0.7686140  )
        19           Si  tau(  19) = (   0.0808936   0.6113970   0.1552630  )
        20           Si  tau(  20) = (   0.2271130   0.0570389   0.6086400  )
        21           Si  tau(  21) = (   0.3244050   0.2212990   0.7939970  )
        22           Si  tau(  22) = (   0.3294690   0.9543310   0.5817800  )
        23           Si  tau(  23) = (   0.3006490   0.4492210   0.2368450  )
        24           Si  tau(  24) = (   0.2278070   0.9625560   0.5919870  )
        25           Si  tau(  25) = (   0.1804420   0.4640800   0.0414154  )
        26           Si  tau(  26) = (   0.3773280   0.5178630   0.3234210  )
        27           Si  tau(  27) = (   0.4647380   0.2859980   0.4239880  )
        28           Si  tau(  28) = (   0.8625750   0.5991050   0.1755110  )
        29           Si  tau(  29) = (   0.4333900   0.4120460   0.4817980  )
        30           Si  tau(  30) = (   0.1200390   0.6528430   0.2374260  )
        31           Si  tau(  31) = (   0.3980870   0.3554840   0.3962830  )
        32           Si  tau(  32) = (   0.4923660   0.4206190   0.5725980  )
        33           Si  tau(  33) = (   0.2071510   0.5663060   0.1631220  )
        34           Si  tau(  34) = (   0.5085430   0.3365980   0.5154380  )
        35           Si  tau(  35) = (   0.3209010   0.5534900   0.2469140  )
        36           Si  tau(  36) = (   0.3618850   0.9546090   0.6814100  )
        37           Si  tau(  37) = (   0.4329280   0.4711210   0.1433890  )
        38           Si  tau(  38) = (   0.2245010   0.6044790   0.2700570  )
        39           Si  tau(  39) = (   0.3015950   0.0132253   0.7496670  )
        40           Si  tau(  40) = (   0.1981200   0.1747470   0.8562260  )
        41           Si  tau(  41) = (   0.3238080   0.2824480   0.8671110  )
        42           Si  tau(  42) = (   0.3937850   0.4155860   0.5824730  )
        43           Si  tau(  43) = (   0.3780720   0.3537780   0.2453300  )
        44           Si  tau(  44) = (   0.1445340   0.6146500   0.0788509  )
        45           Si  tau(  45) = (   0.2078700   0.2782400   0.8626400  )
        46           Si  tau(  46) = (   0.3566280   0.5138290   0.0680673  )
        47           Si  tau(  47) = (   0.5229690   0.4169960   0.4441040  )
        48           Si  tau(  48) = (   0.2478000   0.1595130   0.7721280  )
        49           Si  tau(  49) = (   0.5784790   0.4800400   0.5681440  )
        50           Si  tau(  50) = (   0.2526320   0.3963580   0.0591289  )
        51           Si  tau(  51) = (   0.9582080   0.5657360   0.1743270  )
        52           Si  tau(  52) = (   0.4615270   0.3754570   0.3107830  )
        53           Si  tau(  53) = (   0.3353330   0.4298700   0.1313660  )
        54           Si  tau(  54) = (   0.6125030   0.5007650   0.4517820  )
        55           Si  tau(  55) = (   0.0850097   0.5149470   0.1588560  )
        56           Si  tau(  56) = (   0.0626818   0.5709870   0.2469730  )
        57           Si  tau(  57) = (   0.2435570   0.5192140   0.3358750  )
        58           Si  tau(  58) = (   0.2507160   0.2520800   0.9458510  )
        59           Si  tau(  59) = (   0.3287050   0.0401413   0.6367840  )
        60           Si  tau(  60) = (   0.3326930   0.4401980   0.3693440  )
        61           Si  tau(  61) = (   0.6686730   0.4665620   0.5308440  )
        62           Si  tau(  62) = (   0.3033270   0.9053280   0.7472740  )
        63           Si  tau(  63) = (   0.6235790   0.4002110   0.4812530  )
        64           Si  tau(  64) = (   0.5423120   0.3248780   0.6127480  )

     number of k points=     1  Fermi-Dirac smearing, width (Ry)=  0.0100
                       cart. coord. in units 2pi/alat
        k(    1) = (   0.0000000   0.0000000   0.0000000), wk =   2.0000000

     Dense  grid:   886400 G-vectors     FFT dimensions: ( 160, 160, 160)

     Estimated max dynamical RAM per process >       1.38 GB

     Estimated total dynamical RAM >       5.30 GB

     Initial potential from superposition of free atoms

     starting charge     255.9608, renormalised to     256.0000

     negative rho (up, down):  2.308E-04 0.000E+00
     Starting wfcs are  256 randomized atomic wfcs

     total cpu time spent up to now is        6.0 secs

     Self-consistent Calculation

     iteration #  1     ecut=    30.00 Ry     beta= 0.50
     Davidson diagonalization with overlap
     ethr =  1.00E-02,  avg # of iterations =  2.0

     total cpu time spent up to now is        6.6 secs

     total energy              =    -497.92034561 Ry
     estimated scf accuracy    <       3.30870339 Ry

     iteration #  2     ecut=    30.00 Ry     beta= 0.50
     Davidson diagonalization with overlap
     ethr =  1.29E-03,  avg # of iterations =  9.0

     total cpu time spent up to now is        7.4 secs

     total energy              =    -494.23255116 Ry
     estimated scf accuracy    <      67.11980269 Ry

     iteration #  3     ecut=    30.00 Ry     beta= 0.50
     Davidson diagonalization with overlap
     ethr =  1.29E-03,  avg # of iterations =  7.0

     total cpu time spent up to now is        8.0 secs

     total energy              =    -498.21812279 Ry
     estimated scf accuracy    <      11.87396606 Ry

     iteration #  4     ecut=    30.00 Ry     beta= 0.50
     Davidson diagonalization with overlap
     ethr =  1.29E-03,  avg # of iterations =  3.0

     total cpu time spent up to now is        8.6 secs

     total energy              =    -498.48777616 Ry
     estimated scf accuracy    <       8.75783934 Ry

     iteration #  5     ecut=    30.00 Ry     beta= 0.50
     Davidson diagonalization with overlap
     ethr =  1.29E-03,  avg # of iterations =  2.0

     total cpu time spent up to now is        9.1 secs

     total energy              =    -498.91200791 Ry
     estimated scf accuracy    <       2.01543991 Ry

     iteration #  6     ecut=    30.00 Ry     beta= 0.50
     Davidson diagonalization with overlap
     ethr =  7.87E-04,  avg # of iterations =  2.0

     total cpu time spent up to now is        9.7 secs

     total energy              =    -498.97082236 Ry
     estimated scf accuracy    <       2.52538287 Ry

     iteration #  7     ecut=    30.00 Ry     beta= 0.50
     Davidson diagonalization with overlap
     ethr =  7.87E-04,  avg # of iterations =  1.0

     total cpu time spent up to now is       10.2 secs

     total energy              =    -499.02963771 Ry
     estimated scf accuracy    <       1.52101705 Ry

     iteration #  8     ecut=    30.00 Ry     beta= 0.50
     Davidson diagonalization with overlap
     ethr =  5.94E-04,  avg # of iterations =  1.0

     total cpu time spent up to now is       10.8 secs

     total energy              =    -499.09624695 Ry
     estimated scf accuracy    <       0.39947784 Ry

     iteration #  9     ecut=    30.00 Ry     beta= 0.50
     Davidson diagonalization with overlap
     ethr =  1.56E-04,  avg # of iterations =  1.0

     total cpu time spent up to now is       11.4 secs

     total energy              =    -499.10552393 Ry
     estimated scf accuracy    <       0.25150233 Ry

     iteration # 10     ecut=    30.00 Ry     beta= 0.50
     Davidson diagonalization with overlap
     ethr =  9.82E-05,  avg # of iterations =  2.0

     total cpu time spent up to now is       11.9 secs

     total energy              =    -499.11772390 Ry
     estimated scf accuracy    <       0.07700476 Ry

     iteration # 11     ecut=    30.00 Ry     beta= 0.50
     Davidson diagonalization with overlap
     ethr =  3.01E-05,  avg # of iterations =  9.0

     total cpu time spent up to now is       12.6 secs

     total energy              =    -499.12001499 Ry
     estimated scf accuracy    <       0.05083531 Ry

     iteration # 12     ecut=    30.00 Ry     beta= 0.50
     Davidson diagonalization with overlap
     ethr =  1.99E-05,  avg # of iterations =  2.0

     total cpu time spent up to now is       13.2 secs

     total energy              =    -499.12316780 Ry
     estimated scf accuracy    <       0.01572315 Ry

     iteration # 13     ecut=    30.00 Ry     beta= 0.50
     Davidson diagonalization with overlap
     ethr =  6.14E-06,  avg # of iterations =  3.0

     total cpu time spent up to now is       13.8 secs

     total energy              =    -499.12358172 Ry
     estimated scf accuracy    <       0.02440164 Ry

     iteration # 14     ecut=    30.00 Ry     beta= 0.50
     Davidson diagonalization with overlap
     ethr =  6.14E-06,  avg # of iterations = 12.0

     total cpu time spent up to now is       14.4 secs

     total energy              =    -499.12506134 Ry
     estimated scf accuracy    <       0.00966441 Ry

     iteration # 15     ecut=    30.00 Ry     beta= 0.50
     Davidson diagonalization with overlap
     ethr =  3.78E-06,  avg # of iterations =  2.0

     total cpu time spent up to now is       15.0 secs

     total energy              =    -499.12545083 Ry
     estimated scf accuracy    <       0.00329796 Ry

     iteration # 16     ecut=    30.00 Ry     beta= 0.50
     Davidson diagonalization with overlap
     ethr =  1.29E-06,  avg # of iterations =  2.0

     total cpu time spent up to now is       15.6 secs

     total energy              =    -499.12569631 Ry
     estimated scf accuracy    <       0.00058851 Ry

     iteration # 17     ecut=    30.00 Ry     beta= 0.50
     Davidson diagonalization with overlap
     ethr =  2.30E-07,  avg # of iterations =  4.0

     total cpu time spent up to now is       16.2 secs

     total energy              =    -499.12568239 Ry
     estimated scf accuracy    <       0.00182769 Ry

     iteration # 18     ecut=    30.00 Ry     beta= 0.50
     Davidson diagonalization with overlap
     ethr =  2.30E-07,  avg # of iterations =  3.0

     total cpu time spent up to now is       16.8 secs

     total energy              =    -499.12571093 Ry
     estimated scf accuracy    <       0.00153826 Ry

     iteration # 19     ecut=    30.00 Ry     beta= 0.50
     Davidson diagonalization with overlap
     ethr =  2.30E-07,  avg # of iterations =  2.0

     total cpu time spent up to now is       17.4 secs

     total energy              =    -499.12576693 Ry
     estimated scf accuracy    <       0.00062158 Ry

     iteration # 20     ecut=    30.00 Ry     beta= 0.50
     Davidson diagonalization with overlap
     ethr =  2.30E-07,  avg # of iterations =  1.0

     total cpu time spent up to now is       17.9 secs

     total energy              =    -499.12579110 Ry
     estimated scf accuracy    <       0.00026062 Ry

     iteration # 21     ecut=    30.00 Ry     beta= 0.50
     Davidson diagonalization with overlap
     ethr =  1.02E-07,  avg # of iterations =  1.0

     total cpu time spent up to now is       18.5 secs

     total energy              =    -499.12580590 Ry
     estimated scf accuracy    <       0.00006900 Ry

     iteration # 22     ecut=    30.00 Ry     beta= 0.50
     Davidson diagonalization with overlap
     ethr =  2.70E-08,  avg # of iterations =  2.0

     total cpu time spent up to now is       19.1 secs

     total energy              =    -499.12581108 Ry
     estimated scf accuracy    <       0.00001950 Ry

     iteration # 23     ecut=    30.00 Ry     beta= 0.50
     Davidson diagonalization with overlap
     ethr =  7.62E-09,  avg # of iterations =  2.0

     total cpu time spent up to now is       19.7 secs

     total energy              =    -499.12581106 Ry
     estimated scf accuracy    <       0.00001576 Ry

     iteration # 24     ecut=    30.00 Ry     beta= 0.50
     Davidson diagonalization with overlap
     ethr =  6.15E-09,  avg # of iterations =  2.0

     total cpu time spent up to now is       20.2 secs

     total energy              =    -499.12581054 Ry
     estimated scf accuracy    <       0.00006554 Ry

     iteration # 25     ecut=    30.00 Ry     beta= 0.50
     Davidson diagonalization with overlap
     ethr =  6.15E-09,  avg # of iterations =  1.0

     total cpu time spent up to now is       20.8 secs

     total energy              =    -499.12581315 Ry
     estimated scf accuracy    <       0.00000417 Ry

     iteration # 26     ecut=    30.00 Ry     beta= 0.50
     Davidson diagonalization with overlap
     ethr =  1.63E-09,  avg # of iterations =  2.0

     total cpu time spent up to now is       21.4 secs

     total energy              =    -499.12581328 Ry
     estimated scf accuracy    <       0.00000190 Ry

     iteration # 27     ecut=    30.00 Ry     beta= 0.50
     Davidson diagonalization with overlap
     ethr =  7.43E-10,  avg # of iterations =  5.0

     total cpu time spent up to now is       22.0 secs

     total energy              =    -499.12581322 Ry
     estimated scf accuracy    <       0.00000539 Ry

     iteration # 28     ecut=    30.00 Ry     beta= 0.50
     Davidson diagonalization with overlap
     ethr =  7.43E-10,  avg # of iterations =  2.0

     total cpu time spent up to now is       22.6 secs

     total energy              =    -499.12581348 Ry
     estimated scf accuracy    <       0.00000172 Ry

     iteration # 29     ecut=    30.00 Ry     beta= 0.50
     Davidson diagonalization with overlap
     ethr =  6.74E-10,  avg # of iterations =  1.0

     total cpu time spent up to now is       23.0 secs

     End of self-consistent calculation

          k = 0.0000 0.0000 0.0000 (110788 PWs)   bands (ev):

   -16.2961 -16.2309 -15.9091 -15.8741 -15.3142 -15.1543 -14.6912 -14.5141
   -14.3062 -13.7064 -13.5727 -13.5432 -13.5085 -13.3531 -13.2804 -13.1496
   -13.0901 -12.9960 -12.8825 -12.7666 -12.6521 -12.3243 -12.2469 -12.1491
   -11.5829 -11.5520 -11.3338 -11.2732 -11.2163 -11.0815 -10.8305 -10.6920
   -10.5945 -10.4065 -10.3263 -10.1777  -9.9249  -9.8791  -9.8561  -9.7392
    -9.6789  -9.6128  -9.4819  -9.3646  -9.3220  -9.0501  -8.9260  -8.8801
    -8.7574  -8.7164  -8.7132  -8.6464  -8.6206  -8.5531  -8.3533  -8.2619
    -8.1005  -7.8293  -7.7926  -7.7071  -7.6693  -7.4705  -7.3388  -7.2757
    -7.2036  -7.0014  -6.9135  -6.8862  -6.8530  -6.8036  -6.7326  -6.7037
    -6.6138  -6.5466  -6.5046  -6.4574  -6.3729  -6.3278  -6.2122  -6.0831
    -6.0638  -6.0151  -6.0005  -5.9486  -5.9372  -5.8647  -5.7514  -5.6506
    -5.6400  -5.5403  -5.5143  -5.4631  -5.4251  -5.3690  -5.2824  -5.2654
    -5.1065  -5.0655  -5.0430  -4.9506  -4.9220  -4.9177  -4.8783  -4.8527
    -4.7838  -4.7716  -4.7317  -4.5955  -4.5764  -4.4784  -4.4562  -4.3577
    -4.2523  -4.2399  -4.2072  -4.1024  -4.0029  -3.9853  -3.9411  -3.8791
    -3.8094  -3.7497  -3.6831  -3.6671  -3.6252  -3.6027  -3.5691  -3.5389
    -3.4567  -3.4214  -3.3594  -3.2649  -3.2301  -3.1641  -3.1055  -3.0931
    -3.0190  -2.9204  -2.8940  -2.8502  -2.7528  -2.6857  -2.6377  -2.6265
    -2.5154  -2.4480  -2.4170  -2.3462  -2.2669  -2.2363  -2.1804  -2.1011
    -2.0200  -1.9531

     the Fermi energy is    -3.4659 ev

!    total energy              =    -499.12581330 Ry
     estimated scf accuracy    <       0.00000033 Ry
     smearing contrib. (-TS)   =      -0.17618124 Ry
     internal energy E=F+TS    =    -498.94963206 Ry

     The total energy is F=E-TS. E is the sum of the following terms:
     one-electron contribution =   -2714.15261664 Ry
     hartree contribution      =    1376.56162165 Ry
     xc contribution           =    -148.00319971 Ry
     ewald contribution        =     986.64456263 Ry

     convergence has been achieved in  29 iterations

     Forces acting on atoms (cartesian axes, Ry/au):

     atom    1 type  1   force =     0.00448508    0.05699404   -0.12897855
     atom    2 type  1   force =    -0.02693945    0.03278523   -0.08235957
     atom    3 type  1   force =     0.01114155   -0.03003317    0.06036768
     atom    4 type  1   force =     0.01781097    0.07243048    0.03066667
     atom    5 type  1   force =     0.00333357    0.00015337    0.03387973
     atom    6 type  1   force =    -0.01042173   -0.00755391   -0.00715529
     atom    7 type  1   force =    -0.00025371   -0.03855735    0.02457535
     atom    8 type  1   force =     0.06408250   -0.04843933   -0.00042482
     atom    9 type  1   force =     0.01624467   -0.00033332    0.00177660
     atom   10 type  1   force =     0.02624377    0.01594666    0.05627834
     atom   11 type  1   force =     0.02997121   -0.00656998    0.01433841
     atom   12 type  1   force =     0.02913318   -0.03541926   -0.03900413
     atom   13 type  1   force =     0.00257762    0.02018704    0.12042876
     atom   14 type  1   force =     0.04051505   -0.01754506    0.06130936
     atom   15 type  1   force =    -0.05463765    0.05451024    0.04686873
     atom   16 type  1   force =     0.00929544   -0.01497402    0.02271562
     atom   17 type  1   force =    -0.01298498   -0.05449842    0.05106167
     atom   18 type  1   force =    -0.02814937   -0.03671281    0.01172437
     atom   19 type  1   force =    -0.04992093    0.07620584   -0.05355498
     atom   20 type  1   force =    -0.00032828    0.07787604   -0.02119570
     atom   21 type  1   force =     0.04706938   -0.05931985   -0.12209844
     atom   22 type  1   force =     0.02161744   -0.03037367   -0.04224494
     atom   23 type  1   force =     0.01920882   -0.00588101    0.02579516
     atom   24 type  1   force =    -0.01385538   -0.07270511   -0.00731778
     atom   25 type  1   force =    -0.02665890    0.03222421   -0.00138594
     atom   26 type  1   force =     0.00386339   -0.01714588    0.03111321
     atom   27 type  1   force =     0.03895218    0.01162122    0.02564062
     atom   28 type  1   force =    -0.01809209   -0.01391147   -0.01685453
     atom   29 type  1   force =    -0.10287941   -0.00054813    0.02960838
     atom   30 type  1   force =     0.04289781    0.04264378    0.03448858
     atom   31 type  1   force =    -0.04048859    0.06372856   -0.02197992
     atom   32 type  1   force =     0.05188028   -0.00821724    0.03174301
     atom   33 type  1   force =     0.00129387    0.01700652   -0.05916431
     atom   34 type  1   force =    -0.01141886   -0.04600491   -0.04056837
     atom   35 type  1   force =     0.00022572    0.00887369   -0.00956438
     atom   36 type  1   force =     0.03431440   -0.02362995    0.00214544
     atom   37 type  1   force =    -0.02387323    0.06584358   -0.09110108
     atom   38 type  1   force =     0.00366343    0.00491895   -0.01362329
     atom   39 type  1   force =     0.03135586   -0.00962592   -0.00628319
     atom   40 type  1   force =    -0.02513193   -0.00937915    0.04439127
     atom   41 type  1   force =    -0.01685666    0.08791213    0.11752936
     atom   42 type  1   force =    -0.01718064   -0.00160377   -0.03343879
     atom   43 type  1   force =    -0.01805603    0.01510132    0.00173296
     atom   44 type  1   force =    -0.01663821    0.02773177    0.00668383
     atom   45 type  1   force =    -0.03936393    0.07424786    0.06963567
     atom   46 type  1   force =    -0.01142419   -0.00691979    0.01974388
     atom   47 type  1   force =     0.04793622    0.00963772   -0.04366451
     atom   48 type  1   force =     0.00151247   -0.09793414   -0.06165784
     atom   49 type  1   force =    -0.03431324    0.00167916   -0.02441291
     atom   50 type  1   force =     0.05117153   -0.01850265    0.03564554
     atom   51 type  1   force =     0.04208496   -0.09047465   -0.13047675
     atom   52 type  1   force =    -0.00327432   -0.01101275    0.04684935
     atom   53 type  1   force =    -0.02746560   -0.00131079    0.00505877
     atom   54 type  1   force =    -0.02199361    0.00433194   -0.00036369
     atom   55 type  1   force =    -0.02928976   -0.04058823    0.00518026
     atom   56 type  1   force =    -0.01667379   -0.05492205    0.03422924
     atom   57 type  1   force =    -0.03475502   -0.00153915   -0.11610562
     atom   58 type  1   force =     0.03445528    0.00104249    0.03635632
     atom   59 type  1   force =    -0.01364826    0.08235004    0.01024288
     atom   60 type  1   force =     0.00093812   -0.02065219    0.00689237
     atom   61 type  1   force =     0.12826929    0.06947338    0.07316840
     atom   62 type  1   force =    -0.02202433   -0.02224025    0.04219427
     atom   63 type  1   force =    -0.05029280   -0.06310202   -0.11855362
     atom   64 type  1   force =    -0.03826018   -0.00927594    0.02147290

     Total force =     0.615684     Total SCF correction =     0.000624


     Computing stress (Cartesian axis) and pressure

          total   stress  (Ry/bohr**3)                   (kbar)     P=        2.90
   0.00000864   0.00000127  -0.00000412            1.27        0.19       -0.61
   0.00000127   0.00002118  -0.00000276            0.19        3.12       -0.41
  -0.00000412  -0.00000276   0.00002935           -0.61       -0.41        4.32

 
     init_run     :      2.31s CPU      5.93s WALL (       1 calls)
     electrons    :     16.38s CPU     17.04s WALL (       1 calls)
     forces       :      0.17s CPU      0.18s WALL (       1 calls)
     stress       :      1.26s CPU      1.30s WALL (       1 calls)

     Called by init_run:
     wfcinit      :      1.12s CPU      4.33s WALL (       1 calls)
                                        4.33s GPU  (       1 calls)
     potinit      :      0.19s CPU      0.31s WALL (       1 calls)
     hinit0       :      0.81s CPU      0.85s WALL (       1 calls)

     Called by electrons:
     c_bands      :      6.73s CPU      6.85s WALL (      29 calls)
     sum_band     :      4.10s CPU      4.37s WALL (      29 calls)
     v_of_rho     :      2.10s CPU      2.31s WALL (      30 calls)
     mix_rho      :      2.67s CPU      2.81s WALL (      29 calls)

     Called by c_bands:
     init_us_2    :      0.09s CPU      0.09s WALL (      59 calls)
     init_us_2:gp :      0.08s CPU      0.09s WALL (      59 calls)
     regterg      :      5.69s CPU      5.79s WALL (      29 calls)

     Called by *egterg:
     rdiaghg      :      0.46s CPU      1.05s WALL (     117 calls)
                                        1.03s GPU  (     117 calls)
     h_psi        :      5.12s CPU      7.81s WALL (     118 calls)
                                        7.78s GPU  (     118 calls)
     g_psi        :      0.00s CPU      0.03s WALL (      88 calls)
                                        0.03s GPU  (      88 calls)

     Called by h_psi:
     h_psi:calbec :      0.97s CPU      3.16s WALL (     118 calls)
                                        3.16s GPU  (     118 calls)
     vloc_psi     :      3.90s CPU      4.36s WALL (     118 calls)
                                        4.33s GPU  (     118 calls)
     add_vuspsi   :      0.05s CPU      0.19s WALL (     118 calls)
                                        0.19s GPU  (     118 calls)

     General routines
     calbec       :      0.99s CPU      3.18s WALL (     123 calls)
     fft          :      3.72s CPU      4.08s WALL (     246 calls)
                                        0.31s GPU  (     156 calls)
     ffts         :      1.15s CPU      1.23s WALL (      29 calls)
     fftw         :      4.19s CPU      5.32s WALL (    2969 calls)
                                        4.39s GPU  (    2969 calls)
 
     Parallel routines
 
     PWSCF        :     20.17s CPU     24.64s WALL

 
   This run was terminated on:  15:15:23  11May2023            

=------------------------------------------------------------------------------=
   JOB DONE.
=------------------------------------------------------------------------------=
