An instance of this daemon is already running

     Program PWSCF v.7.1 starts on 11May2023 at 15:15:54 

     This program is part of the open-source Quantum ESPRESSO suite
     for quantum simulation of materials; please cite
         "P. Giannozzi et al., J. Phys.:Condens. Matter 21 395502 (2009);
         "P. Giannozzi et al., J. Phys.:Condens. Matter 29 465901 (2017);
         "P. Giannozzi et al., J. Chem. Phys. 152 154105 (2020);
          URL http://www.quantum-espresso.org", 
     in publications or presentations arising from this work. More details at
     http://www.quantum-espresso.org/quote

     Parallel version (MPI & OpenMP), running on       4 processor cores
     Number of MPI processes:                 4
     Threads/MPI process:                     1

     MPI processes distributed on     1 nodes
     634244 MiB available memory on the printing compute node when the environment starts
 
     Reading input from pw-si-67.in
Warning: card &CELL ignored
Warning: card / ignored

     Current dimensions of program PWSCF are:
     Max number of different atomic species (ntypx) = 10
     Max number of k-points (npk) =  40000
     Max angular momentum in pseudopotentials (lmaxx) =  4

     IMPORTANT: XC functional enforced from input :
     Exchange-correlation= PBE
                           (   1   4   3   4   0   0   0)
     Any further DFT definition will be discarded
     Please, verify this is what you really want


     gamma-point specific algorithms are used
 
     K-points division:     npool     =       2
     R & G space division:  proc/nbgrp/npool/nimage =       2
     Subspace diagonalization in iterative solution of the eigenvalue problem:
     a serial algorithm will be used

     Message from routine divide_et_impera:
     suboptimal parallelization: some nodes have no k-points
 
     Parallelization info
     --------------------
     sticks:   dense  smooth     PW     G-vecs:    dense   smooth      PW
     Min       10091   10091   2587              1077303  1077303  139819
     Max       10094   10094   2590              1077306  1077306  139822
     Sum       20185   20185   5177              2154609  2154609  279641
 
     Using Slab Decomposition
 


     bravais-lattice index     =            0
     lattice parameter (alat)  =      45.9554  a.u.
     unit-cell volume          =   97053.2669 (a.u.)^3
     number of atoms/cell      =           64
     number of atomic types    =            1
     number of electrons       =       256.00
     number of Kohn-Sham states=          154
     kinetic-energy cutoff     =      30.0000  Ry
     charge density cutoff     =     120.0000  Ry
     scf convergence threshold =      1.0E-06
     mixing beta               =       0.5000
     number of iterations used =            8  plain     mixing
     Exchange-correlation= PBE
                           (   1   4   3   4   0   0   0)

     GPU acceleration is ACTIVE.
     GPU-aware MPI enabled

     Message from routine print_cuda_info:
     High GPU oversubscription detected. Are you sure this is what you want?

     celldm(1)=  45.955418  celldm(2)=   0.000000  celldm(3)=   0.000000
     celldm(4)=   0.000000  celldm(5)=   0.000000  celldm(6)=   0.000000

     crystal axes: (cart. coord. in units of alat)
               a(1) = (   1.000000   0.000000   0.000000 )  
               a(2) = (   0.000000   1.000000   0.000000 )  
               a(3) = (   0.000000   0.000000   1.000000 )  

     reciprocal axes: (cart. coord. in units 2 pi/alat)
               b(1) = (  1.000000  0.000000  0.000000 )  
               b(2) = (  0.000000  1.000000  0.000000 )  
               b(3) = (  0.000000  0.000000  1.000000 )  


     PseudoPot. # 1 for Si read from file:
     /home/ppiaggi/pseudos/Si_ONCV_PBE_sr.upf
     MD5 check sum: 8553c464762ac42b85b1eed164b4d029
     Pseudo is Norm-conserving, Zval =  4.0
     Generated using ONCVPSP code by D. R. Hamann
     Using radial grid of 1510 points,  4 beta functions with: 
                l(1) =   0
                l(2) =   0
                l(3) =   1
                l(4) =   1

     atomic species   valence    mass     pseudopotential
        Si             4.00    28.08500     Si( 1.00)

     No symmetry found



   Cartesian axes

     site n.     atom                  positions (alat units)
         1           Si  tau(   1) = (   0.2306450   0.2529760   0.7521670  )
         2           Si  tau(   2) = (   0.4143630   0.5146590   0.2217560  )
         3           Si  tau(   3) = (   0.4768870   0.4165050   0.2126790  )
         4           Si  tau(   4) = (   0.9621640   0.6621600   0.1829260  )
         5           Si  tau(   5) = (   0.2535490   0.0699629   0.7166850  )
         6           Si  tau(   6) = (   0.2877960   0.3589770   0.9838040  )
         7           Si  tau(   7) = (   0.4658370   0.4872490   0.2948250  )
         8           Si  tau(   8) = (   0.2449220   0.5521680   0.0641920  )
         9           Si  tau(   9) = (   0.2690480   0.4632850   0.0134668  )
        10           Si  tau(  10) = (   0.5904990   0.3977070   0.5594990  )
        11           Si  tau(  11) = (   0.1798850   0.4819620   0.1870470  )
        12           Si  tau(  12) = (   0.2852200   0.8813770   0.6494700  )
        13           Si  tau(  13) = (   0.9735860   0.5883840   0.2597290  )
        14           Si  tau(  14) = (   0.3243770   0.5201560   0.4139040  )
        15           Si  tau(  15) = (   0.2230680   0.9779290   0.6867730  )
        16           Si  tau(  16) = (   0.3073780   0.1937090   0.8692410  )
        17           Si  tau(  17) = (   0.1656540   0.4914890   0.2861870  )
        18           Si  tau(  18) = (   0.3003140   0.3313570   0.7925990  )
        19           Si  tau(  19) = (   0.0622005   0.6333860   0.1753020  )
        20           Si  tau(  20) = (   0.2151120   0.0289343   0.6095980  )
        21           Si  tau(  21) = (   0.3188740   0.2397700   0.7799290  )
        22           Si  tau(  22) = (   0.3220530   0.9679440   0.5922790  )
        23           Si  tau(  23) = (   0.3289220   0.4709860   0.2594520  )
        24           Si  tau(  24) = (   0.2259840   0.9367690   0.5993900  )
        25           Si  tau(  25) = (   0.1858560   0.4728960   0.0670773  )
        26           Si  tau(  26) = (   0.3776220   0.5040150   0.3339080  )
        27           Si  tau(  27) = (   0.4368260   0.3063930   0.4349650  )
        28           Si  tau(  28) = (   0.8950630   0.5870440   0.1912470  )
        29           Si  tau(  29) = (   0.4665380   0.4182240   0.4586940  )
        30           Si  tau(  30) = (   0.1445040   0.6264150   0.2025090  )
        31           Si  tau(  31) = (   0.3842380   0.3775660   0.3952710  )
        32           Si  tau(  32) = (   0.4914750   0.4049460   0.5781480  )
        33           Si  tau(  33) = (   0.2361370   0.5584740   0.1534730  )
        34           Si  tau(  34) = (   0.5188110   0.3394130   0.4794690  )
        35           Si  tau(  35) = (   0.3310890   0.5671970   0.2463610  )
        36           Si  tau(  36) = (   0.3558460   0.9432650   0.6845190  )
        37           Si  tau(  37) = (   0.4238360   0.4646460   0.1450430  )
        38           Si  tau(  38) = (   0.2271170   0.5608700   0.2647930  )
        39           Si  tau(  39) = (   0.3260530   0.0063018   0.7598540  )
        40           Si  tau(  40) = (   0.1945770   0.1946330   0.8682040  )
        41           Si  tau(  41) = (   0.2904230   0.3248060   0.8812340  )
        42           Si  tau(  42) = (   0.4037120   0.3987140   0.5385100  )
        43           Si  tau(  43) = (   0.3845910   0.3827010   0.1948370  )
        44           Si  tau(  44) = (   0.1396700   0.5865020   0.1116170  )
        45           Si  tau(  45) = (   0.1990310   0.2792950   0.8539410  )
        46           Si  tau(  46) = (   0.3546860   0.4714900   0.0815143  )
        47           Si  tau(  47) = (   0.5463920   0.3974800   0.4101600  )
        48           Si  tau(  48) = (   0.2506500   0.1733290   0.8014790  )
        49           Si  tau(  49) = (   0.5493610   0.4965580   0.5703030  )
        50           Si  tau(  50) = (   0.2472550   0.3894240   0.0778045  )
        51           Si  tau(  51) = (   0.9769460   0.5724600   0.1529330  )
        52           Si  tau(  52) = (   0.4189520   0.3877190   0.3014590  )
        53           Si  tau(  53) = (   0.3131990   0.4246590   0.1517420  )
        54           Si  tau(  54) = (   0.5604120   0.4607430   0.4754700  )
        55           Si  tau(  55) = (   0.0692560   0.5416180   0.1493120  )
        56           Si  tau(  56) = (   0.0646341   0.5781140   0.2610850  )
        57           Si  tau(  57) = (   0.2461390   0.5045790   0.3440900  )
        58           Si  tau(  58) = (   0.2530250   0.2488120   0.9296920  )
        59           Si  tau(  59) = (   0.3165760   0.0348860   0.6572310  )
        60           Si  tau(  60) = (   0.3014250   0.4321610   0.3515530  )
        61           Si  tau(  61) = (   0.6474860   0.4747650   0.5321050  )
        62           Si  tau(  62) = (   0.2780710   0.9226940   0.7394870  )
        63           Si  tau(  63) = (   0.6447520   0.4124750   0.4563090  )
        64           Si  tau(  64) = (   0.5516540   0.3108370   0.5675940  )

     number of k points=     1  Fermi-Dirac smearing, width (Ry)=  0.0100
                       cart. coord. in units 2pi/alat
        k(    1) = (   0.0000000   0.0000000   0.0000000), wk =   2.0000000

     Dense  grid:  1077305 G-vectors     FFT dimensions: ( 162, 162, 162)

     Estimated max dynamical RAM per process >       1.65 GB

     Estimated total dynamical RAM >       6.34 GB

     Initial potential from superposition of free atoms

     starting charge     255.9608, renormalised to     256.0000

     negative rho (up, down):  2.885E-04 0.000E+00
     Starting wfcs are  256 randomized atomic wfcs

     total cpu time spent up to now is        5.8 secs

     Self-consistent Calculation

     iteration #  1     ecut=    30.00 Ry     beta= 0.50
     Davidson diagonalization with overlap
     ethr =  1.00E-02,  avg # of iterations =  2.0

     negative rho (up, down):  1.882E-08 0.000E+00

     total cpu time spent up to now is        6.6 secs

     total energy              =    -498.10360636 Ry
     estimated scf accuracy    <       3.27304974 Ry

     iteration #  2     ecut=    30.00 Ry     beta= 0.50
     Davidson diagonalization with overlap
     ethr =  1.28E-03,  avg # of iterations =  9.0

     total cpu time spent up to now is        7.4 secs

     total energy              =    -494.77549999 Ry
     estimated scf accuracy    <      61.46276948 Ry

     iteration #  3     ecut=    30.00 Ry     beta= 0.50
     Davidson diagonalization with overlap
     ethr =  1.28E-03,  avg # of iterations =  7.0

     total cpu time spent up to now is        8.1 secs

     total energy              =    -498.06318804 Ry
     estimated scf accuracy    <      18.39649473 Ry

     iteration #  4     ecut=    30.00 Ry     beta= 0.50
     Davidson diagonalization with overlap
     ethr =  1.28E-03,  avg # of iterations =  3.0

     total cpu time spent up to now is        8.8 secs

     total energy              =    -498.74523647 Ry
     estimated scf accuracy    <       6.79756131 Ry

     iteration #  5     ecut=    30.00 Ry     beta= 0.50
     Davidson diagonalization with overlap
     ethr =  1.28E-03,  avg # of iterations =  2.0

     total cpu time spent up to now is        9.4 secs

     total energy              =    -499.12170384 Ry
     estimated scf accuracy    <       2.28535952 Ry

     iteration #  6     ecut=    30.00 Ry     beta= 0.50
     Davidson diagonalization with overlap
     ethr =  8.93E-04,  avg # of iterations =  2.0

     total cpu time spent up to now is       10.1 secs

     total energy              =    -499.22339278 Ry
     estimated scf accuracy    <       1.48281892 Ry

     iteration #  7     ecut=    30.00 Ry     beta= 0.50
     Davidson diagonalization with overlap
     ethr =  5.79E-04,  avg # of iterations =  1.0

     total cpu time spent up to now is       10.7 secs

     total energy              =    -499.29929870 Ry
     estimated scf accuracy    <       0.39037527 Ry

     iteration #  8     ecut=    30.00 Ry     beta= 0.50
     Davidson diagonalization with overlap
     ethr =  1.52E-04,  avg # of iterations =  2.0

     total cpu time spent up to now is       11.4 secs

     total energy              =    -499.31294070 Ry
     estimated scf accuracy    <       0.24868001 Ry

     iteration #  9     ecut=    30.00 Ry     beta= 0.50
     Davidson diagonalization with overlap
     ethr =  9.71E-05,  avg # of iterations =  7.0

     total cpu time spent up to now is       12.1 secs

     total energy              =    -499.32659692 Ry
     estimated scf accuracy    <       0.13620525 Ry

     iteration # 10     ecut=    30.00 Ry     beta= 0.50
     Davidson diagonalization with overlap
     ethr =  5.32E-05,  avg # of iterations =  2.0

     total cpu time spent up to now is       12.7 secs

     total energy              =    -499.33088752 Ry
     estimated scf accuracy    <       0.06869532 Ry

     iteration # 11     ecut=    30.00 Ry     beta= 0.50
     Davidson diagonalization with overlap
     ethr =  2.68E-05,  avg # of iterations = 12.0

     total cpu time spent up to now is       13.5 secs

     total energy              =    -499.33404552 Ry
     estimated scf accuracy    <       0.04817871 Ry

     iteration # 12     ecut=    30.00 Ry     beta= 0.50
     Davidson diagonalization with overlap
     ethr =  1.88E-05,  avg # of iterations =  2.0

     total cpu time spent up to now is       14.2 secs

     total energy              =    -499.33722776 Ry
     estimated scf accuracy    <       0.00476016 Ry

     iteration # 13     ecut=    30.00 Ry     beta= 0.50
     Davidson diagonalization with overlap
     c_bands:  1 eigenvalues not converged
     ethr =  1.86E-06,  avg # of iterations = 20.0

     total cpu time spent up to now is       15.1 secs

     total energy              =    -499.33591593 Ry
     estimated scf accuracy    <       0.04389204 Ry

     iteration # 14     ecut=    30.00 Ry     beta= 0.50
     Davidson diagonalization with overlap
     ethr =  1.86E-06,  avg # of iterations =  3.0

     total cpu time spent up to now is       15.9 secs

     total energy              =    -499.33824057 Ry
     estimated scf accuracy    <       0.00877128 Ry

     iteration # 15     ecut=    30.00 Ry     beta= 0.50
     Davidson diagonalization with overlap
     ethr =  1.86E-06,  avg # of iterations =  2.0

     total cpu time spent up to now is       16.5 secs

     total energy              =    -499.33860415 Ry
     estimated scf accuracy    <       0.00179432 Ry

     iteration # 16     ecut=    30.00 Ry     beta= 0.50
     Davidson diagonalization with overlap
     ethr =  7.01E-07,  avg # of iterations =  2.0

     total cpu time spent up to now is       17.2 secs

     total energy              =    -499.33872679 Ry
     estimated scf accuracy    <       0.00128547 Ry

     iteration # 17     ecut=    30.00 Ry     beta= 0.50
     Davidson diagonalization with overlap
     ethr =  5.02E-07,  avg # of iterations =  1.0

     total cpu time spent up to now is       17.8 secs

     total energy              =    -499.33877829 Ry
     estimated scf accuracy    <       0.00069128 Ry

     iteration # 18     ecut=    30.00 Ry     beta= 0.50
     Davidson diagonalization with overlap
     ethr =  2.70E-07,  avg # of iterations =  2.0

     total cpu time spent up to now is       18.5 secs

     total energy              =    -499.33880647 Ry
     estimated scf accuracy    <       0.00043222 Ry

     iteration # 19     ecut=    30.00 Ry     beta= 0.50
     Davidson diagonalization with overlap
     ethr =  1.69E-07,  avg # of iterations =  2.0

     total cpu time spent up to now is       19.2 secs

     total energy              =    -499.33880938 Ry
     estimated scf accuracy    <       0.00059612 Ry

     iteration # 20     ecut=    30.00 Ry     beta= 0.50
     Davidson diagonalization with overlap
     ethr =  1.69E-07,  avg # of iterations =  1.0

     total cpu time spent up to now is       19.8 secs

     total energy              =    -499.33884180 Ry
     estimated scf accuracy    <       0.00009258 Ry

     iteration # 21     ecut=    30.00 Ry     beta= 0.50
     Davidson diagonalization with overlap
     ethr =  3.62E-08,  avg # of iterations =  2.0

     total cpu time spent up to now is       20.5 secs

     total energy              =    -499.33884759 Ry
     estimated scf accuracy    <       0.00003438 Ry

     iteration # 22     ecut=    30.00 Ry     beta= 0.50
     Davidson diagonalization with overlap
     ethr =  1.34E-08,  avg # of iterations =  2.0

     total cpu time spent up to now is       21.2 secs

     total energy              =    -499.33885023 Ry
     estimated scf accuracy    <       0.00002002 Ry

     iteration # 23     ecut=    30.00 Ry     beta= 0.50
     Davidson diagonalization with overlap
     ethr =  7.82E-09,  avg # of iterations =  2.0

     total cpu time spent up to now is       21.8 secs

     total energy              =    -499.33885167 Ry
     estimated scf accuracy    <       0.00000593 Ry

     iteration # 24     ecut=    30.00 Ry     beta= 0.50
     Davidson diagonalization with overlap
     ethr =  2.32E-09,  avg # of iterations =  4.0

     total cpu time spent up to now is       22.5 secs

     total energy              =    -499.33885187 Ry
     estimated scf accuracy    <       0.00000513 Ry

     iteration # 25     ecut=    30.00 Ry     beta= 0.50
     Davidson diagonalization with overlap
     ethr =  2.00E-09,  avg # of iterations =  2.0

     total cpu time spent up to now is       23.2 secs

     total energy              =    -499.33885201 Ry
     estimated scf accuracy    <       0.00000924 Ry

     iteration # 26     ecut=    30.00 Ry     beta= 0.50
     Davidson diagonalization with overlap
     ethr =  2.00E-09,  avg # of iterations =  1.0

     total cpu time spent up to now is       23.8 secs

     total energy              =    -499.33885229 Ry
     estimated scf accuracy    <       0.00000162 Ry

     iteration # 27     ecut=    30.00 Ry     beta= 0.50
     Davidson diagonalization with overlap
     ethr =  6.34E-10,  avg # of iterations =  2.0

     total cpu time spent up to now is       24.5 secs

     total energy              =    -499.33885241 Ry
     estimated scf accuracy    <       0.00000190 Ry

     iteration # 28     ecut=    30.00 Ry     beta= 0.50
     Davidson diagonalization with overlap
     ethr =  6.34E-10,  avg # of iterations =  1.0

     total cpu time spent up to now is       25.0 secs

     End of self-consistent calculation

          k = 0.0000 0.0000 0.0000 (134649 PWs)   bands (ev):

   -16.2448 -16.2198 -16.0942 -16.0070 -15.9711 -15.0072 -14.9111 -14.6179
   -14.4544 -13.9571 -13.8389 -13.7886 -13.7254 -13.6953 -13.5031 -13.3418
   -13.2944 -12.9522 -12.7166 -12.5245 -12.4471 -12.3303 -12.1522 -11.9900
   -11.9538 -11.8516 -11.6214 -11.4526 -11.2917 -11.1284 -11.0026 -10.8366
   -10.7212 -10.6503 -10.5235 -10.3936 -10.2789 -10.1682 -10.1247  -9.9683
    -9.8404  -9.7071  -9.6883  -9.5332  -9.4989  -9.2965  -9.1693  -9.0100
    -8.9734  -8.8589  -8.8312  -8.7134  -8.6745  -8.5995  -8.5610  -8.4102
    -8.3263  -8.1907  -8.0235  -7.9003  -7.8544  -7.5911  -7.3899  -7.2254
    -7.1759  -7.1354  -7.0840  -7.0533  -7.0397  -6.9447  -6.8429  -6.7866
    -6.7161  -6.6777  -6.6285  -6.5863  -6.4953  -6.4227  -6.3977  -6.3713
    -6.3184  -6.1760  -6.1317  -6.0980  -6.0068  -5.9956  -5.9486  -5.9341
    -5.8078  -5.7754  -5.7358  -5.6820  -5.6332  -5.5831  -5.5221  -5.4439
    -5.3737  -5.3612  -5.2498  -5.2005  -5.1665  -5.1148  -5.0740  -5.0163
    -4.9252  -4.8979  -4.8377  -4.7861  -4.7639  -4.6450  -4.6316  -4.6225
    -4.5406  -4.4465  -4.3656  -4.3035  -4.2888  -4.1862  -4.1444  -4.0613
    -4.0274  -4.0186  -3.9777  -3.9428  -3.8806  -3.7236  -3.6275  -3.5361
    -3.5337  -3.4789  -3.4271  -3.4050  -3.3541  -3.2652  -3.2538  -3.1302
    -3.0848  -3.0289  -2.9505  -2.8591  -2.8151  -2.7754  -2.6981  -2.6876
    -2.6547  -2.5681  -2.5014  -2.3984  -2.3816  -2.3262  -2.2077  -2.1486
    -2.1257  -2.0703

     the Fermi energy is    -3.5814 ev

!    total energy              =    -499.33885239 Ry
     estimated scf accuracy    <       0.00000017 Ry
     smearing contrib. (-TS)   =      -0.14696988 Ry
     internal energy E=F+TS    =    -499.19188251 Ry

     The total energy is F=E-TS. E is the sum of the following terms:
     one-electron contribution =   -2913.83584995 Ry
     hartree contribution      =    1474.70444973 Ry
     xc contribution           =    -147.79700590 Ry
     ewald contribution        =    1087.73652362 Ry

     convergence has been achieved in  28 iterations

     Forces acting on atoms (cartesian axes, Ry/au):

     atom    1 type  1   force =    -0.06348685    0.05304886   -0.01089580
     atom    2 type  1   force =    -0.02653099    0.03405401   -0.00569715
     atom    3 type  1   force =     0.02678255   -0.00024918    0.02538534
     atom    4 type  1   force =     0.02249239    0.04151703    0.01508497
     atom    5 type  1   force =    -0.04095477    0.01042597    0.02468797
     atom    6 type  1   force =    -0.00699378    0.02275384    0.00402263
     atom    7 type  1   force =     0.03491286   -0.03694145    0.02606195
     atom    8 type  1   force =     0.01489854    0.01274888   -0.08446674
     atom    9 type  1   force =     0.02181111   -0.00882556   -0.01201285
     atom   10 type  1   force =     0.02486480    0.01851335   -0.02129950
     atom   11 type  1   force =     0.00114624    0.00744387   -0.00664617
     atom   12 type  1   force =     0.02540904   -0.02010826    0.03103309
     atom   13 type  1   force =    -0.08032625    0.01013961   -0.02798262
     atom   14 type  1   force =    -0.01794061   -0.02464946   -0.02688747
     atom   15 type  1   force =    -0.02781293    0.02500227    0.06751525
     atom   16 type  1   force =     0.05102768    0.00170415    0.05654816
     atom   17 type  1   force =    -0.02704862   -0.01334328    0.00969212
     atom   18 type  1   force =    -0.03347071    0.01795510   -0.08719635
     atom   19 type  1   force =    -0.13928033    0.07001451   -0.02434233
     atom   20 type  1   force =     0.02863294    0.06700073   -0.00395549
     atom   21 type  1   force =     0.10761931   -0.02120586    0.00422927
     atom   22 type  1   force =     0.01795711   -0.03242579   -0.06421620
     atom   23 type  1   force =    -0.03515430   -0.04902942   -0.04800503
     atom   24 type  1   force =    -0.02254361   -0.03779120   -0.05163020
     atom   25 type  1   force =     0.00912377   -0.03081295    0.02435728
     atom   26 type  1   force =    -0.00272522    0.03095078    0.03348975
     atom   27 type  1   force =    -0.02831227    0.02325254    0.01522546
     atom   28 type  1   force =    -0.00460371   -0.00617582    0.02956537
     atom   29 type  1   force =    -0.10011512    0.00939852    0.00007069
     atom   30 type  1   force =     0.10222342   -0.02090705    0.06548274
     atom   31 type  1   force =     0.01626581    0.01477549   -0.00561664
     atom   32 type  1   force =     0.04500454   -0.02504375   -0.00116627
     atom   33 type  1   force =    -0.01085548   -0.00602304    0.10080698
     atom   34 type  1   force =     0.01979821   -0.04455238    0.03024078
     atom   35 type  1   force =    -0.00730216   -0.01391601    0.00060945
     atom   36 type  1   force =     0.04125760    0.00702118   -0.02606525
     atom   37 type  1   force =     0.01532246   -0.02122463   -0.03226046
     atom   38 type  1   force =     0.01457459    0.03845465   -0.05069669
     atom   39 type  1   force =    -0.00255404   -0.00263216   -0.02158677
     atom   40 type  1   force =    -0.06956434   -0.09689181    0.09607873
     atom   41 type  1   force =    -0.02432122   -0.02264591    0.09411141
     atom   42 type  1   force =     0.01484334    0.00182886   -0.04719873
     atom   43 type  1   force =     0.01314933   -0.00626019    0.05065311
     atom   44 type  1   force =     0.06113986    0.01834609   -0.03641364
     atom   45 type  1   force =     0.00017286    0.16896191   -0.05928584
     atom   46 type  1   force =    -0.03868469    0.01250870   -0.04137268
     atom   47 type  1   force =     0.02862076   -0.03981840   -0.08000453
     atom   48 type  1   force =     0.01344154   -0.08920867   -0.12553815
     atom   49 type  1   force =    -0.00346458   -0.03720083   -0.02220902
     atom   50 type  1   force =     0.00469653    0.00233944    0.00414355
     atom   51 type  1   force =     0.02600654   -0.03932755   -0.02233733
     atom   52 type  1   force =    -0.00099521    0.03220847   -0.02723867
     atom   53 type  1   force =    -0.05479095    0.01312977    0.00808217
     atom   54 type  1   force =     0.01567403    0.06981516    0.07684930
     atom   55 type  1   force =    -0.00868752   -0.07443574    0.04637973
     atom   56 type  1   force =     0.07981144   -0.02360836   -0.02233790
     atom   57 type  1   force =    -0.02863636    0.05535595    0.00425409
     atom   58 type  1   force =     0.01870340   -0.01065981    0.04748440
     atom   59 type  1   force =     0.01468835    0.05131498    0.00232317
     atom   60 type  1   force =     0.05955482   -0.05984268    0.01221508
     atom   61 type  1   force =     0.00066967    0.00520303    0.02136956
     atom   62 type  1   force =    -0.03422410   -0.05325758    0.05822059
     atom   63 type  1   force =    -0.02708251   -0.00638499    0.00195786
     atom   64 type  1   force =    -0.02383419    0.02821209    0.00833048

     Total force =     0.593403     Total SCF correction =     0.000569


     Computing stress (Cartesian axis) and pressure

          total   stress  (Ry/bohr**3)                   (kbar)     P=        1.63
   0.00001217  -0.00000226  -0.00000373            1.79       -0.33       -0.55
  -0.00000226   0.00001331  -0.00000688           -0.33        1.96       -1.01
  -0.00000373  -0.00000688   0.00000781           -0.55       -1.01        1.15

 
     init_run     :      2.04s CPU      5.76s WALL (       1 calls)
     electrons    :     18.40s CPU     19.21s WALL (       1 calls)
     forces       :      0.20s CPU      0.21s WALL (       1 calls)
     stress       :      1.52s CPU      1.55s WALL (       1 calls)

     Called by init_run:
     wfcinit      :      1.16s CPU      4.43s WALL (       1 calls)
                                        4.43s GPU  (       1 calls)
     potinit      :      0.19s CPU      0.31s WALL (       1 calls)
     hinit0       :      0.45s CPU      0.49s WALL (       1 calls)

     Called by electrons:
     c_bands      :      7.86s CPU      8.04s WALL (      28 calls)
     sum_band     :      4.38s CPU      4.69s WALL (      28 calls)
     v_of_rho     :      2.34s CPU      2.56s WALL (      29 calls)
     mix_rho      :      3.05s CPU      3.23s WALL (      28 calls)

     Called by c_bands:
     init_us_2    :      0.08s CPU      0.10s WALL (      57 calls)
     init_us_2:gp :      0.08s CPU      0.10s WALL (      57 calls)
     regterg      :      6.71s CPU      6.87s WALL (      28 calls)

     Called by *egterg:
     rdiaghg      :      0.52s CPU      1.13s WALL (     128 calls)
                                        1.11s GPU  (     128 calls)
     h_psi        :      5.79s CPU      8.59s WALL (     129 calls)
                                        8.56s GPU  (     129 calls)
     g_psi        :      0.00s CPU      0.04s WALL (     100 calls)
                                        0.04s GPU  (     100 calls)

     Called by h_psi:
     h_psi:calbec :      0.99s CPU      3.21s WALL (     129 calls)
                                        3.21s GPU  (     129 calls)
     vloc_psi     :      4.53s CPU      5.05s WALL (     129 calls)
                                        5.01s GPU  (     129 calls)
     add_vuspsi   :      0.05s CPU      0.22s WALL (     129 calls)
                                        0.22s GPU  (     129 calls)

     General routines
     calbec       :      1.00s CPU      3.22s WALL (     134 calls)
     fft          :      3.63s CPU      4.05s WALL (     238 calls)
                                        0.34s GPU  (     151 calls)
     ffts         :      1.27s CPU      1.35s WALL (      28 calls)
     fftw         :      4.80s CPU      6.07s WALL (    2902 calls)
                                        5.06s GPU  (    2902 calls)
 
     Parallel routines
 
     PWSCF        :     22.21s CPU     26.94s WALL

 
   This run was terminated on:  15:16:21  11May2023            

=------------------------------------------------------------------------------=
   JOB DONE.
=------------------------------------------------------------------------------=
