An instance of this daemon is already running

     Program PWSCF v.7.1 starts on 11May2023 at 15: 5:58 

     This program is part of the open-source Quantum ESPRESSO suite
     for quantum simulation of materials; please cite
         "P. Giannozzi et al., J. Phys.:Condens. Matter 21 395502 (2009);
         "P. Giannozzi et al., J. Phys.:Condens. Matter 29 465901 (2017);
         "P. Giannozzi et al., J. Chem. Phys. 152 154105 (2020);
          URL http://www.quantum-espresso.org", 
     in publications or presentations arising from this work. More details at
     http://www.quantum-espresso.org/quote

     Parallel version (MPI & OpenMP), running on       4 processor cores
     Number of MPI processes:                 4
     Threads/MPI process:                     1

     MPI processes distributed on     1 nodes
     634586 MiB available memory on the printing compute node when the environment starts
 
     Reading input from pw-si-23.in
Warning: card &CELL ignored
Warning: card / ignored

     Current dimensions of program PWSCF are:
     Max number of different atomic species (ntypx) = 10
     Max number of k-points (npk) =  40000
     Max angular momentum in pseudopotentials (lmaxx) =  4

     IMPORTANT: XC functional enforced from input :
     Exchange-correlation= PBE
                           (   1   4   3   4   0   0   0)
     Any further DFT definition will be discarded
     Please, verify this is what you really want


     gamma-point specific algorithms are used
 
     K-points division:     npool     =       2
     R & G space division:  proc/nbgrp/npool/nimage =       2
     Subspace diagonalization in iterative solution of the eigenvalue problem:
     a serial algorithm will be used

     Message from routine divide_et_impera:
     suboptimal parallelization: some nodes have no k-points
 
     Parallelization info
     --------------------
     sticks:   dense  smooth     PW     G-vecs:    dense   smooth      PW
     Min        2202    2202    577               110150   110150   14855
     Max        2203    2203    584               110153   110153   14856
     Sum        4405    4405   1161               220303   220303   29711
 
     Using Slab Decomposition
 


     bravais-lattice index     =            0
     lattice parameter (alat)  =      21.4879  a.u.
     unit-cell volume          =    9921.6591 (a.u.)^3
     number of atoms/cell      =           64
     number of atomic types    =            1
     number of electrons       =       256.00
     number of Kohn-Sham states=          154
     kinetic-energy cutoff     =      30.0000  Ry
     charge density cutoff     =     120.0000  Ry
     scf convergence threshold =      1.0E-06
     mixing beta               =       0.5000
     number of iterations used =            8  plain     mixing
     Exchange-correlation= PBE
                           (   1   4   3   4   0   0   0)

     GPU acceleration is ACTIVE.
     GPU-aware MPI enabled

     Message from routine print_cuda_info:
     High GPU oversubscription detected. Are you sure this is what you want?

     celldm(1)=  21.487939  celldm(2)=   0.000000  celldm(3)=   0.000000
     celldm(4)=   0.000000  celldm(5)=   0.000000  celldm(6)=   0.000000

     crystal axes: (cart. coord. in units of alat)
               a(1) = (   1.000000   0.000000   0.000000 )  
               a(2) = (   0.000000   1.000000   0.000000 )  
               a(3) = (   0.000000   0.000000   1.000000 )  

     reciprocal axes: (cart. coord. in units 2 pi/alat)
               b(1) = (  1.000000  0.000000  0.000000 )  
               b(2) = (  0.000000  1.000000  0.000000 )  
               b(3) = (  0.000000  0.000000  1.000000 )  


     PseudoPot. # 1 for Si read from file:
     /home/ppiaggi/pseudos/Si_ONCV_PBE_sr.upf
     MD5 check sum: 8553c464762ac42b85b1eed164b4d029
     Pseudo is Norm-conserving, Zval =  4.0
     Generated using ONCVPSP code by D. R. Hamann
     Using radial grid of 1510 points,  4 beta functions with: 
                l(1) =   0
                l(2) =   0
                l(3) =   1
                l(4) =   1

     atomic species   valence    mass     pseudopotential
        Si             4.00    28.08500     Si( 1.00)

     No symmetry found



   Cartesian axes

     site n.     atom                  positions (alat units)
         1           Si  tau(   1) = (   0.0732021   0.3184090   0.9390110  )
         2           Si  tau(   2) = (   0.4340040   0.5601050   0.4660020  )
         3           Si  tau(   3) = (   0.7175720   0.1321260   0.4996130  )
         4           Si  tau(   4) = (   0.5364500   0.3645660   0.2399400  )
         5           Si  tau(   5) = (   0.5731730   0.9925870   0.8097100  )
         6           Si  tau(   6) = (   0.2333380   0.6157730   0.8460560  )
         7           Si  tau(   7) = (   0.5874730   0.4304730   0.5330980  )
         8           Si  tau(   8) = (   0.3599190   0.7879790   0.7910280  )
         9           Si  tau(   9) = (   0.5814050   0.8735200   0.9900930  )
        10           Si  tau(  10) = (   0.3639360   0.1724360   0.2369780  )
        11           Si  tau(  11) = (   0.0559506   0.1528230   0.0738751  )
        12           Si  tau(  12) = (   0.2069510   0.1441900   0.9182560  )
        13           Si  tau(  13) = (   0.7086790   0.2916930   0.3454340  )
        14           Si  tau(  14) = (   0.0801558   0.3161620   0.6683610  )
        15           Si  tau(  15) = (   0.4900350   0.1275110   0.9753800  )
        16           Si  tau(  16) = (   0.0937484   0.5135630   0.6493230  )
        17           Si  tau(  17) = (   0.1294260   0.2222790   0.3259540  )
        18           Si  tau(  18) = (   0.4833050   0.6944000   0.6127240  )
        19           Si  tau(  19) = (   0.4324220   0.7523470   0.3857790  )
        20           Si  tau(  20) = (   0.4843130   0.9207930   0.6076000  )
        21           Si  tau(  21) = (   0.7169250   0.0628102   0.9668760  )
        22           Si  tau(  22) = (   0.1382290   0.9616760   0.0615280  )
        23           Si  tau(  23) = (   0.2218410   0.0234474   0.2540610  )
        24           Si  tau(  24) = (   0.2568360   0.3545710   0.2353390  )
        25           Si  tau(  25) = (   0.2390430   0.8307940   0.3976430  )
        26           Si  tau(  26) = (   0.4466150   0.2870330   0.4002040  )
        27           Si  tau(  27) = (   0.9421530   0.1836330   0.4061150  )
        28           Si  tau(  28) = (   0.5822040   0.8135360   0.2515270  )
        29           Si  tau(  29) = (   0.1716320   0.5111660   0.0313947  )
        30           Si  tau(  30) = (   0.5961940   0.0632282   0.1760070  )
        31           Si  tau(  31) = (   0.1868010   0.6473390   0.4924530  )
        32           Si  tau(  32) = (   0.3066780   0.3954090   0.4929930  )
        33           Si  tau(  33) = (   0.3458280   0.7839620   0.1776610  )
        34           Si  tau(  34) = (   0.3440020   0.1332270   0.7374980  )
        35           Si  tau(  35) = (   0.4925190   0.4262390   0.0536202  )
        36           Si  tau(  36) = (   0.3800340   0.1081910   0.5522800  )
        37           Si  tau(  37) = (   0.7716310   0.7753850   0.8595230  )
        38           Si  tau(  38) = (   0.8907730   0.6040160   0.3091340  )
        39           Si  tau(  39) = (   0.5768100   0.1911340   0.6431650  )
        40           Si  tau(  40) = (   0.1640250   0.1194880   0.5226160  )
        41           Si  tau(  41) = (   0.5773660   0.6683630   0.8323710  )
        42           Si  tau(  42) = (   0.7736720   0.5912490   0.7584360  )
        43           Si  tau(  43) = (   0.1010700   0.5439590   0.3033550  )
        44           Si  tau(  44) = (   0.4123410   0.6251110   0.9577650  )
        45           Si  tau(  45) = (   0.3318160   0.6014810   0.6653120  )
        46           Si  tau(  46) = (   0.4614360   0.3151870   0.8854190  )
        47           Si  tau(  47) = (   0.4539200   0.4039710   0.6681620  )
        48           Si  tau(  48) = (   0.0681777   0.1238110   0.7295370  )
        49           Si  tau(  49) = (   0.6988380   0.4008740   0.6998160  )
        50           Si  tau(  50) = (   0.9381020   0.7174760   0.5788000  )
        51           Si  tau(  51) = (   0.8688750   0.5130940   0.5410560  )
        52           Si  tau(  52) = (   0.9362250   0.4000490   0.3755380  )
        53           Si  tau(  53) = (   0.3672010   0.5330530   0.2110310  )
        54           Si  tau(  54) = (   0.7852360   0.4260040   0.2057890  )
        55           Si  tau(  55) = (   0.8728690   0.3290080   0.9014520  )
        56           Si  tau(  56) = (   0.9906500   0.3426520   0.1294990  )
        57           Si  tau(  57) = (   0.9665610   0.5518110   0.0996851  )
        58           Si  tau(  58) = (   0.2980650   0.9050250   0.6183360  )
        59           Si  tau(  59) = (   0.5646050   0.9749560   0.4497120  )
        60           Si  tau(  60) = (   0.0232181   0.7527620   0.3575120  )
        61           Si  tau(  61) = (   0.7690570   0.2137280   0.0993846  )
        62           Si  tau(  62) = (   0.1908620   0.9811340   0.7745290  )
        63           Si  tau(  63) = (   0.8456830   0.2282200   0.6913130  )
        64           Si  tau(  64) = (   0.7401520   0.6559200   0.5482330  )

     number of k points=     1  Fermi-Dirac smearing, width (Ry)=  0.0100
                       cart. coord. in units 2pi/alat
        k(    1) = (   0.0000000   0.0000000   0.0000000), wk =   2.0000000

     Dense  grid:   110152 G-vectors     FFT dimensions: (  75,  75,  75)

     Estimated max dynamical RAM per process >     175.23 MB

     Estimated total dynamical RAM >     674.01 MB

     Initial potential from superposition of free atoms

     starting charge     255.9608, renormalised to     256.0000
     Starting wfcs are  256 randomized atomic wfcs

     total cpu time spent up to now is        4.2 secs

     Self-consistent Calculation

     iteration #  1     ecut=    30.00 Ry     beta= 0.50
     Davidson diagonalization with overlap
     ethr =  1.00E-02,  avg # of iterations =  3.0

     Threshold (ethr) on eigenvalues was too large:
     Diagonalizing with lowered threshold

     Davidson diagonalization with overlap
     ethr =  7.89E-04,  avg # of iterations =  4.0

     total cpu time spent up to now is        4.4 secs

     total energy              =    -499.51216091 Ry
     estimated scf accuracy    <       2.65427135 Ry

     iteration #  2     ecut=    30.00 Ry     beta= 0.50
     Davidson diagonalization with overlap
     ethr =  1.04E-03,  avg # of iterations =  5.0

     total cpu time spent up to now is        4.6 secs

     total energy              =    -497.68513884 Ry
     estimated scf accuracy    <      30.24969457 Ry

     iteration #  3     ecut=    30.00 Ry     beta= 0.50
     Davidson diagonalization with overlap
     ethr =  1.04E-03,  avg # of iterations =  5.0

     total cpu time spent up to now is        4.7 secs

     total energy              =    -500.18936620 Ry
     estimated scf accuracy    <       2.81297468 Ry

     iteration #  4     ecut=    30.00 Ry     beta= 0.50
     Davidson diagonalization with overlap
     ethr =  1.04E-03,  avg # of iterations =  2.0

     total cpu time spent up to now is        4.8 secs

     total energy              =    -500.40722110 Ry
     estimated scf accuracy    <       1.28557312 Ry

     iteration #  5     ecut=    30.00 Ry     beta= 0.50
     Davidson diagonalization with overlap
     ethr =  5.02E-04,  avg # of iterations =  2.0

     total cpu time spent up to now is        4.9 secs

     total energy              =    -500.48233370 Ry
     estimated scf accuracy    <       0.95158793 Ry

     iteration #  6     ecut=    30.00 Ry     beta= 0.50
     Davidson diagonalization with overlap
     ethr =  3.72E-04,  avg # of iterations =  1.0

     total cpu time spent up to now is        5.0 secs

     total energy              =    -500.55354256 Ry
     estimated scf accuracy    <       0.07145412 Ry

     iteration #  7     ecut=    30.00 Ry     beta= 0.50
     Davidson diagonalization with overlap
     ethr =  2.79E-05,  avg # of iterations = 10.0

     total cpu time spent up to now is        5.1 secs

     total energy              =    -500.55996673 Ry
     estimated scf accuracy    <       0.11894888 Ry

     iteration #  8     ecut=    30.00 Ry     beta= 0.50
     Davidson diagonalization with overlap
     ethr =  2.79E-05,  avg # of iterations =  3.0

     total cpu time spent up to now is        5.3 secs

     total energy              =    -500.57061000 Ry
     estimated scf accuracy    <       0.02587407 Ry

     iteration #  9     ecut=    30.00 Ry     beta= 0.50
     Davidson diagonalization with overlap
     ethr =  1.01E-05,  avg # of iterations =  3.0

     total cpu time spent up to now is        5.4 secs

     total energy              =    -500.57284791 Ry
     estimated scf accuracy    <       0.00611523 Ry

     iteration # 10     ecut=    30.00 Ry     beta= 0.50
     Davidson diagonalization with overlap
     ethr =  2.39E-06,  avg # of iterations = 12.0

     total cpu time spent up to now is        5.5 secs

     total energy              =    -500.57309322 Ry
     estimated scf accuracy    <       0.00831370 Ry

     iteration # 11     ecut=    30.00 Ry     beta= 0.50
     Davidson diagonalization with overlap
     ethr =  2.39E-06,  avg # of iterations =  2.0

     total cpu time spent up to now is        5.6 secs

     total energy              =    -500.57360262 Ry
     estimated scf accuracy    <       0.00080832 Ry

     iteration # 12     ecut=    30.00 Ry     beta= 0.50
     Davidson diagonalization with overlap
     ethr =  3.16E-07,  avg # of iterations =  5.0

     total cpu time spent up to now is        5.8 secs

     total energy              =    -500.57365618 Ry
     estimated scf accuracy    <       0.00214131 Ry

     iteration # 13     ecut=    30.00 Ry     beta= 0.50
     Davidson diagonalization with overlap
     ethr =  3.16E-07,  avg # of iterations =  3.0

     total cpu time spent up to now is        5.9 secs

     total energy              =    -500.57377468 Ry
     estimated scf accuracy    <       0.00086200 Ry

     iteration # 14     ecut=    30.00 Ry     beta= 0.50
     Davidson diagonalization with overlap
     ethr =  3.16E-07,  avg # of iterations =  2.0

     total cpu time spent up to now is        6.0 secs

     total energy              =    -500.57382549 Ry
     estimated scf accuracy    <       0.00023186 Ry

     iteration # 15     ecut=    30.00 Ry     beta= 0.50
     Davidson diagonalization with overlap
     ethr =  9.06E-08,  avg # of iterations =  2.0

     total cpu time spent up to now is        6.1 secs

     total energy              =    -500.57384827 Ry
     estimated scf accuracy    <       0.00002624 Ry

     iteration # 16     ecut=    30.00 Ry     beta= 0.50
     Davidson diagonalization with overlap
     ethr =  1.02E-08,  avg # of iterations =  5.0

     total cpu time spent up to now is        6.2 secs

     total energy              =    -500.57384707 Ry
     estimated scf accuracy    <       0.00011928 Ry

     iteration # 17     ecut=    30.00 Ry     beta= 0.50
     Davidson diagonalization with overlap
     ethr =  1.02E-08,  avg # of iterations =  3.0

     total cpu time spent up to now is        6.3 secs

     total energy              =    -500.57385492 Ry
     estimated scf accuracy    <       0.00001269 Ry

     iteration # 18     ecut=    30.00 Ry     beta= 0.50
     Davidson diagonalization with overlap
     ethr =  4.96E-09,  avg # of iterations =  2.0

     total cpu time spent up to now is        6.4 secs

     total energy              =    -500.57385574 Ry
     estimated scf accuracy    <       0.00000937 Ry

     iteration # 19     ecut=    30.00 Ry     beta= 0.50
     Davidson diagonalization with overlap
     ethr =  3.66E-09,  avg # of iterations =  2.0

     total cpu time spent up to now is        6.5 secs

     total energy              =    -500.57385608 Ry
     estimated scf accuracy    <       0.00000423 Ry

     iteration # 20     ecut=    30.00 Ry     beta= 0.50
     Davidson diagonalization with overlap
     ethr =  1.65E-09,  avg # of iterations =  2.0

     total cpu time spent up to now is        6.6 secs

     total energy              =    -500.57385654 Ry
     estimated scf accuracy    <       0.00000166 Ry

     iteration # 21     ecut=    30.00 Ry     beta= 0.50
     Davidson diagonalization with overlap
     ethr =  6.49E-10,  avg # of iterations =  2.0

     total cpu time spent up to now is        6.7 secs

     End of self-consistent calculation

          k = 0.0000 0.0000 0.0000 ( 13805 PWs)   bands (ev):

    -7.8239  -7.1763  -7.1177  -6.6755  -6.5174  -6.3000  -6.0879  -5.9182
    -5.7863  -5.6690  -5.3786  -5.3339  -5.1310  -4.9921  -4.8954  -4.5939
    -4.5569  -4.4512  -4.3202  -4.1027  -4.0140  -3.8456  -3.7252  -3.5980
    -3.5537  -3.2226  -3.1625  -3.0849  -2.8935  -2.8549  -2.7722  -2.6264
    -2.4784  -2.4672  -2.2330  -2.1255  -2.0826  -1.8749  -1.7673  -1.7538
    -1.6481  -1.5380  -1.4351  -1.4069  -1.2395  -1.1922  -1.1259  -1.1093
    -0.9485  -0.8603  -0.7859  -0.7377  -0.6404  -0.4627  -0.4502  -0.2083
    -0.0444   0.0077   0.2006   0.2422   0.4403   0.4910   0.6689   0.7934
     0.8419   0.9320   0.9781   1.1034   1.1806   1.2974   1.3611   1.4173
     1.4882   1.6678   1.7136   1.7581   1.8215   1.8283   1.9230   2.0112
     2.0683   2.1292   2.1891   2.2199   2.2759   2.2980   2.4326   2.4836
     2.5568   2.6662   2.7423   2.8366   2.8799   2.9049   2.9467   3.0033
     3.1262   3.1646   3.2156   3.2754   3.3425   3.4148   3.5023   3.5316
     3.5805   3.6434   3.7239   3.7698   3.8599   3.8732   3.9883   4.0506
     4.1318   4.2101   4.2644   4.2937   4.3260   4.3747   4.3910   4.4370
     4.4600   4.5538   4.5736   4.6546   4.6802   4.7967   4.8159   4.8800
     5.0297   5.0746   5.1341   5.1940   5.2526   5.3410   5.4069   5.4432
     5.4769   5.6058   5.6542   5.7296   5.7566   5.8579   5.9066   5.9977
     6.0057   6.0566   6.1074   6.1146   6.1944   6.3062   6.3695   6.5156
     6.5568   6.5868

     the Fermi energy is     4.9564 ev

!    total energy              =    -500.57385641 Ry
     estimated scf accuracy    <       0.00000041 Ry
     smearing contrib. (-TS)   =      -0.13484200 Ry
     internal energy E=F+TS    =    -500.43901440 Ry

     The total energy is F=E-TS. E is the sum of the following terms:
     one-electron contribution =     -54.86745131 Ry
     hartree contribution      =     125.45389931 Ry
     xc contribution           =    -149.36716969 Ry
     ewald contribution        =    -421.65829272 Ry

     convergence has been achieved in  21 iterations

     Forces acting on atoms (cartesian axes, Ry/au):

     atom    1 type  1   force =     0.06234146    0.01946930   -0.04185513
     atom    2 type  1   force =    -0.00138621   -0.01581233   -0.04603355
     atom    3 type  1   force =     0.01331920    0.00509000   -0.01519306
     atom    4 type  1   force =     0.03209539    0.01442408   -0.02633433
     atom    5 type  1   force =    -0.03000725    0.03202139   -0.01976522
     atom    6 type  1   force =    -0.01436508   -0.00699948    0.01880856
     atom    7 type  1   force =     0.06047886    0.01084915   -0.10413088
     atom    8 type  1   force =     0.00154045   -0.00056841    0.01505740
     atom    9 type  1   force =     0.01575504   -0.02636051    0.00602288
     atom   10 type  1   force =     0.02440312    0.01175443   -0.01310077
     atom   11 type  1   force =    -0.00971970   -0.01009586    0.03656948
     atom   12 type  1   force =     0.01397691   -0.00306114    0.00972325
     atom   13 type  1   force =    -0.01329969   -0.01989718    0.02023859
     atom   14 type  1   force =    -0.03349508   -0.03631588   -0.00437623
     atom   15 type  1   force =     0.02210458   -0.01799764   -0.00927488
     atom   16 type  1   force =    -0.02317965    0.07976364   -0.02364998
     atom   17 type  1   force =     0.00512677   -0.03745469   -0.00338601
     atom   18 type  1   force =     0.15822776    0.08269848    0.00178517
     atom   19 type  1   force =     0.01655112    0.01062279   -0.00508029
     atom   20 type  1   force =     0.07045398   -0.04034901    0.10421606
     atom   21 type  1   force =    -0.03297857   -0.01328109   -0.00242536
     atom   22 type  1   force =     0.01788987    0.01612242   -0.00953653
     atom   23 type  1   force =    -0.02207318   -0.00684364    0.01053384
     atom   24 type  1   force =    -0.00660851    0.00950355   -0.00649920
     atom   25 type  1   force =    -0.00911452    0.03350995   -0.01304727
     atom   26 type  1   force =    -0.00312084   -0.05225413    0.02403619
     atom   27 type  1   force =    -0.01380261    0.01103664    0.01757809
     atom   28 type  1   force =    -0.01449634    0.02734354   -0.00907624
     atom   29 type  1   force =     0.00139174   -0.02562377    0.00565993
     atom   30 type  1   force =    -0.01338138    0.00645275   -0.02447767
     atom   31 type  1   force =    -0.01253105   -0.03820990    0.02476654
     atom   32 type  1   force =    -0.03468159    0.00627644    0.03873106
     atom   33 type  1   force =     0.03159811   -0.02653788   -0.01119168
     atom   34 type  1   force =     0.00112683    0.01712415    0.11759096
     atom   35 type  1   force =    -0.01843392    0.03783996   -0.00407027
     atom   36 type  1   force =     0.03776210    0.00542968   -0.11985506
     atom   37 type  1   force =    -0.03428160    0.00541467    0.01859706
     atom   38 type  1   force =    -0.03268301   -0.00998829   -0.02275954
     atom   39 type  1   force =    -0.02302803    0.01624999    0.02031689
     atom   40 type  1   force =    -0.01564462    0.03520490    0.00575273
     atom   41 type  1   force =    -0.00170466    0.01928912   -0.02474677
     atom   42 type  1   force =    -0.00749023   -0.01443830   -0.00988228
     atom   43 type  1   force =     0.00933679   -0.01740421    0.00049517
     atom   44 type  1   force =     0.01805981    0.00710600    0.04651728
     atom   45 type  1   force =    -0.09424065   -0.08640650    0.01099136
     atom   46 type  1   force =    -0.01751659   -0.00571388   -0.05532420
     atom   47 type  1   force =    -0.08481078   -0.02782553    0.09474185
     atom   48 type  1   force =    -0.04855222    0.02724922   -0.02983051
     atom   49 type  1   force =     0.02733273   -0.00748831    0.02628852
     atom   50 type  1   force =     0.04472891   -0.00831539   -0.01511560
     atom   51 type  1   force =     0.06415202   -0.06187940    0.01929008
     atom   52 type  1   force =     0.00256104   -0.01801503    0.00024622
     atom   53 type  1   force =    -0.00359816    0.01875983   -0.01268862
     atom   54 type  1   force =     0.00802614    0.00303090   -0.01279392
     atom   55 type  1   force =    -0.03174684   -0.00695705   -0.00478389
     atom   56 type  1   force =    -0.01995667   -0.00622675    0.04183746
     atom   57 type  1   force =    -0.00243395    0.00411890    0.00840756
     atom   58 type  1   force =    -0.10516839   -0.01582339   -0.05160316
     atom   59 type  1   force =     0.04361612    0.03275184   -0.11960713
     atom   60 type  1   force =     0.02750073    0.00552781    0.04018161
     atom   61 type  1   force =     0.01872903    0.03698196    0.01451309
     atom   62 type  1   force =     0.02221979   -0.04631591    0.05675600
     atom   63 type  1   force =     0.03229655    0.01428199    0.00060701
     atom   64 type  1   force =    -0.07517136    0.04716100    0.01463732

     Total force =     0.512618     Total SCF correction =     0.001139


     Computing stress (Cartesian axis) and pressure

          total   stress  (Ry/bohr**3)                   (kbar)     P=      -19.30
  -0.00007506   0.00001482  -0.00012939          -11.04        2.18      -19.03
   0.00001482  -0.00018545  -0.00001081            2.18      -27.28       -1.59
  -0.00012939  -0.00001081  -0.00013312          -19.03       -1.59      -19.58

 
     init_run     :      0.66s CPU      4.13s WALL (       1 calls)
     electrons    :      2.39s CPU      2.53s WALL (       1 calls)
     forces       :      0.03s CPU      0.04s WALL (       1 calls)
     stress       :      0.17s CPU      0.17s WALL (       1 calls)

     Called by init_run:
     wfcinit      :      0.46s CPU      3.77s WALL (       1 calls)
                                        3.77s GPU  (       1 calls)
     potinit      :      0.04s CPU      0.12s WALL (       1 calls)
     hinit0       :      0.13s CPU      0.16s WALL (       1 calls)

     Called by electrons:
     c_bands      :      1.56s CPU      1.62s WALL (      22 calls)
     sum_band     :      0.42s CPU      0.46s WALL (      22 calls)
     v_of_rho     :      0.17s CPU      0.25s WALL (      22 calls)
     mix_rho      :      0.20s CPU      0.21s WALL (      22 calls)

     Called by c_bands:
     init_us_2    :      0.05s CPU      0.06s WALL (      45 calls)
     init_us_2:gp :      0.05s CPU      0.06s WALL (      45 calls)
     regterg      :      1.40s CPU      1.45s WALL (      22 calls)

     Called by *egterg:
     rdiaghg      :      0.47s CPU      1.13s WALL (     101 calls)
                                        1.11s GPU  (     101 calls)
     h_psi        :      1.19s CPU      3.87s WALL (     103 calls)
                                        3.87s GPU  (     103 calls)
     g_psi        :      0.00s CPU      0.01s WALL (      80 calls)
                                        0.00s GPU  (      80 calls)

     Called by h_psi:
     h_psi:calbec :      0.44s CPU      3.04s WALL (     103 calls)
                                        3.04s GPU  (     103 calls)
     vloc_psi     :      0.69s CPU      0.76s WALL (     103 calls)
                                        0.76s GPU  (     103 calls)
     add_vuspsi   :      0.04s CPU      0.06s WALL (     103 calls)
                                        0.05s GPU  (     103 calls)

     General routines
     calbec       :      0.44s CPU      3.04s WALL (     108 calls)
     fft          :      0.28s CPU      0.39s WALL (     183 calls)
                                        0.11s GPU  (     116 calls)
     ffts         :      0.04s CPU      0.05s WALL (      22 calls)
     fftw         :      0.76s CPU      0.97s WALL (    2328 calls)
                                        0.88s GPU  (    2328 calls)
 
     Parallel routines
 
     PWSCF        :      3.28s CPU      6.94s WALL

 
   This run was terminated on:  15: 6: 5  11May2023            

=------------------------------------------------------------------------------=
   JOB DONE.
=------------------------------------------------------------------------------=
