An instance of this daemon is already running

     Program PWSCF v.7.1 starts on 11May2023 at 15: 4:47 

     This program is part of the open-source Quantum ESPRESSO suite
     for quantum simulation of materials; please cite
         "P. Giannozzi et al., J. Phys.:Condens. Matter 21 395502 (2009);
         "P. Giannozzi et al., J. Phys.:Condens. Matter 29 465901 (2017);
         "P. Giannozzi et al., J. Chem. Phys. 152 154105 (2020);
          URL http://www.quantum-espresso.org", 
     in publications or presentations arising from this work. More details at
     http://www.quantum-espresso.org/quote

     Parallel version (MPI & OpenMP), running on       4 processor cores
     Number of MPI processes:                 4
     Threads/MPI process:                     1

     MPI processes distributed on     1 nodes
     634470 MiB available memory on the printing compute node when the environment starts
 
     Reading input from pw-si-15.in
Warning: card &CELL ignored
Warning: card / ignored

     Current dimensions of program PWSCF are:
     Max number of different atomic species (ntypx) = 10
     Max number of k-points (npk) =  40000
     Max angular momentum in pseudopotentials (lmaxx) =  4

     IMPORTANT: XC functional enforced from input :
     Exchange-correlation= PBE
                           (   1   4   3   4   0   0   0)
     Any further DFT definition will be discarded
     Please, verify this is what you really want


     gamma-point specific algorithms are used
 
     K-points division:     npool     =       2
     R & G space division:  proc/nbgrp/npool/nimage =       2
     Subspace diagonalization in iterative solution of the eigenvalue problem:
     a serial algorithm will be used

     Message from routine divide_et_impera:
     suboptimal parallelization: some nodes have no k-points
 
     Parallelization info
     --------------------
     sticks:   dense  smooth     PW     G-vecs:    dense   smooth      PW
     Min        2217    2217    587               111123   111123   15045
     Max        2220    2220    590               111124   111124   15050
     Sum        4437    4437   1177               222247   222247   30095
 
     Using Slab Decomposition
 


     bravais-lattice index     =            0
     lattice parameter (alat)  =      21.5569  a.u.
     unit-cell volume          =   10017.5472 (a.u.)^3
     number of atoms/cell      =           64
     number of atomic types    =            1
     number of electrons       =       256.00
     number of Kohn-Sham states=          154
     kinetic-energy cutoff     =      30.0000  Ry
     charge density cutoff     =     120.0000  Ry
     scf convergence threshold =      1.0E-06
     mixing beta               =       0.5000
     number of iterations used =            8  plain     mixing
     Exchange-correlation= PBE
                           (   1   4   3   4   0   0   0)

     GPU acceleration is ACTIVE.
     GPU-aware MPI enabled

     Message from routine print_cuda_info:
     High GPU oversubscription detected. Are you sure this is what you want?

     celldm(1)=  21.556941  celldm(2)=   0.000000  celldm(3)=   0.000000
     celldm(4)=   0.000000  celldm(5)=   0.000000  celldm(6)=   0.000000

     crystal axes: (cart. coord. in units of alat)
               a(1) = (   1.000000   0.000000   0.000000 )  
               a(2) = (   0.000000   1.000000   0.000000 )  
               a(3) = (   0.000000   0.000000   1.000000 )  

     reciprocal axes: (cart. coord. in units 2 pi/alat)
               b(1) = (  1.000000  0.000000  0.000000 )  
               b(2) = (  0.000000  1.000000  0.000000 )  
               b(3) = (  0.000000  0.000000  1.000000 )  


     PseudoPot. # 1 for Si read from file:
     /home/ppiaggi/pseudos/Si_ONCV_PBE_sr.upf
     MD5 check sum: 8553c464762ac42b85b1eed164b4d029
     Pseudo is Norm-conserving, Zval =  4.0
     Generated using ONCVPSP code by D. R. Hamann
     Using radial grid of 1510 points,  4 beta functions with: 
                l(1) =   0
                l(2) =   0
                l(3) =   1
                l(4) =   1

     atomic species   valence    mass     pseudopotential
        Si             4.00    28.08500     Si( 1.00)

     No symmetry found



   Cartesian axes

     site n.     atom                  positions (alat units)
         1           Si  tau(   1) = (   0.9123350   0.4052720   0.6963860  )
         2           Si  tau(   2) = (   0.4607460   0.5257860   0.3344080  )
         3           Si  tau(   3) = (   0.7810570   0.9369440   0.4511380  )
         4           Si  tau(   4) = (   0.7829450   0.5606810   0.1974560  )
         5           Si  tau(   5) = (   0.5863780   0.9610390   0.9002050  )
         6           Si  tau(   6) = (   0.2690790   0.4038220   0.7810240  )
         7           Si  tau(   7) = (   0.6245950   0.2223040   0.6124050  )
         8           Si  tau(   8) = (   0.4134020   0.7728440   0.9268620  )
         9           Si  tau(   9) = (   0.5892170   0.6933280   0.9665280  )
        10           Si  tau(  10) = (   0.4480530   0.0142977   0.2280740  )
        11           Si  tau(  11) = (   0.8970040   0.1580090   0.9850450  )
        12           Si  tau(  12) = (   0.0703466   0.2870110   0.8299080  )
        13           Si  tau(  13) = (   0.7009570   0.3080290   0.3829630  )
        14           Si  tau(  14) = (   0.0411766   0.3361650   0.5572650  )
        15           Si  tau(  15) = (   0.4825980   0.1499610   0.0237023  )
        16           Si  tau(  16) = (   0.0696826   0.7784880   0.6496120  )
        17           Si  tau(  17) = (   0.0938622   0.0688494   0.0018933  )
        18           Si  tau(  18) = (   0.4552260   0.9881220   0.7190170  )
        19           Si  tau(  19) = (   0.6891040   0.9310670   0.6448220  )
        20           Si  tau(  20) = (   0.2658360   0.0750217   0.7237120  )
        21           Si  tau(  21) = (   0.7378350   0.8211900   0.8490280  )
        22           Si  tau(  22) = (   0.9652670   0.9726030   0.8865980  )
        23           Si  tau(  23) = (   0.2342860   0.0438628   0.2476250  )
        24           Si  tau(  24) = (   0.3638950   0.3047170   0.1034300  )
        25           Si  tau(  25) = (   0.2803140   0.8041710   0.7574800  )
        26           Si  tau(  26) = (   0.3277730   0.4048590   0.4790950  )
        27           Si  tau(  27) = (   0.0045876   0.0720975   0.1847170  )
        28           Si  tau(  28) = (   0.6188430   0.9008720   0.3330830  )
        29           Si  tau(  29) = (   0.3729510   0.5045260   0.0471456  )
        30           Si  tau(  30) = (   0.6408530   0.0981285   0.4551040  )
        31           Si  tau(  31) = (   0.1855550   0.5429800   0.4842820  )
        32           Si  tau(  32) = (   0.4710150   0.2183950   0.4783300  )
        33           Si  tau(  33) = (   0.2169110   0.7584330   0.3912670  )
        34           Si  tau(  34) = (   0.2729910   0.1465720   0.9369850  )
        35           Si  tau(  35) = (   0.5935950   0.6414950   0.1853270  )
        36           Si  tau(  36) = (   0.2226400   0.2562220   0.6340880  )
        37           Si  tau(  37) = (   0.5495500   0.6527450   0.7479300  )
        38           Si  tau(  38) = (   0.9474590   0.6761420   0.3140460  )
        39           Si  tau(  39) = (   0.7738900   0.5340040   0.6625540  )
        40           Si  tau(  40) = (   0.2153090   0.9555700   0.4685680  )
        41           Si  tau(  41) = (   0.5310140   0.8120310   0.5983050  )
        42           Si  tau(  42) = (   0.7375940   0.5050740   0.8673330  )
        43           Si  tau(  43) = (   0.1630490   0.3118420   0.1583420  )
        44           Si  tau(  44) = (   0.4195110   0.7916270   0.2885100  )
        45           Si  tau(  45) = (   0.1794010   0.6062400   0.6956010  )
        46           Si  tau(  46) = (   0.4988250   0.4998980   0.8711210  )
        47           Si  tau(  47) = (   0.4396180   0.3427240   0.6561490  )
        48           Si  tau(  48) = (   0.9338740   0.1692740   0.7401250  )
        49           Si  tau(  49) = (   0.6244790   0.4992790   0.4697530  )
        50           Si  tau(  50) = (   0.9177330   0.7430170   0.5106730  )
        51           Si  tau(  51) = (   0.9984690   0.4758150   0.4095240  )
        52           Si  tau(  52) = (   0.0714207   0.2398610   0.3481780  )
        53           Si  tau(  53) = (   0.2603230   0.4697230   0.2536100  )
        54           Si  tau(  54) = (   0.8588360   0.3884020   0.2784140  )
        55           Si  tau(  55) = (   0.7227570   0.2533590   0.9857650  )
        56           Si  tau(  56) = (   0.9822710   0.3670880   0.0717199  )
        57           Si  tau(  57) = (   0.1747190   0.4215500   0.9895780  )
        58           Si  tau(  58) = (   0.0160700   0.9615900   0.6818710  )
        59           Si  tau(  59) = (   0.8683780   0.8685920   0.2400770  )
        60           Si  tau(  60) = (   0.0469311   0.8664730   0.3581240  )
        61           Si  tau(  61) = (   0.8377290   0.2097640   0.1728850  )
        62           Si  tau(  62) = (   0.2475530   0.8906660   0.9245720  )
        63           Si  tau(  63) = (   0.5556220   0.1752350   0.8183240  )
        64           Si  tau(  64) = (   0.7169340   0.7031700   0.3702340  )

     number of k points=     1  Fermi-Dirac smearing, width (Ry)=  0.0100
                       cart. coord. in units 2pi/alat
        k(    1) = (   0.0000000   0.0000000   0.0000000), wk =   2.0000000

     Dense  grid:   111124 G-vectors     FFT dimensions: (  75,  75,  75)

     Estimated max dynamical RAM per process >     176.74 MB

     Estimated total dynamical RAM >     679.83 MB

     Initial potential from superposition of free atoms

     starting charge     255.9608, renormalised to     256.0000
     Starting wfcs are  256 randomized atomic wfcs

     total cpu time spent up to now is        3.7 secs

     Self-consistent Calculation

     iteration #  1     ecut=    30.00 Ry     beta= 0.50
     Davidson diagonalization with overlap
     ethr =  1.00E-02,  avg # of iterations =  3.0

     Threshold (ethr) on eigenvalues was too large:
     Diagonalizing with lowered threshold

     Davidson diagonalization with overlap
     ethr =  5.20E-04,  avg # of iterations =  4.0

     total cpu time spent up to now is        4.0 secs

     total energy              =    -500.05400839 Ry
     estimated scf accuracy    <       1.84318212 Ry

     iteration #  2     ecut=    30.00 Ry     beta= 0.50
     Davidson diagonalization with overlap
     ethr =  7.20E-04,  avg # of iterations =  4.0

     total cpu time spent up to now is        4.1 secs

     total energy              =    -499.30164211 Ry
     estimated scf accuracy    <       9.41502368 Ry

     iteration #  3     ecut=    30.00 Ry     beta= 0.50
     Davidson diagonalization with overlap
     ethr =  7.20E-04,  avg # of iterations =  5.0

     total cpu time spent up to now is        4.2 secs

     total energy              =    -500.13112971 Ry
     estimated scf accuracy    <       4.95125843 Ry

     iteration #  4     ecut=    30.00 Ry     beta= 0.50
     Davidson diagonalization with overlap
     ethr =  7.20E-04,  avg # of iterations =  2.0

     total cpu time spent up to now is        4.3 secs

     total energy              =    -500.43576634 Ry
     estimated scf accuracy    <       0.90412297 Ry

     iteration #  5     ecut=    30.00 Ry     beta= 0.50
     Davidson diagonalization with overlap
     ethr =  3.53E-04,  avg # of iterations =  2.0

     total cpu time spent up to now is        4.4 secs

     total energy              =    -500.50558345 Ry
     estimated scf accuracy    <       0.38096685 Ry

     iteration #  6     ecut=    30.00 Ry     beta= 0.50
     Davidson diagonalization with overlap
     ethr =  1.49E-04,  avg # of iterations =  2.0

     total cpu time spent up to now is        4.6 secs

     total energy              =    -500.54211909 Ry
     estimated scf accuracy    <       0.21061674 Ry

     iteration #  7     ecut=    30.00 Ry     beta= 0.50
     Davidson diagonalization with overlap
     ethr =  8.23E-05,  avg # of iterations =  1.0

     total cpu time spent up to now is        4.6 secs

     total energy              =    -500.56010252 Ry
     estimated scf accuracy    <       0.01747381 Ry

     iteration #  8     ecut=    30.00 Ry     beta= 0.50
     Davidson diagonalization with overlap
     ethr =  6.83E-06,  avg # of iterations = 15.0

     total cpu time spent up to now is        4.8 secs

     total energy              =    -500.56027707 Ry
     estimated scf accuracy    <       0.05926732 Ry

     iteration #  9     ecut=    30.00 Ry     beta= 0.50
     Davidson diagonalization with overlap
     ethr =  6.83E-06,  avg # of iterations =  3.0

     total cpu time spent up to now is        4.9 secs

     total energy              =    -500.56453594 Ry
     estimated scf accuracy    <       0.00462789 Ry

     iteration # 10     ecut=    30.00 Ry     beta= 0.50
     Davidson diagonalization with overlap
     ethr =  1.81E-06,  avg # of iterations = 10.0

     total cpu time spent up to now is        5.1 secs

     total energy              =    -500.56492207 Ry
     estimated scf accuracy    <       0.00273114 Ry

     iteration # 11     ecut=    30.00 Ry     beta= 0.50
     Davidson diagonalization with overlap
     ethr =  1.07E-06,  avg # of iterations =  2.0

     total cpu time spent up to now is        5.2 secs

     total energy              =    -500.56507822 Ry
     estimated scf accuracy    <       0.00187524 Ry

     iteration # 12     ecut=    30.00 Ry     beta= 0.50
     Davidson diagonalization with overlap
     ethr =  7.33E-07,  avg # of iterations =  2.0

     total cpu time spent up to now is        5.3 secs

     total energy              =    -500.56523260 Ry
     estimated scf accuracy    <       0.00061281 Ry

     iteration # 13     ecut=    30.00 Ry     beta= 0.50
     Davidson diagonalization with overlap
     ethr =  2.39E-07,  avg # of iterations =  2.0

     total cpu time spent up to now is        5.4 secs

     total energy              =    -500.56526651 Ry
     estimated scf accuracy    <       0.00046479 Ry

     iteration # 14     ecut=    30.00 Ry     beta= 0.50
     Davidson diagonalization with overlap
     ethr =  1.82E-07,  avg # of iterations =  1.0

     total cpu time spent up to now is        5.5 secs

     total energy              =    -500.56530205 Ry
     estimated scf accuracy    <       0.00007615 Ry

     iteration # 15     ecut=    30.00 Ry     beta= 0.50
     Davidson diagonalization with overlap
     ethr =  2.97E-08,  avg # of iterations =  2.0

     total cpu time spent up to now is        5.6 secs

     total energy              =    -500.56530514 Ry
     estimated scf accuracy    <       0.00002832 Ry

     iteration # 16     ecut=    30.00 Ry     beta= 0.50
     Davidson diagonalization with overlap
     ethr =  1.11E-08,  avg # of iterations =  4.0

     total cpu time spent up to now is        5.7 secs

     total energy              =    -500.56530647 Ry
     estimated scf accuracy    <       0.00008258 Ry

     iteration # 17     ecut=    30.00 Ry     beta= 0.50
     Davidson diagonalization with overlap
     ethr =  1.11E-08,  avg # of iterations =  3.0

     total cpu time spent up to now is        5.8 secs

     total energy              =    -500.56531126 Ry
     estimated scf accuracy    <       0.00001831 Ry

     iteration # 18     ecut=    30.00 Ry     beta= 0.50
     Davidson diagonalization with overlap
     ethr =  7.15E-09,  avg # of iterations =  2.0

     total cpu time spent up to now is        5.9 secs

     End of self-consistent calculation

          k = 0.0000 0.0000 0.0000 ( 13913 PWs)   bands (ev):

    -7.3652  -6.8783  -6.6821  -6.5289  -6.4740  -6.3025  -6.0490  -5.7344
    -5.5514  -5.4080  -5.3608  -5.2709  -5.1363  -5.0119  -4.8897  -4.7336
    -4.6288  -4.4946  -4.2323  -4.1462  -3.9500  -3.9174  -3.7781  -3.5566
    -3.4928  -3.4036  -3.3121  -3.0763  -2.9110  -2.7984  -2.7225  -2.5701
    -2.4502  -2.3340  -2.3061  -2.2221  -2.1476  -1.9824  -1.9022  -1.7633
    -1.5370  -1.5263  -1.4165  -1.3952  -1.3266  -1.2160  -1.1362  -0.9758
    -0.8732  -0.7524  -0.6226  -0.5861  -0.5175  -0.4323  -0.3040  -0.2311
    -0.1160   0.0228   0.0635   0.2265   0.3137   0.4273   0.6007   0.7213
     0.8280   0.9330   0.9605   1.1102   1.2165   1.2583   1.3188   1.3482
     1.4195   1.4451   1.5753   1.6381   1.7104   1.7872   1.8682   1.8972
     1.9938   2.0788   2.1786   2.2230   2.2896   2.3648   2.4462   2.5066
     2.5863   2.6445   2.6530   2.7171   2.8215   2.8789   2.8842   3.0125
     3.0534   3.1376   3.1769   3.1947   3.2797   3.3593   3.3671   3.4122
     3.4843   3.5168   3.5742   3.6178   3.7082   3.8078   3.8825   4.0034
     4.0781   4.1305   4.2265   4.2482   4.3219   4.3448   4.4129   4.4653
     4.5154   4.5730   4.5939   4.6716   4.7477   4.8256   4.8511   4.8648
     4.8777   4.9745   5.0797   5.1329   5.1636   5.2231   5.2337   5.3272
     5.3723   5.4700   5.5318   5.6100   5.6421   5.7060   5.7734   5.7896
     5.8786   5.9888   6.0537   6.0770   6.1313   6.1459   6.2434   6.2899
     6.3640   6.4353

     the Fermi energy is     4.9161 ev

!    total energy              =    -500.56531212 Ry
     estimated scf accuracy    <       0.00000093 Ry
     smearing contrib. (-TS)   =      -0.16407771 Ry
     internal energy E=F+TS    =    -500.40123441 Ry

     The total energy is F=E-TS. E is the sum of the following terms:
     one-electron contribution =      31.10468972 Ry
     hartree contribution      =      81.86017381 Ry
     xc contribution           =    -148.56132484 Ry
     ewald contribution        =    -464.80477309 Ry

     convergence has been achieved in  18 iterations

     Forces acting on atoms (cartesian axes, Ry/au):

     atom    1 type  1   force =     0.05009078   -0.05893111    0.05184544
     atom    2 type  1   force =     0.00150318    0.00615705   -0.00958541
     atom    3 type  1   force =     0.05745838   -0.01005616    0.01589680
     atom    4 type  1   force =     0.02295521    0.01743947    0.01698388
     atom    5 type  1   force =    -0.04019865    0.02270962   -0.02078262
     atom    6 type  1   force =    -0.01531817    0.02134086    0.03188774
     atom    7 type  1   force =     0.03424158    0.03184032    0.05782640
     atom    8 type  1   force =    -0.00549833    0.01666309   -0.01434604
     atom    9 type  1   force =     0.04936155   -0.02021972    0.01479972
     atom   10 type  1   force =    -0.00460930   -0.00931317   -0.00951722
     atom   11 type  1   force =     0.04680515   -0.00038104   -0.07317642
     atom   12 type  1   force =     0.02921106    0.04630712    0.03629598
     atom   13 type  1   force =    -0.03845805   -0.00819564    0.03022886
     atom   14 type  1   force =     0.02333389   -0.01977886   -0.02017331
     atom   15 type  1   force =     0.00139425   -0.03245152    0.00433603
     atom   16 type  1   force =     0.03892337   -0.05733471   -0.01376746
     atom   17 type  1   force =     0.04357220   -0.00916617    0.00888619
     atom   18 type  1   force =     0.03260718   -0.02037750    0.00865484
     atom   19 type  1   force =     0.01083390    0.01105773    0.03072885
     atom   20 type  1   force =    -0.02279999   -0.01682317    0.00895133
     atom   21 type  1   force =     0.01311594    0.00494345   -0.00769126
     atom   22 type  1   force =    -0.04827295   -0.02090934   -0.01935598
     atom   23 type  1   force =    -0.00805179    0.00564352    0.04368335
     atom   24 type  1   force =    -0.01101640   -0.00361505   -0.00191058
     atom   25 type  1   force =     0.00445906   -0.06882842   -0.08196730
     atom   26 type  1   force =     0.04021443   -0.04259943   -0.02031645
     atom   27 type  1   force =    -0.00313298   -0.02054459    0.04569938
     atom   28 type  1   force =    -0.05779010   -0.02076196   -0.02434768
     atom   29 type  1   force =     0.00244370    0.02677389   -0.00013296
     atom   30 type  1   force =     0.03121223   -0.00390045   -0.03554386
     atom   31 type  1   force =    -0.02667107    0.06961859   -0.00864418
     atom   32 type  1   force =    -0.04767401    0.00936694   -0.04832783
     atom   33 type  1   force =     0.02546451   -0.03820642    0.01437916
     atom   34 type  1   force =     0.01610646   -0.01161002   -0.02428664
     atom   35 type  1   force =    -0.03755927    0.01149053    0.00516334
     atom   36 type  1   force =    -0.00668064    0.02762209   -0.02324680
     atom   37 type  1   force =    -0.00943819    0.02767565   -0.00254604
     atom   38 type  1   force =    -0.02152527   -0.03244077   -0.02096628
     atom   39 type  1   force =    -0.06039595    0.04736148   -0.03424481
     atom   40 type  1   force =    -0.01363616    0.01303789   -0.01323788
     atom   41 type  1   force =    -0.03334056   -0.00890439   -0.00029185
     atom   42 type  1   force =    -0.03288605   -0.02641819    0.01753087
     atom   43 type  1   force =    -0.00464683   -0.05426728    0.06956475
     atom   44 type  1   force =     0.01170844    0.00409261    0.00459624
     atom   45 type  1   force =     0.01893484   -0.01077863    0.00178048
     atom   46 type  1   force =     0.00980082   -0.01607548   -0.00144140
     atom   47 type  1   force =     0.00659869    0.00934818    0.01733398
     atom   48 type  1   force =    -0.03031954   -0.02610066   -0.00651135
     atom   49 type  1   force =     0.01440147   -0.00205794    0.00837860
     atom   50 type  1   force =    -0.03125459    0.01442538   -0.01068513
     atom   51 type  1   force =     0.00583194    0.01712526   -0.01110982
     atom   52 type  1   force =     0.01122214   -0.00634859   -0.01894666
     atom   53 type  1   force =     0.03115470    0.01227330    0.02283353
     atom   54 type  1   force =     0.02872326   -0.00854903    0.00283311
     atom   55 type  1   force =    -0.05395831    0.02706903   -0.01773816
     atom   56 type  1   force =    -0.03979048   -0.01058947   -0.02376931
     atom   57 type  1   force =     0.01805520    0.01246860   -0.06994749
     atom   58 type  1   force =     0.00546757    0.08937947    0.01008211
     atom   59 type  1   force =     0.00763642    0.03704752    0.00114319
     atom   60 type  1   force =    -0.01442531    0.01571449    0.01981303
     atom   61 type  1   force =    -0.02041393    0.01089625    0.02901330
     atom   62 type  1   force =    -0.02890177    0.06826162    0.06869048
     atom   63 type  1   force =     0.01501017   -0.01494725    0.00404329
     atom   64 type  1   force =     0.00881102   -0.02366885   -0.01532809

     Total force =     0.407967     Total SCF correction =     0.001592


     Computing stress (Cartesian axis) and pressure

          total   stress  (Ry/bohr**3)                   (kbar)     P=      -29.97
  -0.00018809  -0.00009340   0.00003848          -27.67      -13.74        5.66
  -0.00009340  -0.00022069   0.00006009          -13.74      -32.46        8.84
   0.00003848   0.00006009  -0.00020238            5.66        8.84      -29.77

 
     init_run     :      0.65s CPU      3.68s WALL (       1 calls)
     electrons    :      2.04s CPU      2.19s WALL (       1 calls)
     forces       :      0.03s CPU      0.04s WALL (       1 calls)
     stress       :      0.17s CPU      0.17s WALL (       1 calls)

     Called by init_run:
     wfcinit      :      0.45s CPU      3.34s WALL (       1 calls)
                                        3.34s GPU  (       1 calls)
     potinit      :      0.04s CPU      0.11s WALL (       1 calls)
     hinit0       :      0.13s CPU      0.15s WALL (       1 calls)

     Called by electrons:
     c_bands      :      1.34s CPU      1.41s WALL (      19 calls)
     sum_band     :      0.37s CPU      0.41s WALL (      19 calls)
     v_of_rho     :      0.14s CPU      0.21s WALL (      19 calls)
     mix_rho      :      0.16s CPU      0.18s WALL (      19 calls)

     Called by c_bands:
     init_us_2    :      0.05s CPU      0.05s WALL (      39 calls)
     init_us_2:gp :      0.05s CPU      0.05s WALL (      39 calls)
     regterg      :      1.17s CPU      1.24s WALL (      19 calls)

     Called by *egterg:
     rdiaghg      :      0.38s CPU      0.98s WALL (      87 calls)
                                        0.97s GPU  (      87 calls)
     h_psi        :      1.06s CPU      3.38s WALL (      89 calls)
                                        3.38s GPU  (      89 calls)
     g_psi        :      0.00s CPU      0.00s WALL (      69 calls)
                                        0.00s GPU  (      69 calls)

     Called by h_psi:
     h_psi:calbec :      0.42s CPU      2.66s WALL (      89 calls)
                                        2.66s GPU  (      89 calls)
     vloc_psi     :      0.58s CPU      0.67s WALL (      89 calls)
                                        0.66s GPU  (      89 calls)
     add_vuspsi   :      0.03s CPU      0.05s WALL (      89 calls)
                                        0.05s GPU  (      89 calls)

     General routines
     calbec       :      0.42s CPU      2.66s WALL (      94 calls)
     fft          :      0.25s CPU      0.35s WALL (     159 calls)
                                        0.10s GPU  (     101 calls)
     ffts         :      0.04s CPU      0.05s WALL (      19 calls)
     fftw         :      0.66s CPU      0.85s WALL (    2011 calls)
                                        0.77s GPU  (    2011 calls)
 
     Parallel routines
 
     PWSCF        :      2.93s CPU      6.15s WALL

 
   This run was terminated on:  15: 4:53  11May2023            

=------------------------------------------------------------------------------=
   JOB DONE.
=------------------------------------------------------------------------------=
