An instance of this daemon is already running

     Program PWSCF v.7.1 starts on 11May2023 at 15: 2:52 

     This program is part of the open-source Quantum ESPRESSO suite
     for quantum simulation of materials; please cite
         "P. Giannozzi et al., J. Phys.:Condens. Matter 21 395502 (2009);
         "P. Giannozzi et al., J. Phys.:Condens. Matter 29 465901 (2017);
         "P. Giannozzi et al., J. Chem. Phys. 152 154105 (2020);
          URL http://www.quantum-espresso.org", 
     in publications or presentations arising from this work. More details at
     http://www.quantum-espresso.org/quote

     Parallel version (MPI & OpenMP), running on       4 processor cores
     Number of MPI processes:                 4
     Threads/MPI process:                     1

     MPI processes distributed on     1 nodes
     639646 MiB available memory on the printing compute node when the environment starts
 
     Reading input from pw-si-2.in
Warning: card &CELL ignored
Warning: card / ignored

     Current dimensions of program PWSCF are:
     Max number of different atomic species (ntypx) = 10
     Max number of k-points (npk) =  40000
     Max angular momentum in pseudopotentials (lmaxx) =  4

     IMPORTANT: XC functional enforced from input :
     Exchange-correlation= PBE
                           (   1   4   3   4   0   0   0)
     Any further DFT definition will be discarded
     Please, verify this is what you really want


     gamma-point specific algorithms are used
 
     K-points division:     npool     =       2
     R & G space division:  proc/nbgrp/npool/nimage =       2
     Subspace diagonalization in iterative solution of the eigenvalue problem:
     a serial algorithm will be used

     Message from routine divide_et_impera:
     suboptimal parallelization: some nodes have no k-points
 
     Parallelization info
     --------------------
     sticks:   dense  smooth     PW     G-vecs:    dense   smooth      PW
     Min        2140    2140    562               105932   105932   14271
     Max        2141    2141    563               105941   105941   14274
     Sum        4281    4281   1125               211873   211873   28545
 
     Using Slab Decomposition
 


     bravais-lattice index     =            0
     lattice parameter (alat)  =      21.2180  a.u.
     unit-cell volume          =    9552.4451 (a.u.)^3
     number of atoms/cell      =           64
     number of atomic types    =            1
     number of electrons       =       256.00
     number of Kohn-Sham states=          154
     kinetic-energy cutoff     =      30.0000  Ry
     charge density cutoff     =     120.0000  Ry
     scf convergence threshold =      1.0E-06
     mixing beta               =       0.5000
     number of iterations used =            8  plain     mixing
     Exchange-correlation= PBE
                           (   1   4   3   4   0   0   0)

     GPU acceleration is ACTIVE.
     GPU-aware MPI enabled

     Message from routine print_cuda_info:
     High GPU oversubscription detected. Are you sure this is what you want?

     celldm(1)=  21.218020  celldm(2)=   0.000000  celldm(3)=   0.000000
     celldm(4)=   0.000000  celldm(5)=   0.000000  celldm(6)=   0.000000

     crystal axes: (cart. coord. in units of alat)
               a(1) = (   1.000000   0.000000   0.000000 )  
               a(2) = (   0.000000   1.000000   0.000000 )  
               a(3) = (   0.000000   0.000000   1.000000 )  

     reciprocal axes: (cart. coord. in units 2 pi/alat)
               b(1) = (  1.000000  0.000000  0.000000 )  
               b(2) = (  0.000000  1.000000  0.000000 )  
               b(3) = (  0.000000  0.000000  1.000000 )  


     PseudoPot. # 1 for Si read from file:
     /home/ppiaggi/pseudos/Si_ONCV_PBE_sr.upf
     MD5 check sum: 8553c464762ac42b85b1eed164b4d029
     Pseudo is Norm-conserving, Zval =  4.0
     Generated using ONCVPSP code by D. R. Hamann
     Using radial grid of 1510 points,  4 beta functions with: 
                l(1) =   0
                l(2) =   0
                l(3) =   1
                l(4) =   1

     atomic species   valence    mass     pseudopotential
        Si             4.00    28.08500     Si( 1.00)

     No symmetry found



   Cartesian axes

     site n.     atom                  positions (alat units)
         1           Si  tau(   1) = (   0.9121510   0.3408290   0.5990960  )
         2           Si  tau(   2) = (   0.6963630   0.5228840   0.1123080  )
         3           Si  tau(   3) = (   0.7594310   0.8256230   0.3829840  )
         4           Si  tau(   4) = (   0.7032710   0.5247200   0.3759370  )
         5           Si  tau(   5) = (   0.8922140   0.1456560   0.5580390  )
         6           Si  tau(   6) = (   0.2038750   0.5246210   0.9248690  )
         7           Si  tau(   7) = (   0.9723320   0.2542980   0.0517478  )
         8           Si  tau(   8) = (   0.2117670   0.8639230   0.0603559  )
         9           Si  tau(   9) = (   0.5528070   0.9004940   0.2079440  )
        10           Si  tau(  10) = (   0.4057150   0.0162864   0.9698030  )
        11           Si  tau(  11) = (   0.9347590   0.1530860   0.8539110  )
        12           Si  tau(  12) = (   0.9986920   0.5635330   0.9637640  )
        13           Si  tau(  13) = (   0.6320610   0.2997470   0.6036200  )
        14           Si  tau(  14) = (   0.9546600   0.2438510   0.3149550  )
        15           Si  tau(  15) = (   0.6320080   0.1977200   0.9185600  )
        16           Si  tau(  16) = (   0.7623790   0.5014810   0.6212530  )
        17           Si  tau(  17) = (   0.3778190   0.1822400   0.1068230  )
        18           Si  tau(  18) = (   0.7501010   0.2140940   0.7535200  )
        19           Si  tau(  19) = (   0.7363440   0.8576720   0.5964040  )
        20           Si  tau(  20) = (   0.3075530   0.1518410   0.8453030  )
        21           Si  tau(  21) = (   0.5014600   0.1972770   0.7617770  )
        22           Si  tau(  22) = (   0.8785210   0.6990170   0.6120380  )
        23           Si  tau(  23) = (   0.3678940   0.8968870   0.5397990  )
        24           Si  tau(  24) = (   0.2633680   0.3893960   0.0840658  )
        25           Si  tau(  25) = (   0.0842490   0.6141090   0.1472450  )
        26           Si  tau(  26) = (   0.1603070   0.1743890   0.2076880  )
        27           Si  tau(  27) = (   0.9249500   0.9458530   0.9737900  )
        28           Si  tau(  28) = (   0.7450650   0.0157301   0.3107220  )
        29           Si  tau(  29) = (   0.5345490   0.6535330   0.0493661  )
        30           Si  tau(  30) = (   0.7521570   0.2264450   0.4018820  )
        31           Si  tau(  31) = (   0.3574810   0.4536030   0.5681860  )
        32           Si  tau(  32) = (   0.3938700   0.2400260   0.3307720  )
        33           Si  tau(  33) = (   0.1549450   0.7215850   0.6473830  )
        34           Si  tau(  34) = (   0.4347760   0.3659000   0.9258560  )
        35           Si  tau(  35) = (   0.8829310   0.7475680   0.0655699  )
        36           Si  tau(  36) = (   0.2773830   0.3772730   0.7768820  )
        37           Si  tau(  37) = (   0.3322950   0.6731370   0.9848950  )
        38           Si  tau(  38) = (   0.9383950   0.7440520   0.2904190  )
        39           Si  tau(  39) = (   0.5009490   0.9105270   0.6969910  )
        40           Si  tau(  40) = (   0.1399830   0.4635070   0.4531830  )
        41           Si  tau(  41) = (   0.2597510   0.0750218   0.4223120  )
        42           Si  tau(  42) = (   0.8467630   0.4416640   0.9765880  )
        43           Si  tau(  43) = (   0.1618630   0.8075500   0.2547310  )
        44           Si  tau(  44) = (   0.2393050   0.6595960   0.3989210  )
        45           Si  tau(  45) = (   0.0988206   0.4302310   0.6626000  )
        46           Si  tau(  46) = (   0.3501300   0.7010880   0.7602090  )
        47           Si  tau(  47) = (   0.5288010   0.5186180   0.6710180  )
        48           Si  tau(  48) = (   0.0891414   0.2085720   0.5042680  )
        49           Si  tau(  49) = (   0.8030250   0.3700050   0.1915540  )
        50           Si  tau(  50) = (   0.6323430   0.6880540   0.2815920  )
        51           Si  tau(  51) = (   0.9460470   0.4656750   0.3498830  )
        52           Si  tau(  52) = (   0.0103734   0.9736850   0.4384920  )
        53           Si  tau(  53) = (   0.4033930   0.4309470   0.3646480  )
        54           Si  tau(  54) = (   0.1398430   0.3796380   0.2625860  )
        55           Si  tau(  55) = (   0.5844380   0.2947300   0.1849300  )
        56           Si  tau(  56) = (   0.0914005   0.2983930   0.8579920  )
        57           Si  tau(  57) = (   0.2995160   0.5907280   0.1943980  )
        58           Si  tau(  58) = (   0.0387455   0.5860770   0.7638650  )
        59           Si  tau(  59) = (   0.6918330   0.7566370   0.0651731  )
        60           Si  tau(  60) = (   0.0638856   0.6997700   0.4667060  )
        61           Si  tau(  61) = (   0.8965210   0.0739726   0.1429650  )
        62           Si  tau(  62) = (   0.1289420   0.9858600   0.9173730  )
        63           Si  tau(  63) = (   0.6357770   0.4653730   0.8445070  )
        64           Si  tau(  64) = (   0.4697400   0.7626170   0.3908750  )

     number of k points=     1  Fermi-Dirac smearing, width (Ry)=  0.0100
                       cart. coord. in units 2pi/alat
        k(    1) = (   0.0000000   0.0000000   0.0000000), wk =   2.0000000

     Dense  grid:   105937 G-vectors     FFT dimensions: (  75,  75,  75)

     Estimated max dynamical RAM per process >     169.34 MB

     Estimated total dynamical RAM >     651.51 MB

     Initial potential from superposition of free atoms

     starting charge     255.9608, renormalised to     256.0000
     Starting wfcs are  256 randomized atomic wfcs

     total cpu time spent up to now is        4.2 secs

     Self-consistent Calculation

     iteration #  1     ecut=    30.00 Ry     beta= 0.50
     Davidson diagonalization with overlap
     ethr =  1.00E-02,  avg # of iterations =  3.0

     Threshold (ethr) on eigenvalues was too large:
     Diagonalizing with lowered threshold

     Davidson diagonalization with overlap
     ethr =  7.07E-04,  avg # of iterations =  4.0

     total cpu time spent up to now is        4.4 secs

     total energy              =    -499.73626452 Ry
     estimated scf accuracy    <       2.39708369 Ry

     iteration #  2     ecut=    30.00 Ry     beta= 0.50
     Davidson diagonalization with overlap
     ethr =  9.36E-04,  avg # of iterations =  6.0

     total cpu time spent up to now is        4.5 secs

     total energy              =    -498.17187733 Ry
     estimated scf accuracy    <      26.74775566 Ry

     iteration #  3     ecut=    30.00 Ry     beta= 0.50
     Davidson diagonalization with overlap
     ethr =  9.36E-04,  avg # of iterations =  5.0

     total cpu time spent up to now is        4.7 secs

     total energy              =    -500.39104915 Ry
     estimated scf accuracy    <       1.49363441 Ry

     iteration #  4     ecut=    30.00 Ry     beta= 0.50
     Davidson diagonalization with overlap
     ethr =  5.83E-04,  avg # of iterations =  2.0

     total cpu time spent up to now is        4.8 secs

     total energy              =    -500.53326417 Ry
     estimated scf accuracy    <       0.78940500 Ry

     iteration #  5     ecut=    30.00 Ry     beta= 0.50
     Davidson diagonalization with overlap
     ethr =  3.08E-04,  avg # of iterations =  2.0

     total cpu time spent up to now is        4.9 secs

     total energy              =    -500.56214936 Ry
     estimated scf accuracy    <       0.69868023 Ry

     iteration #  6     ecut=    30.00 Ry     beta= 0.50
     Davidson diagonalization with overlap
     ethr =  2.73E-04,  avg # of iterations =  2.0

     total cpu time spent up to now is        5.0 secs

     total energy              =    -500.62170674 Ry
     estimated scf accuracy    <       0.18031650 Ry

     iteration #  7     ecut=    30.00 Ry     beta= 0.50
     Davidson diagonalization with overlap
     ethr =  7.04E-05,  avg # of iterations =  2.0

     total cpu time spent up to now is        5.1 secs

     total energy              =    -500.63507168 Ry
     estimated scf accuracy    <       0.04687486 Ry

     iteration #  8     ecut=    30.00 Ry     beta= 0.50
     Davidson diagonalization with overlap
     ethr =  1.83E-05,  avg # of iterations =  9.0

     total cpu time spent up to now is        5.2 secs

     total energy              =    -500.63999075 Ry
     estimated scf accuracy    <       0.03645275 Ry

     iteration #  9     ecut=    30.00 Ry     beta= 0.50
     Davidson diagonalization with overlap
     ethr =  1.42E-05,  avg # of iterations =  2.0

     total cpu time spent up to now is        5.3 secs

     total energy              =    -500.64261312 Ry
     estimated scf accuracy    <       0.00467446 Ry

     iteration # 10     ecut=    30.00 Ry     beta= 0.50
     Davidson diagonalization with overlap
     c_bands:  1 eigenvalues not converged
     ethr =  1.83E-06,  avg # of iterations = 20.0

     total cpu time spent up to now is        5.5 secs

     total energy              =    -500.64302446 Ry
     estimated scf accuracy    <       0.00591261 Ry

     iteration # 11     ecut=    30.00 Ry     beta= 0.50
     Davidson diagonalization with overlap
     ethr =  1.83E-06,  avg # of iterations =  2.0

     total cpu time spent up to now is        5.6 secs

     total energy              =    -500.64337690 Ry
     estimated scf accuracy    <       0.00175412 Ry

     iteration # 12     ecut=    30.00 Ry     beta= 0.50
     Davidson diagonalization with overlap
     ethr =  6.85E-07,  avg # of iterations =  2.0

     total cpu time spent up to now is        5.7 secs

     total energy              =    -500.64354584 Ry
     estimated scf accuracy    <       0.00068871 Ry

     iteration # 13     ecut=    30.00 Ry     beta= 0.50
     Davidson diagonalization with overlap
     ethr =  2.69E-07,  avg # of iterations =  2.0

     total cpu time spent up to now is        5.8 secs

     total energy              =    -500.64359879 Ry
     estimated scf accuracy    <       0.00043856 Ry

     iteration # 14     ecut=    30.00 Ry     beta= 0.50
     Davidson diagonalization with overlap
     ethr =  1.71E-07,  avg # of iterations =  2.0

     total cpu time spent up to now is        5.9 secs

     total energy              =    -500.64362797 Ry
     estimated scf accuracy    <       0.00015064 Ry

     iteration # 15     ecut=    30.00 Ry     beta= 0.50
     Davidson diagonalization with overlap
     ethr =  5.88E-08,  avg # of iterations =  2.0

     total cpu time spent up to now is        6.0 secs

     total energy              =    -500.64364041 Ry
     estimated scf accuracy    <       0.00004630 Ry

     iteration # 16     ecut=    30.00 Ry     beta= 0.50
     Davidson diagonalization with overlap
     ethr =  1.81E-08,  avg # of iterations =  3.0

     total cpu time spent up to now is        6.1 secs

     total energy              =    -500.64364336 Ry
     estimated scf accuracy    <       0.00005607 Ry

     iteration # 17     ecut=    30.00 Ry     beta= 0.50
     Davidson diagonalization with overlap
     ethr =  1.81E-08,  avg # of iterations =  2.0

     total cpu time spent up to now is        6.2 secs

     total energy              =    -500.64364669 Ry
     estimated scf accuracy    <       0.00000540 Ry

     iteration # 18     ecut=    30.00 Ry     beta= 0.50
     Davidson diagonalization with overlap
     ethr =  2.11E-09,  avg # of iterations =  5.0

     total cpu time spent up to now is        6.4 secs

     total energy              =    -500.64364679 Ry
     estimated scf accuracy    <       0.00002240 Ry

     iteration # 19     ecut=    30.00 Ry     beta= 0.50
     Davidson diagonalization with overlap
     ethr =  2.11E-09,  avg # of iterations =  3.0

     total cpu time spent up to now is        6.5 secs

     total energy              =    -500.64364814 Ry
     estimated scf accuracy    <       0.00000109 Ry

     iteration # 20     ecut=    30.00 Ry     beta= 0.50
     Davidson diagonalization with overlap
     ethr =  4.26E-10,  avg # of iterations =  3.0

     total cpu time spent up to now is        6.6 secs

     End of self-consistent calculation

          k = 0.0000 0.0000 0.0000 ( 13373 PWs)   bands (ev):

    -7.1479  -6.4325  -6.3546  -6.2587  -5.8796  -5.8008  -5.4880  -5.3447
    -5.2327  -4.9116  -4.8001  -4.6574  -4.6072  -4.4617  -4.3921  -4.2671
    -4.1641  -3.9782  -3.7497  -3.6859  -3.5895  -3.3633  -3.3402  -3.1866
    -3.0448  -2.9486  -2.7543  -2.6283  -2.4516  -2.4052  -2.2577  -2.1713
    -2.0517  -1.9548  -1.9359  -1.7697  -1.7328  -1.6592  -1.5819  -1.4150
    -1.2882  -1.2035  -1.1568  -1.0404  -0.9763  -0.8973  -0.8231  -0.6278
    -0.5382  -0.4255  -0.3364  -0.1993  -0.0110   0.0245   0.0947   0.1703
     0.2066   0.4894   0.5199   0.5569   0.6122   0.8267   0.9734   1.0898
     1.1545   1.2384   1.3692   1.4234   1.5110   1.5597   1.6277   1.7148
     1.8122   1.8626   1.9705   2.0266   2.1208   2.1768   2.2650   2.4011
     2.4731   2.5529   2.6258   2.6688   2.7309   2.7749   2.8292   2.8670
     3.0062   3.1288   3.1499   3.2258   3.2967   3.3152   3.4792   3.5012
     3.5550   3.5580   3.6569   3.6773   3.7584   3.7829   3.9063   3.9478
     3.9953   4.0650   4.1293   4.1747   4.1964   4.2857   4.4006   4.4218
     4.4692   4.5362   4.6335   4.6542   4.6939   4.8279   4.8864   4.9374
     4.9987   5.0143   5.1011   5.1585   5.2144   5.2643   5.3078   5.4147
     5.4304   5.4531   5.5106   5.5393   5.6216   5.6657   5.7059   5.8075
     5.9024   5.9058   5.9634   6.0567   6.0967   6.1582   6.2167   6.3002
     6.3781   6.4700   6.5937   6.6276   6.6568   6.7156   6.7279   6.8286
     6.8775   6.8965

     the Fermi energy is     5.3914 ev

!    total energy              =    -500.64364802 Ry
     estimated scf accuracy    <       0.00000037 Ry
     smearing contrib. (-TS)   =      -0.16719395 Ry
     internal energy E=F+TS    =    -500.47645407 Ry

     The total energy is F=E-TS. E is the sum of the following terms:
     one-electron contribution =      25.29633823 Ry
     hartree contribution      =      89.18620653 Ry
     xc contribution           =    -149.14946913 Ry
     ewald contribution        =    -465.80952971 Ry

     convergence has been achieved in  20 iterations

     Forces acting on atoms (cartesian axes, Ry/au):

     atom    1 type  1   force =     0.00656258    0.05431762    0.00857557
     atom    2 type  1   force =    -0.04608970    0.03675607   -0.01659008
     atom    3 type  1   force =     0.02208958   -0.00699309    0.03144482
     atom    4 type  1   force =     0.03671300   -0.04363928    0.01674980
     atom    5 type  1   force =    -0.01872542   -0.06485434   -0.00595969
     atom    6 type  1   force =     0.00203806   -0.03993360   -0.00753513
     atom    7 type  1   force =    -0.00462800    0.02412493   -0.00018768
     atom    8 type  1   force =     0.04438994   -0.03257790   -0.03038569
     atom    9 type  1   force =     0.02813350   -0.00329062    0.01161748
     atom   10 type  1   force =     0.01106295   -0.02443501    0.03620507
     atom   11 type  1   force =    -0.01034490   -0.01940634    0.00999977
     atom   12 type  1   force =     0.00640472    0.06982982    0.01562384
     atom   13 type  1   force =    -0.02168286    0.01374580   -0.01298782
     atom   14 type  1   force =     0.00204059   -0.00627899    0.01039517
     atom   15 type  1   force =    -0.01402789    0.01564732    0.07077683
     atom   16 type  1   force =    -0.03469234    0.01095872   -0.02780337
     atom   17 type  1   force =    -0.01290926    0.04079298    0.01905012
     atom   18 type  1   force =     0.06314035    0.00286580   -0.01064248
     atom   19 type  1   force =    -0.01526008    0.00560601   -0.00091708
     atom   20 type  1   force =    -0.04348161    0.02263940   -0.01460552
     atom   21 type  1   force =    -0.01960328   -0.01312061   -0.04085899
     atom   22 type  1   force =     0.02543897   -0.02400900   -0.00383252
     atom   23 type  1   force =    -0.01172299   -0.00605397   -0.02457052
     atom   24 type  1   force =     0.01860255   -0.01477647    0.00931783
     atom   25 type  1   force =     0.00457170    0.00519991    0.04632539
     atom   26 type  1   force =     0.00508047   -0.02004631   -0.00200870
     atom   27 type  1   force =     0.00278643    0.01920263    0.01493082
     atom   28 type  1   force =    -0.00435367    0.04705330   -0.04485781
     atom   29 type  1   force =    -0.09096000   -0.09556189   -0.00538956
     atom   30 type  1   force =    -0.00780395   -0.02291954    0.00060148
     atom   31 type  1   force =    -0.02338747    0.00916268    0.01469088
     atom   32 type  1   force =    -0.01006686   -0.09274649   -0.03856812
     atom   33 type  1   force =     0.04841377    0.01234083    0.04587358
     atom   34 type  1   force =     0.03810736   -0.01857684    0.01001561
     atom   35 type  1   force =     0.09329870    0.00309233   -0.00075313
     atom   36 type  1   force =     0.01195901   -0.00303424   -0.02739828
     atom   37 type  1   force =     0.00869113    0.06672674   -0.00106750
     atom   38 type  1   force =     0.02661377   -0.00273317   -0.02789104
     atom   39 type  1   force =     0.01249379   -0.01254821    0.01194762
     atom   40 type  1   force =     0.01654560    0.01463479    0.02019830
     atom   41 type  1   force =    -0.02668986    0.01078713   -0.00321128
     atom   42 type  1   force =    -0.05390630   -0.07620672    0.00415277
     atom   43 type  1   force =    -0.04612177   -0.00430806    0.01204453
     atom   44 type  1   force =     0.12555174   -0.01315285   -0.03395739
     atom   45 type  1   force =    -0.00168865   -0.07869113   -0.03393530
     atom   46 type  1   force =     0.01334270    0.02478121   -0.02666114
     atom   47 type  1   force =     0.02225515    0.00675483   -0.00157204
     atom   48 type  1   force =     0.01984099   -0.00993159   -0.02230434
     atom   49 type  1   force =     0.03212999   -0.05260049    0.02536294
     atom   50 type  1   force =    -0.02773282    0.01980820   -0.02977483
     atom   51 type  1   force =    -0.01427276    0.01467395   -0.01739458
     atom   52 type  1   force =     0.00144706    0.00378857   -0.00701681
     atom   53 type  1   force =     0.01526078    0.06779357   -0.02172138
     atom   54 type  1   force =    -0.01131058    0.00202174   -0.00892512
     atom   55 type  1   force =    -0.00349070    0.01526734   -0.00087523
     atom   56 type  1   force =    -0.00204888   -0.00705619    0.01128542
     atom   57 type  1   force =     0.00850649   -0.03310180    0.01575923
     atom   58 type  1   force =    -0.03190191    0.09360918   -0.00811613
     atom   59 type  1   force =    -0.00238763    0.08376348    0.02847022
     atom   60 type  1   force =    -0.12455162    0.01665529    0.02998486
     atom   61 type  1   force =    -0.00992861   -0.00305155    0.02512462
     atom   62 type  1   force =     0.00886284    0.02510155   -0.01693983
     atom   63 type  1   force =     0.00343387   -0.02857927    0.02008284
     atom   64 type  1   force =    -0.04003777    0.01471182    0.00060873

     Total force =     0.455126     Total SCF correction =     0.001155


     Computing stress (Cartesian axis) and pressure

          total   stress  (Ry/bohr**3)                   (kbar)     P=      -24.51
  -0.00007046   0.00002290   0.00007396          -10.36        3.37       10.88
   0.00002290  -0.00021327   0.00002349            3.37      -31.37        3.46
   0.00007396   0.00002349  -0.00021621           10.88        3.46      -31.81

 
     init_run     :      0.62s CPU      4.11s WALL (       1 calls)
     electrons    :      2.26s CPU      2.40s WALL (       1 calls)
     forces       :      0.03s CPU      0.04s WALL (       1 calls)
     stress       :      0.17s CPU      0.17s WALL (       1 calls)

     Called by init_run:
     wfcinit      :      0.43s CPU      3.76s WALL (       1 calls)
                                        3.76s GPU  (       1 calls)
     potinit      :      0.03s CPU      0.12s WALL (       1 calls)
     hinit0       :      0.14s CPU      0.17s WALL (       1 calls)

     Called by electrons:
     c_bands      :      1.49s CPU      1.56s WALL (      21 calls)
     sum_band     :      0.40s CPU      0.44s WALL (      21 calls)
     v_of_rho     :      0.15s CPU      0.24s WALL (      21 calls)
     mix_rho      :      0.18s CPU      0.19s WALL (      21 calls)

     Called by c_bands:
     init_us_2    :      0.05s CPU      0.06s WALL (      43 calls)
     init_us_2:gp :      0.05s CPU      0.06s WALL (      43 calls)
     regterg      :      1.34s CPU      1.39s WALL (      21 calls)

     Called by *egterg:
     rdiaghg      :      0.46s CPU      1.13s WALL (     103 calls)
                                        1.11s GPU  (     103 calls)
     h_psi        :      1.11s CPU      3.80s WALL (     105 calls)
                                        3.80s GPU  (     105 calls)
     g_psi        :      0.00s CPU      0.00s WALL (      83 calls)
                                        0.00s GPU  (      83 calls)

     Called by h_psi:
     h_psi:calbec :      0.41s CPU      3.02s WALL (     105 calls)
                                        3.02s GPU  (     105 calls)
     vloc_psi     :      0.64s CPU      0.72s WALL (     105 calls)
                                        0.72s GPU  (     105 calls)
     add_vuspsi   :      0.03s CPU      0.06s WALL (     105 calls)
                                        0.05s GPU  (     105 calls)

     General routines
     calbec       :      0.41s CPU      3.02s WALL (     110 calls)
     fft          :      0.26s CPU      0.38s WALL (     175 calls)
                                        0.11s GPU  (     111 calls)
     ffts         :      0.04s CPU      0.05s WALL (      21 calls)
     fftw         :      0.72s CPU      0.91s WALL (    2227 calls)
                                        0.83s GPU  (    2227 calls)
 
     Parallel routines
 
     PWSCF        :      3.12s CPU      6.80s WALL

 
   This run was terminated on:  15: 2:59  11May2023            

=------------------------------------------------------------------------------=
   JOB DONE.
=------------------------------------------------------------------------------=
