An instance of this daemon is already running
An instance of this daemon is already running

     Program PWSCF v.7.1 starts on 11May2023 at 15: 9:54 

     This program is part of the open-source Quantum ESPRESSO suite
     for quantum simulation of materials; please cite
         "P. Giannozzi et al., J. Phys.:Condens. Matter 21 395502 (2009);
         "P. Giannozzi et al., J. Phys.:Condens. Matter 29 465901 (2017);
         "P. Giannozzi et al., J. Chem. Phys. 152 154105 (2020);
          URL http://www.quantum-espresso.org", 
     in publications or presentations arising from this work. More details at
     http://www.quantum-espresso.org/quote

     Parallel version (MPI & OpenMP), running on       4 processor cores
     Number of MPI processes:                 4
     Threads/MPI process:                     1

     MPI processes distributed on     1 nodes
     634560 MiB available memory on the printing compute node when the environment starts
 
     Reading input from pw-si-47.in
Warning: card &CELL ignored
Warning: card / ignored

     Current dimensions of program PWSCF are:
     Max number of different atomic species (ntypx) = 10
     Max number of k-points (npk) =  40000
     Max angular momentum in pseudopotentials (lmaxx) =  4

     IMPORTANT: XC functional enforced from input :
     Exchange-correlation= PBE
                           (   1   4   3   4   0   0   0)
     Any further DFT definition will be discarded
     Please, verify this is what you really want


     gamma-point specific algorithms are used
 
     K-points division:     npool     =       2
     R & G space division:  proc/nbgrp/npool/nimage =       2
     Subspace diagonalization in iterative solution of the eigenvalue problem:
     a serial algorithm will be used

     Message from routine divide_et_impera:
     suboptimal parallelization: some nodes have no k-points
 
     Parallelization info
     --------------------
     sticks:   dense  smooth     PW     G-vecs:    dense   smooth      PW
     Min        3954    3954   1030               264339   264339   35158
     Max        3955    3955   1031               264342   264342   35161
     Sum        7909    7909   2061               528681   528681   70319
 
     Using Slab Decomposition
 


     bravais-lattice index     =            0
     lattice parameter (alat)  =      28.7713  a.u.
     unit-cell volume          =   23816.5734 (a.u.)^3
     number of atoms/cell      =           64
     number of atomic types    =            1
     number of electrons       =       256.00
     number of Kohn-Sham states=          154
     kinetic-energy cutoff     =      30.0000  Ry
     charge density cutoff     =     120.0000  Ry
     scf convergence threshold =      1.0E-06
     mixing beta               =       0.5000
     number of iterations used =            8  plain     mixing
     Exchange-correlation= PBE
                           (   1   4   3   4   0   0   0)

     GPU acceleration is ACTIVE.
     GPU-aware MPI enabled

     Message from routine print_cuda_info:
     High GPU oversubscription detected. Are you sure this is what you want?

     celldm(1)=  28.771318  celldm(2)=   0.000000  celldm(3)=   0.000000
     celldm(4)=   0.000000  celldm(5)=   0.000000  celldm(6)=   0.000000

     crystal axes: (cart. coord. in units of alat)
               a(1) = (   1.000000   0.000000   0.000000 )  
               a(2) = (   0.000000   1.000000   0.000000 )  
               a(3) = (   0.000000   0.000000   1.000000 )  

     reciprocal axes: (cart. coord. in units 2 pi/alat)
               b(1) = (  1.000000  0.000000  0.000000 )  
               b(2) = (  0.000000  1.000000  0.000000 )  
               b(3) = (  0.000000  0.000000  1.000000 )  


     PseudoPot. # 1 for Si read from file:
     /home/ppiaggi/pseudos/Si_ONCV_PBE_sr.upf
     MD5 check sum: 8553c464762ac42b85b1eed164b4d029
     Pseudo is Norm-conserving, Zval =  4.0
     Generated using ONCVPSP code by D. R. Hamann
     Using radial grid of 1510 points,  4 beta functions with: 
                l(1) =   0
                l(2) =   0
                l(3) =   1
                l(4) =   1

     atomic species   valence    mass     pseudopotential
        Si             4.00    28.08500     Si( 1.00)

     No symmetry found



   Cartesian axes

     site n.     atom                  positions (alat units)
         1           Si  tau(   1) = (   0.1094780   0.1001060   0.8930570  )
         2           Si  tau(   2) = (   0.5372480   0.4249930   0.2506510  )
         3           Si  tau(   3) = (   0.6262770   0.5400370   0.2883620  )
         4           Si  tau(   4) = (   0.7553010   0.5345760   0.1329670  )
         5           Si  tau(   5) = (   0.3774970   0.0715396   0.7631060  )
         6           Si  tau(   6) = (   0.3201310   0.4209480   0.8455120  )
         7           Si  tau(   7) = (   0.6386500   0.5837160   0.5318690  )
         8           Si  tau(   8) = (   0.4042330   0.5640910   0.7858970  )
         9           Si  tau(   9) = (   0.3385900   0.5433980   0.9500500  )
        10           Si  tau(  10) = (   0.6064970   0.3973790   0.6865490  )
        11           Si  tau(  11) = (   0.9096440   0.4410740   0.0029287  )
        12           Si  tau(  12) = (   0.2233210   0.9211020   0.6386950  )
        13           Si  tau(  13) = (   0.7939340   0.4851080   0.2832840  )
        14           Si  tau(  14) = (   0.9670700   0.6211650   0.0398190  )
        15           Si  tau(  15) = (   0.1940380   0.9697980   0.7991390  )
        16           Si  tau(  16) = (   0.0171301   0.3704510   0.9052440  )
        17           Si  tau(  17) = (   0.9474100   0.4296470   0.2804250  )
        18           Si  tau(  18) = (   0.4578170   0.4108430   0.7382750  )
        19           Si  tau(  19) = (   0.0695055   0.5349590   0.9526380  )
        20           Si  tau(  20) = (   0.4886230   0.0666512   0.6185170  )
        21           Si  tau(  21) = (   0.3881850   0.2381290   0.7751290  )
        22           Si  tau(  22) = (   0.2338780   0.0523952   0.5517340  )
        23           Si  tau(  23) = (   0.2609830   0.4990890   0.2463610  )
        24           Si  tau(  24) = (   0.3265540   0.1506650   0.6412470  )
        25           Si  tau(  25) = (   0.2482150   0.8137380   0.9170040  )
        26           Si  tau(  26) = (   0.5678550   0.5003540   0.4387570  )
        27           Si  tau(  27) = (   0.8198450   0.2860900   0.5100710  )
        28           Si  tau(  28) = (   0.8327760   0.3505490   0.1864950  )
        29           Si  tau(  29) = (   0.2010000   0.5149170   0.6729980  )
        30           Si  tau(  30) = (   0.7601440   0.4065510   0.0398495  )
        31           Si  tau(  31) = (   0.1281340   0.4696580   0.5402710  )
        32           Si  tau(  32) = (   0.6296450   0.5668580   0.6882160  )
        33           Si  tau(  33) = (   0.1759480   0.6706670   0.9287070  )
        34           Si  tau(  34) = (   0.5311270   0.2299720   0.6627180  )
        35           Si  tau(  35) = (   0.5432630   0.5509520   0.1562770  )
        36           Si  tau(  36) = (   0.3288360   0.9449160   0.5237430  )
        37           Si  tau(  37) = (   0.5133220   0.3947690   0.0747786  )
        38           Si  tau(  38) = (   0.9827040   0.4893840   0.1236750  )
        39           Si  tau(  39) = (   0.4356980   0.9206800   0.6272080  )
        40           Si  tau(  40) = (   0.1247320   0.2437800   0.9541500  )
        41           Si  tau(  41) = (   0.2629460   0.2826430   0.8720180  )
        42           Si  tau(  42) = (   0.6203210   0.4697090   0.8128780  )
        43           Si  tau(  43) = (   0.2720400   0.5064140   0.5467010  )
        44           Si  tau(  44) = (   0.3234390   0.6836290   0.8683050  )
        45           Si  tau(  45) = (   0.0070110   0.1929220   0.8698680  )
        46           Si  tau(  46) = (   0.4957040   0.4664410   0.9229300  )
        47           Si  tau(  47) = (   0.5059780   0.3408130   0.5442240  )
        48           Si  tau(  48) = (   0.3382520   0.9268400   0.7473740  )
        49           Si  tau(  49) = (   0.7596230   0.3726300   0.7701150  )
        50           Si  tau(  50) = (   0.1590800   0.4076480   0.9331510  )
        51           Si  tau(  51) = (   0.8374130   0.3378790   0.3585150  )
        52           Si  tau(  52) = (   0.3720930   0.4003400   0.5774620  )
        53           Si  tau(  53) = (   0.3955630   0.4362670   0.1789870  )
        54           Si  tau(  54) = (   0.8908970   0.2982090   0.6720320  )
        55           Si  tau(  55) = (   0.1962210   0.5707530   0.0607719  )
        56           Si  tau(  56) = (   0.8947760   0.5871160   0.1680420  )
        57           Si  tau(  57) = (   0.1164470   0.4544220   0.2415370  )
        58           Si  tau(  58) = (   0.3568170   0.6781700   0.6574750  )
        59           Si  tau(  59) = (   0.3800040   0.0931533   0.5121100  )
        60           Si  tau(  60) = (   0.1740420   0.4982260   0.3801710  )
        61           Si  tau(  61) = (   0.7022050   0.2249870   0.6996960  )
        62           Si  tau(  62) = (   0.2252420   0.7916110   0.7713920  )
        63           Si  tau(  63) = (   0.8365720   0.1627330   0.6143360  )
        64           Si  tau(  64) = (   0.4943040   0.5496670   0.5914360  )

     number of k points=     1  Fermi-Dirac smearing, width (Ry)=  0.0100
                       cart. coord. in units 2pi/alat
        k(    1) = (   0.0000000   0.0000000   0.0000000), wk =   2.0000000

     Dense  grid:   264341 G-vectors     FFT dimensions: ( 108, 108, 108)

     Estimated max dynamical RAM per process >     424.41 MB

     Estimated total dynamical RAM >       1.59 GB

     Initial potential from superposition of free atoms

     starting charge     255.9608, renormalised to     256.0000

     negative rho (up, down):  9.214E-06 0.000E+00
     Starting wfcs are  256 randomized atomic wfcs

     total cpu time spent up to now is        4.7 secs

     Self-consistent Calculation

     iteration #  1     ecut=    30.00 Ry     beta= 0.50
     Davidson diagonalization with overlap
     ethr =  1.00E-02,  avg # of iterations =  2.0

     Threshold (ethr) on eigenvalues was too large:
     Diagonalizing with lowered threshold

     Davidson diagonalization with overlap
     ethr =  9.95E-04,  avg # of iterations =  4.0

     total cpu time spent up to now is        5.1 secs

     total energy              =    -498.30027847 Ry
     estimated scf accuracy    <       3.23013489 Ry

     iteration #  2     ecut=    30.00 Ry     beta= 0.50
     Davidson diagonalization with overlap
     ethr =  1.26E-03,  avg # of iterations =  4.0

     total cpu time spent up to now is        5.3 secs

     total energy              =    -496.75526794 Ry
     estimated scf accuracy    <      20.86059536 Ry

     iteration #  3     ecut=    30.00 Ry     beta= 0.50
     Davidson diagonalization with overlap
     ethr =  1.26E-03,  avg # of iterations =  5.0

     total cpu time spent up to now is        5.5 secs

     total energy              =    -498.49919013 Ry
     estimated scf accuracy    <       8.89668627 Ry

     iteration #  4     ecut=    30.00 Ry     beta= 0.50
     Davidson diagonalization with overlap
     ethr =  1.26E-03,  avg # of iterations =  3.0

     total cpu time spent up to now is        5.7 secs

     total energy              =    -499.00770111 Ry
     estimated scf accuracy    <       4.84203116 Ry

     iteration #  5     ecut=    30.00 Ry     beta= 0.50
     Davidson diagonalization with overlap
     ethr =  1.26E-03,  avg # of iterations =  2.0

     total cpu time spent up to now is        5.9 secs

     total energy              =    -499.26666945 Ry
     estimated scf accuracy    <       1.08254099 Ry

     iteration #  6     ecut=    30.00 Ry     beta= 0.50
     Davidson diagonalization with overlap
     ethr =  4.23E-04,  avg # of iterations =  2.0

     total cpu time spent up to now is        6.1 secs

     total energy              =    -499.34917353 Ry
     estimated scf accuracy    <       0.52513444 Ry

     iteration #  7     ecut=    30.00 Ry     beta= 0.50
     Davidson diagonalization with overlap
     ethr =  2.05E-04,  avg # of iterations =  2.0

     total cpu time spent up to now is        6.3 secs

     total energy              =    -499.37716837 Ry
     estimated scf accuracy    <       0.17660040 Ry

     iteration #  8     ecut=    30.00 Ry     beta= 0.50
     Davidson diagonalization with overlap
     ethr =  6.90E-05,  avg # of iterations =  2.0

     total cpu time spent up to now is        6.5 secs

     total energy              =    -499.38664196 Ry
     estimated scf accuracy    <       0.23224330 Ry

     iteration #  9     ecut=    30.00 Ry     beta= 0.50
     Davidson diagonalization with overlap
     ethr =  6.90E-05,  avg # of iterations =  1.0

     total cpu time spent up to now is        6.7 secs

     total energy              =    -499.39883333 Ry
     estimated scf accuracy    <       0.04941803 Ry

     iteration # 10     ecut=    30.00 Ry     beta= 0.50
     Davidson diagonalization with overlap
     ethr =  1.93E-05,  avg # of iterations =  8.0

     total cpu time spent up to now is        6.9 secs

     total energy              =    -499.40149472 Ry
     estimated scf accuracy    <       0.04899113 Ry

     iteration # 11     ecut=    30.00 Ry     beta= 0.50
     Davidson diagonalization with overlap
     ethr =  1.91E-05,  avg # of iterations =  2.0

     total cpu time spent up to now is        7.1 secs

     total energy              =    -499.40401128 Ry
     estimated scf accuracy    <       0.01577413 Ry

     iteration # 12     ecut=    30.00 Ry     beta= 0.50
     Davidson diagonalization with overlap
     ethr =  6.16E-06,  avg # of iterations =  2.0

     total cpu time spent up to now is        7.3 secs

     total energy              =    -499.40538274 Ry
     estimated scf accuracy    <       0.00484272 Ry

     iteration # 13     ecut=    30.00 Ry     beta= 0.50
     Davidson diagonalization with overlap
     ethr =  1.89E-06,  avg # of iterations = 18.0

     total cpu time spent up to now is        7.6 secs

     total energy              =    -499.40574382 Ry
     estimated scf accuracy    <       0.00336804 Ry

     iteration # 14     ecut=    30.00 Ry     beta= 0.50
     Davidson diagonalization with overlap
     ethr =  1.32E-06,  avg # of iterations =  2.0

     total cpu time spent up to now is        7.7 secs

     total energy              =    -499.40599389 Ry
     estimated scf accuracy    <       0.00160538 Ry

     iteration # 15     ecut=    30.00 Ry     beta= 0.50
     Davidson diagonalization with overlap
     ethr =  6.27E-07,  avg # of iterations =  2.0

     total cpu time spent up to now is        7.9 secs

     total energy              =    -499.40608757 Ry
     estimated scf accuracy    <       0.00037060 Ry

     iteration # 16     ecut=    30.00 Ry     beta= 0.50
     Davidson diagonalization with overlap
     ethr =  1.45E-07,  avg # of iterations =  5.0

     total cpu time spent up to now is        8.2 secs

     total energy              =    -499.40605310 Ry
     estimated scf accuracy    <       0.00179227 Ry

     iteration # 17     ecut=    30.00 Ry     beta= 0.50
     Davidson diagonalization with overlap
     ethr =  1.45E-07,  avg # of iterations =  3.0

     total cpu time spent up to now is        8.4 secs

     total energy              =    -499.40614342 Ry
     estimated scf accuracy    <       0.00026545 Ry

     iteration # 18     ecut=    30.00 Ry     beta= 0.50
     Davidson diagonalization with overlap
     ethr =  1.04E-07,  avg # of iterations =  2.0

     total cpu time spent up to now is        8.6 secs

     total energy              =    -499.40615817 Ry
     estimated scf accuracy    <       0.00021114 Ry

     iteration # 19     ecut=    30.00 Ry     beta= 0.50
     Davidson diagonalization with overlap
     ethr =  8.25E-08,  avg # of iterations =  2.0

     total cpu time spent up to now is        8.7 secs

     total energy              =    -499.40616886 Ry
     estimated scf accuracy    <       0.00010897 Ry

     iteration # 20     ecut=    30.00 Ry     beta= 0.50
     Davidson diagonalization with overlap
     ethr =  4.26E-08,  avg # of iterations =  1.0

     total cpu time spent up to now is        8.9 secs

     total energy              =    -499.40617599 Ry
     estimated scf accuracy    <       0.00001055 Ry

     iteration # 21     ecut=    30.00 Ry     beta= 0.50
     Davidson diagonalization with overlap
     ethr =  4.12E-09,  avg # of iterations =  4.0

     total cpu time spent up to now is        9.1 secs

     total energy              =    -499.40617637 Ry
     estimated scf accuracy    <       0.00001548 Ry

     iteration # 22     ecut=    30.00 Ry     beta= 0.50
     Davidson diagonalization with overlap
     ethr =  4.12E-09,  avg # of iterations =  3.0

     total cpu time spent up to now is        9.4 secs

     total energy              =    -499.40617728 Ry
     estimated scf accuracy    <       0.00001451 Ry

     iteration # 23     ecut=    30.00 Ry     beta= 0.50
     Davidson diagonalization with overlap
     ethr =  4.12E-09,  avg # of iterations =  1.0

     total cpu time spent up to now is        9.5 secs

     total energy              =    -499.40617807 Ry
     estimated scf accuracy    <       0.00000180 Ry

     iteration # 24     ecut=    30.00 Ry     beta= 0.50
     Davidson diagonalization with overlap
     ethr =  7.04E-10,  avg # of iterations =  2.0

     total cpu time spent up to now is        9.7 secs

     total energy              =    -499.40617817 Ry
     estimated scf accuracy    <       0.00000251 Ry

     iteration # 25     ecut=    30.00 Ry     beta= 0.50
     Davidson diagonalization with overlap
     ethr =  7.04E-10,  avg # of iterations =  1.0

     total cpu time spent up to now is        9.9 secs

     End of self-consistent calculation

          k = 0.0000 0.0000 0.0000 ( 33150 PWs)   bands (ev):

   -12.7661 -12.5618 -12.2814 -11.9491 -11.7469 -11.6268 -11.3711 -11.2608
   -11.2306 -10.8827 -10.8202 -10.7731 -10.6681 -10.5478 -10.2642 -10.1885
    -9.9168  -9.7589  -9.6555  -9.5483  -9.3942  -9.0924  -9.0634  -8.9400
    -8.7016  -8.6802  -8.4120  -8.3659  -8.1427  -7.9996  -7.9059  -7.6064
    -7.5595  -7.5201  -7.3575  -7.3518  -7.1968  -7.1377  -7.0065  -6.9642
    -6.8843  -6.7404  -6.6139  -6.5859  -6.4135  -6.3670  -6.3058  -6.2405
    -6.1429  -6.0569  -5.9499  -5.8322  -5.7154  -5.6057  -5.5206  -5.3898
    -5.3322  -5.2331  -5.1018  -4.9558  -4.9131  -4.8104  -4.7397  -4.5428
    -4.3149  -4.2332  -4.1624  -4.0107  -3.9750  -3.8627  -3.8430  -3.7938
    -3.7352  -3.6635  -3.6549  -3.5746  -3.5146  -3.4567  -3.4120  -3.2603
    -3.1927  -3.1513  -3.0918  -3.0651  -2.9980  -2.9318  -2.8531  -2.8289
    -2.7414  -2.7170  -2.6708  -2.5880  -2.5611  -2.5035  -2.4183  -2.3639
    -2.3011  -2.2640  -2.1755  -2.1551  -2.0992  -2.0494  -1.9347  -1.8763
    -1.8554  -1.8466  -1.7917  -1.7446  -1.6436  -1.5903  -1.5358  -1.4925
    -1.4534  -1.4458  -1.3782  -1.3139  -1.2777  -1.2468  -1.1858  -1.1367
    -1.0942  -0.9769  -0.9598  -0.9517  -0.8787  -0.8144  -0.7299  -0.7002
    -0.6113  -0.5579  -0.5055  -0.4557  -0.3735  -0.3630  -0.3075  -0.2467
    -0.1828  -0.1288  -0.0641  -0.0342   0.0015   0.0828   0.0964   0.1577
     0.2295   0.2906   0.3411   0.4028   0.4635   0.5159   0.5699   0.6155
     0.7200   0.7720

     the Fermi energy is    -0.6562 ev

!    total energy              =    -499.40617794 Ry
     estimated scf accuracy    <       0.00000060 Ry
     smearing contrib. (-TS)   =      -0.15909757 Ry
     internal energy E=F+TS    =    -499.24708036 Ry

     The total energy is F=E-TS. E is the sum of the following terms:
     one-electron contribution =   -1160.21214729 Ry
     hartree contribution      =     625.82147791 Ry
     xc contribution           =    -146.25184850 Ry
     ewald contribution        =     181.39543751 Ry

     convergence has been achieved in  25 iterations

     Forces acting on atoms (cartesian axes, Ry/au):

     atom    1 type  1   force =     0.06064983   -0.05629396    0.00624971
     atom    2 type  1   force =    -0.03014647   -0.04890095   -0.00987644
     atom    3 type  1   force =     0.04156013    0.00916008    0.03070777
     atom    4 type  1   force =    -0.02401021   -0.03722255   -0.01452639
     atom    5 type  1   force =     0.02880013    0.01562571   -0.01313121
     atom    6 type  1   force =     0.01173522    0.02227907    0.01047154
     atom    7 type  1   force =     0.04047489    0.02720017    0.03517396
     atom    8 type  1   force =    -0.00828755    0.00579127   -0.01820821
     atom    9 type  1   force =     0.00041054    0.00164858    0.00037670
     atom   10 type  1   force =     0.02404282   -0.04936609   -0.08169695
     atom   11 type  1   force =    -0.00614293   -0.00949408   -0.02177588
     atom   12 type  1   force =    -0.02493469   -0.01323963    0.03124534
     atom   13 type  1   force =    -0.01380271   -0.00114689    0.01655502
     atom   14 type  1   force =     0.00229734    0.00761793   -0.03437204
     atom   15 type  1   force =    -0.00494271   -0.00924867   -0.00899596
     atom   16 type  1   force =    -0.04858247   -0.03065009   -0.01277146
     atom   17 type  1   force =     0.00472787   -0.00197515   -0.01317919
     atom   18 type  1   force =    -0.05592527   -0.01126315    0.00852394
     atom   19 type  1   force =     0.00667333    0.03832468    0.00677974
     atom   20 type  1   force =    -0.00877575    0.04466726    0.04665850
     atom   21 type  1   force =     0.00695903    0.00162950   -0.02471636
     atom   22 type  1   force =    -0.09111761    0.07688695    0.00340029
     atom   23 type  1   force =     0.01142218    0.00053788   -0.00393687
     atom   24 type  1   force =    -0.00318080    0.01750467    0.03061662
     atom   25 type  1   force =    -0.00134825    0.02223672    0.04760500
     atom   26 type  1   force =    -0.03209680   -0.04238037   -0.03005203
     atom   27 type  1   force =     0.01088917   -0.00745332    0.03579020
     atom   28 type  1   force =    -0.00051426    0.01910361   -0.00421538
     atom   29 type  1   force =    -0.01402970    0.01328404    0.04878769
     atom   30 type  1   force =     0.00530781   -0.01314675    0.01177243
     atom   31 type  1   force =    -0.04927235   -0.00056743   -0.03375916
     atom   32 type  1   force =    -0.01770889   -0.00510798   -0.01895368
     atom   33 type  1   force =    -0.00701288   -0.02956279    0.01857395
     atom   34 type  1   force =    -0.00182370   -0.01298617   -0.00387890
     atom   35 type  1   force =    -0.01471922    0.00750664   -0.03404238
     atom   36 type  1   force =     0.02519427   -0.05744460   -0.04253170
     atom   37 type  1   force =    -0.00451313    0.03338773    0.00967598
     atom   38 type  1   force =     0.12234152   -0.10673878    0.00942344
     atom   39 type  1   force =     0.03516209   -0.02113456    0.02610845
     atom   40 type  1   force =     0.03795375    0.01705182    0.00208165
     atom   41 type  1   force =     0.00469616    0.00010266   -0.00533961
     atom   42 type  1   force =     0.01557050    0.01436500    0.07057335
     atom   43 type  1   force =     0.06911474    0.01885567   -0.05489962
     atom   44 type  1   force =     0.01219452   -0.01952278   -0.00738849
     atom   45 type  1   force =    -0.07701715    0.06459982   -0.02985217
     atom   46 type  1   force =    -0.02483716   -0.00246367   -0.00481137
     atom   47 type  1   force =     0.04773428    0.01097182    0.01032376
     atom   48 type  1   force =     0.01123853   -0.03795832    0.02471704
     atom   49 type  1   force =    -0.02503640   -0.02882387   -0.03183020
     atom   50 type  1   force =     0.05964816   -0.00510669    0.00326026
     atom   51 type  1   force =    -0.00451031    0.01002084   -0.01131330
     atom   52 type  1   force =     0.03212736    0.01503250    0.03830106
     atom   53 type  1   force =     0.03192244    0.00235127    0.00018165
     atom   54 type  1   force =    -0.03464879    0.02184617   -0.00819577
     atom   55 type  1   force =     0.01483863   -0.01065924   -0.03102951
     atom   56 type  1   force =    -0.06340160    0.10747310    0.09139188
     atom   57 type  1   force =    -0.06414729    0.01330134   -0.00403128
     atom   58 type  1   force =    -0.00841839   -0.04916946    0.03749895
     atom   59 type  1   force =     0.02877785    0.00057462   -0.05048078
     atom   60 type  1   force =     0.00252296   -0.00701298    0.02753296
     atom   61 type  1   force =     0.01717701    0.03582359   -0.00085925
     atom   62 type  1   force =     0.00920599    0.01191071   -0.08231606
     atom   63 type  1   force =    -0.03382909    0.02345625   -0.00919748
     atom   64 type  1   force =    -0.03463654   -0.00608872    0.01580625

     Total force =     0.460662     Total SCF correction =     0.001022


     Computing stress (Cartesian axis) and pressure

          total   stress  (Ry/bohr**3)                   (kbar)     P=      -10.37
  -0.00005615  -0.00001179   0.00001657           -8.26       -1.73        2.44
  -0.00001179  -0.00005916   0.00002170           -1.73       -8.70        3.19
   0.00001657   0.00002170  -0.00009615            2.44        3.19      -14.14

 
     init_run     :      1.00s CPU      4.64s WALL (       1 calls)
     electrons    :      4.90s CPU      5.20s WALL (       1 calls)
     forces       :      0.06s CPU      0.07s WALL (       1 calls)
     stress       :      0.39s CPU      0.40s WALL (       1 calls)

     Called by init_run:
     wfcinit      :      0.49s CPU      3.90s WALL (       1 calls)
                                        3.90s GPU  (       1 calls)
     potinit      :      0.06s CPU      0.16s WALL (       1 calls)
     hinit0       :      0.39s CPU      0.43s WALL (       1 calls)

     Called by electrons:
     c_bands      :      2.51s CPU      2.62s WALL (      26 calls)
     sum_band     :      1.01s CPU      1.13s WALL (      26 calls)
     v_of_rho     :      0.52s CPU      0.64s WALL (      26 calls)
     mix_rho      :      0.66s CPU      0.70s WALL (      26 calls)

     Called by c_bands:
     init_us_2    :      0.07s CPU      0.07s WALL (      53 calls)
     init_us_2:gp :      0.06s CPU      0.07s WALL (      53 calls)
     regterg      :      2.15s CPU      2.23s WALL (      26 calls)

     Called by *egterg:
     rdiaghg      :      0.46s CPU      1.13s WALL (     110 calls)
                                        1.11s GPU  (     110 calls)
     h_psi        :      1.74s CPU      4.56s WALL (     112 calls)
                                        4.55s GPU  (     112 calls)
     g_psi        :      0.00s CPU      0.01s WALL (      85 calls)
                                        0.01s GPU  (      85 calls)

     Called by h_psi:
     h_psi:calbec :      0.45s CPU      3.06s WALL (     112 calls)
                                        3.06s GPU  (     112 calls)
     vloc_psi     :      1.21s CPU      1.39s WALL (     112 calls)
                                        1.38s GPU  (     112 calls)
     add_vuspsi   :      0.04s CPU      0.08s WALL (     112 calls)
                                        0.08s GPU  (     112 calls)

     General routines
     calbec       :      0.46s CPU      3.07s WALL (     117 calls)
     fft          :      1.01s CPU      1.18s WALL (     215 calls)
                                        0.15s GPU  (     136 calls)
     ffts         :      0.22s CPU      0.24s WALL (      26 calls)
     fftw         :      1.31s CPU      1.68s WALL (    2692 calls)
                                        1.42s GPU  (    2692 calls)
 
     Parallel routines
 
     PWSCF        :      6.39s CPU     10.41s WALL

 
   This run was terminated on:  15:10: 5  11May2023            

=------------------------------------------------------------------------------=
   JOB DONE.
=------------------------------------------------------------------------------=
