0.019621946394427485 -0.010910466941415084 -0.004218016084226281 -0.010910466941415084 0.01101697322477822 0.0015783129405278575 -0.004218016084226281 0.0015783129405278575 0.012217923385459104
0.019171131005364554 0.005259206819862459 -0.00127256645466644 0.005259206819862459 0.028251709819687127 0.003690993613101796 -0.00127256645466644 0.003690993613101796 0.019881784999528928
0.006469338556695336 -0.0021025809388067443 -0.006790693722015145 -0.0021025809388067443 0.019581547459358705 -0.0021567522381035122 -0.006790693722015145 -0.0021567522381035122 0.019851485798227344
0.020172840963547153 -0.003990312995656817 -0.00025249334417984924 -0.003990312995656817 0.021679537610089453 -0.002351401652525796 -0.00025249334417984924 -0.002351401652525796 0.01850454857672975
0.020788006565730786 -0.0009631473383442247 0.0037167020263273805 -0.0009631473383442247 -0.0070927675774157635 -9.181576151994517e-05 0.0037167020263273805 -9.181576151994517e-05 0.01602735933092163
0.012053573172338402 -0.0020318828024363865 0.0006059840260316382 -0.0020318828024363865 0.017023560343413034 0.002774672313132743 0.0006059840260316382 0.002774672313132743 0.015918098574712894
0.014339785634185039 -0.002333956657837006 -0.005342759162845609 -0.002333956657837006 0.017252181589597695 -0.0037488375428593613 -0.005342759162845609 -0.0037488375428593613 0.011026154800930214
0.015133991971332562 -0.003278740843877242 0.0014323258797111446 -0.003278740843877242 0.02015080518078237 0.003244769012114862 0.0014323258797111446 0.003244769012114862 0.02138572717322563
0.0217685988987638 0.007322306981215628 -0.0005178408949724907 0.007322306981215628 0.011662438028263434 0.0056393240725550325 -0.0005178408949724907 0.0056393240725550325 0.015316705336757254
0.016590189949038894 0.0001065062833631364 0.003099700108913349 0.0001065062833631364 0.019229893092737316 0.005042521622675389 0.003099700108913349 0.005042521622675389 0.000530695101585283
0.007928291007247266 -3.672630460797807e-05 -0.006574926682443274 -3.672630460797807e-05 0.009164131157305726 -0.003488080780142717 -0.006574926682443274 -0.003488080780142717 0.013557515346035104
0.020954193094081888 0.0073002711984508405 0.0021916422274810914 0.0073002711984508405 0.008160584883892727 0.009039261721638601 0.0021916422274810914 0.009039261721638601 0.016637934145029266
0.020252720676069508 0.00031492806201341195 0.001999747285904406 0.00031492806201341195 0.023422200763738014 0.002749882057522358 0.001999747285904406 0.002749882057522358 0.026247371745706728
0.008930919123045066 0.0028068078296647238 -0.0004003167202269609 0.0028068078296647238 0.012785344791652364 -0.005745830355918169 -0.0004003167202269609 -0.005745830355918169 0.016785757521076375
0.02229837584273388 0.0040610111320271754 -0.0006142474445684332 0.0040610111320271754 0.01967979032418505 0.001896913633002067 -0.0006142474445684332 0.001896913633002067 0.014596869766440883
0.017269626584286487 0.008575592125962879 -0.00353307050328749 0.008575592125962879 0.0202628204098367 -0.005517209109733506 -0.00353307050328749 -0.005517209109733506 0.018581673816406505
0.03571724938887387 0.003200697446585289 0.004431028650952554 0.003200697446585289 0.023905151669332925 0.0025598234311760715 0.004431028650952554 0.0025598234311760715 0.020675991336676452
0.02291354144491752 0.0005922116618036463 -0.0006215927054900288 0.0005922116618036463 0.026899263652498336 0.004132627426012732 -0.0006215927054900288 0.004132627426012732 0.02418059895389276
0.02833250768982468 -0.00015425047935350788 -0.0018803867959284772 -0.00015425047935350788 0.015091756721033387 0.003061137489074972 -0.0018803867959284772 0.003061137489074972 0.020634674243992478
0.01160367594089067 -0.002408327424668162 -0.0029647309394790294 -0.002408327424668162 0.016289034251253474 -0.0015553590001478712 -0.0029647309394790294 -0.0015553590001478712 0.015292833238762068
0.006316924392572228 -0.0001009973376719397 -0.00022953940379986294 -0.0001009973376719397 0.010620329135012057 -0.0004884598512861083 -0.00022953940379986294 -0.0004884598512861083 0.016702205178093225
0.019263864924499698 0.001110052556776137 -0.004657813581906818 0.001110052556776137 0.019817513966464965 0.001966693611757226 -0.004657813581906818 0.001966693611757226 0.00559433434941026
0.01783245720240375 0.0007620708206155449 0.005758684562530961 0.0007620708206155449 0.025412766473490427 -0.0021613430261795095 0.005758684562530961 -0.0021613430261795095 0.012064591063720796
0.006891691059687084 -0.0013607095857255875 0.011880041383065707 -0.0013607095857255875 0.017027232973873832 0.0009925283820306074 0.011880041383065707 0.0009925283820306074 0.012222514173535102
0.025798392671874195 0.0019611846660660287 0.003109799842680543 0.0019611846660660287 0.02668900555861766 -0.0037350651786313693 0.003109799842680543 -0.0037350651786313693 0.015909835156176097
0.009482731849779937 0.0007850247609955312 -0.010791106451439155 0.0007850247609955312 0.017377051025264822 0.0072745627852252555 -0.010791106451439155 0.0072745627852252555 0.0016866555391213927
0.017057532175175413 -0.004163844784929514 0.002235713793010665 -0.004163844784929514 0.018930573710182298 0.0024422992564305415 0.002235713793010665 0.0024422992564305415 0.01421767067136351
0.009870194363394105 0.00204290069381878 0.003658858096569815 0.00204290069381878 0.025631287985907893 0.005223398672869681 0.003658858096569815 0.005223398672869681 0.012294130467520658
0.016505719448440544 0.006538200377835296 -0.001475479287625519 0.006538200377835296 0.012863388188944317 0.004402565764881371 -0.001475479287625519 0.004402565764881371 0.007215800697852492
0.01026500213792987 -0.00035349068185178893 0.0014699703419343224 -0.00035349068185178893 0.018811213220206367 -0.0038479985653009016 0.0014699703419343224 -0.0038479985653009016 0.011226313161043696
0.020170086490701556 -0.0013726456347231803 0.007454521677804349 -0.0013726456347231803 0.010488114438423336 0.000522431683048488 0.007454521677804349 0.000522431683048488 0.01636065054523903
0.01788479218647012 -0.0005132501068964935 -0.006001078172943616 -0.0005132501068964935 0.018676244050772048 -0.004342885519893406 -0.006001078172943616 -0.004342885519893406 0.022116580634924395
0.013448254589826368 -0.003865443559989692 -0.004361248672197396 -0.003865443559989692 0.014917306774145492 -0.006101157353000357 -0.004361248672197396 -0.006101157353000357 0.01677841226015478
0.016000732760080846 0.0011082162415457382 -0.0014277350916351472 0.0011082162415457382 0.011834133502305732 -0.002550641855024077 -0.0014277350916351472 -0.002550641855024077 0.015442492930039579
0.014528007945300925 -0.002836188873351106 0.0018335607575533052 -0.002836188873351106 0.0063848680560969874 0.0035303160304418916 0.0018335607575533052 0.0035303160304418916 0.007036759962888598
0.01890394713934151 -0.0013157198625808142 0.0012303312043672654 -0.0013157198625808142 0.015565526050476305 0.0009319299794274434 0.0012303312043672654 0.0009319299794274434 0.01870562509445843
0.011479724662838744 0.0026498028774656177 -0.001319392493041612 0.0026498028774656177 0.01361535927579267 -0.002585531844401656 -0.001319392493041612 -0.002585531844401656 0.011779962203008965
0.008379106396310197 -0.0036377404714202275 0.003961850109585634 -0.0036377404714202275 0.014880580469537514 -0.0003544088394669884 0.003961850109585634 -0.0003544088394669884 0.012205987336461511
0.012434608582646174 0.000721671885546769 -0.00383422620107291 0.000721671885546769 0.011915849530058484 -0.00028738333355742836 -0.00383422620107291 -0.00028738333355742836 0.012116007890171965
0.013598832438719078 0.002778344943593541 0.004443882857565346 0.002778344943593541 0.010292546866385853 -0.002603894996705645 0.004443882857565346 -0.002603894996705645 0.0057715387691437536
0.01314434441919535 -0.0015718858372214613 -0.002640621301313623 -0.0015718858372214613 0.015403012152586002 -0.0009135668271234544 -0.002640621301313623 -0.0009135668271234544 0.013271050170092875
0.003949914060588041 -0.0023697648048297847 -0.0019161949429212556 -0.0023697648048297847 0.009876621466700502 -0.00023504834949105964 -0.0019161949429212556 -0.00023504834949105964 0.012417163587957386
0.008077950698524775 -0.0005095774764356957 -2.0199467534387938e-05 -0.0005095774764356957 0.003446763687458742 -0.0007565618749243482 -2.0199467534387938e-05 -0.0007565618749243482 0.005937725297494855
0.007036759962888598 -0.0011330064971561233 5.50894569119671e-05 -0.0011330064971561233 0.0036294770528834328 -0.0013487735367279945 5.50894569119671e-05 -0.0013487735367279945 0.008193638558039907
0.008277190901023057 -0.0018179520780949143 -0.0015360776902286829 -0.0018179520780949143 0.006588699046671266 0.0013441827486519974 -0.0015360776902286829 0.0013441827486519974 0.010635019656855248
0.008787686535073953 -0.002982175934167819 -0.0009824286482634133 -0.002982175934167819 0.003409119225235564 -0.0013919269446423688 -0.0009824286482634133 -0.0013919269446423688 0.0067401950531791755
0.008644453947102837 -0.0020383099057427827 -0.0001918949415766854 -0.0020383099057427827 0.002280703516155438 -0.002039228063357982 -0.0001918949415766854 -0.002039228063357982 0.010144723490338741
0.005155455009344921 0.0010825078283201537 -0.0015213871683854914 0.0010825078283201537 0.005431820451519956 -0.00199240202498281 -0.0015213871683854914 -0.00199240202498281 0.008828085470142728
0.005362040472764798 0.000493968796977305 -0.003042774336770983 0.000493968796977305 0.002928922792486251 -7.620708206155449e-05 -0.003042774336770983 -7.620708206155449e-05 0.0003094191163222152
0.002961976466633431 -0.0007776795000739356 -3.672630460797807e-05 -0.0007776795000739356 0.003963686424816033 0.000959474707883427 -3.672630460797807e-05 0.000959474707883427 0.0054162117720615655
0.005897326362426078 -0.000996201012491405 -0.00025341150179504865 -0.000996201012491405 0.004057338501566378 -0.0005876208737276491 -0.00025341150179504865 -0.0005876208737276491 0.005935888982264455
0.0017757168277957396 0.0007923700219171269 0.0007960426523779246 0.0007923700219171269 0.002097071993115548 -0.0008336871146011021 0.0007960426523779246 -0.0008336871146011021 0.0032585413763428542
4.590788075997259e-06 0.0009117305118930555 0.0008575592125962879 0.0009117305118930555 -0.0020548367428163726 0.0029252501620254533 0.0008575592125962879 0.0029252501620254533 -0.0031419353592125237
0.002841697819042303 -0.0011880959540680905 -0.0017353178927269636 -0.0011880959540680905 0.0012624667208992462 0.0005205953678180891 -0.0017353178927269636 0.0005205953678180891 0.003039101706310185
0.0008814313105914736 0.00038838067122936806 -0.0011963593726048857 0.00038838067122936806 0.0021273711944171294 -0.0013992722055639643 -0.0011963593726048857 -0.0013992722055639643 0.0031896795552028953
0.0009741652297266183 0.0007896155490715285 0.0001579231098143057 0.0007896155490715285 -0.0003544088394669884 -0.00010466996813273751 0.0001579231098143057 -0.00010466996813273751 0.000237802822336658
0.0011743235898400988 -0.0006776003200171954 0.0006454648034852146 -0.0006776003200171954 -0.0018895683720804716 0.00022953940379986294 0.0006454648034852146 0.00022953940379986294 -0.00017169547404229747
0.0019345580952252446 0.0006812729504779932 -0.0008851039410522714 0.0006812729504779932 0.0007464621411571543 0.00033971831762379714 -0.0008851039410522714 0.00033971831762379714 0.003699257031638591
-0.0011917685845288884 -0.0009622291807290254 -0.0006895363690147883 -0.0009622291807290254 -0.0026571481383872134 0.0007510529292331515 -0.0006895363690147883 0.0007510529292331515 -0.0040215303545735985
0.0004012348778421604 -2.3872097995185745e-05 -0.0011715691169945004 -2.3872097995185745e-05 0.000380117252692573 -0.0007262626736227664 -0.0011715691169945004 -0.0007262626736227664 -0.0012385946229040603
-5.7843929757565454e-05 -0.00044897907383253184 0.0017472539417245565 -0.00044897907383253184 -0.0025864500020168556 -0.0009631473383442247 0.0017472539417245565 -0.0009631473383442247 -0.0014203898307135517
-0.004072029023409568 -0.0006904545266299876 0.0015415866359198794 -0.0006904545266299876 -0.002603894996705645 0.00028371070309663056 0.0015415866359198794 0.00028371070309663056 -0.0010017099581826018
-0.0001597594250447046 -0.0003378820023933982 0.0005931298194188458 -0.0003378820023933982 0.0005288587863548842 0.000768497923921941 0.0005931298194188458 0.000768497923921941 -0.000827260011294706
-0.0017711260397197423 -0.0003066646434766169 -0.0006105748141076354 -0.0003066646434766169 -0.0013763182651839781 -0.0004563243347541275 -0.0006105748141076354 -0.0004563243347541275 0.00011476970189993147
0.001254203302362451 0.0004893780089013077 -0.00028646517594222896 0.0004893780089013077 -0.001245939883825656 0.001654520022589412 -0.00028646517594222896 0.001654520022589412 0.0009741652297266183
-0.0007932881795323262 -0.00011660601713033036 0.0003782809374621741 -0.00011660601713033036 -0.0019446578289924387 0.00025341150179504865 0.0003782809374621741 0.00025341150179504865 -0.0026947926006103905
0.0006776003200171954 -0.0010558812574793695 -0.0005756848247300562 -0.0010558812574793695 -0.0007225900431619684 -0.00011660601713033036 -0.0005756848247300562 -0.00011660601713033036 0.00022127598526306785
-0.0011173978176977327 0.0002075036210350761 0.0003424727904693955 0.0002075036210350761 -0.0012220677858304702 0.0006316924392572228 0.0003424727904693955 0.0006316924392572228 -0.0007170810974707717
-0.00120554094875688 -0.0009328481370426429 0.00044163381291093624 -0.0009328481370426429 -0.0013726456347231803 0.00017536810450309527 0.00044163381291093624 0.00017536810450309527 -0.0009062215662018589
-0.0006528100644068102 0.0001652683707359013 -0.00020933993626547502 0.0001652683707359013 -0.0007703342391523399 0.0002607567627166443 -0.00020933993626547502 0.0002607567627166443 -0.0002754472845598355
0.00030758280109181635 0.00011385154428473201 4.4071565529573677e-05 0.00011385154428473201 -0.00149016980946871 0.00013221469658872105 4.4071565529573677e-05 0.00013221469658872105 -0.0003443091056997944
6.886182113995888e-05 -0.00016618652835110077 -0.00015241416412310898 -0.00016618652835110077 -0.0009117305118930555 0.00031860069247420975 -0.00015241416412310898 0.00031860069247420975 -0.0006050658684164386
