10.61711358163715 0.0 0.0 0.0 10.61711358163715 0.0 0.0 0.0 10.61711358163715
10.616356329051996 0.0 0.0 0.0 10.616356329051996 0.0 0.0 0.0 10.616356329051996
10.614486745974883 0.0 0.0 0.0 10.614486745974883 0.0 0.0 0.0 10.614486745974883
10.612394379293052 0.0 0.0 0.0 10.612394379293052 0.0 0.0 0.0 10.612394379293052
10.610879874122745 0.0 0.0 0.0 10.610879874122745 0.0 0.0 0.0 10.610879874122745
10.610525325393148 0.0 0.0 0.0 10.610525325393148 0.0 0.0 0.0 10.610525325393148
10.611679460884567 0.0 0.0 0.0 10.611679460884567 0.0 0.0 0.0 10.611679460884567
10.614642324074138 0.0 0.0 0.0 10.614642324074138 0.0 0.0 0.0 10.614642324074138
10.619717133502249 0.0 0.0 0.0 10.619717133502249 0.0 0.0 0.0 10.619717133502249
10.6271510149252 0.0 0.0 0.0 10.6271510149252 0.0 0.0 0.0 10.6271510149252
10.636736001700108 0.0 0.0 0.0 10.636736001700108 0.0 0.0 0.0 10.636736001700108
10.647856131556448 0.0 0.0 0.0 10.647856131556448 0.0 0.0 0.0 10.647856131556448
10.659923488615743 0.0 0.0 0.0 10.659923488615743 0.0 0.0 0.0 10.659923488615743
10.672550185984267 0.0 0.0 0.0 10.672550185984267 0.0 0.0 0.0 10.672550185984267
10.68555894929722 0.0 0.0 0.0 10.68555894929722 0.0 0.0 0.0 10.68555894929722
10.698864581024063 0.0 0.0 0.0 10.698864581024063 0.0 0.0 0.0 10.698864581024063
10.712506769455418 0.0 0.0 0.0 10.712506769455418 0.0 0.0 0.0 10.712506769455418
10.726568595412996 0.0 0.0 0.0 10.726568595412996 0.0 0.0 0.0 10.726568595412996
10.741122556174343 0.0 0.0 0.0 10.741122556174343 0.0 0.0 0.0 10.741122556174343
10.756189818827796 0.0 0.0 0.0 10.756189818827796 0.0 0.0 0.0 10.756189818827796
10.77184711406856 0.0 0.0 0.0 10.77184711406856 0.0 0.0 0.0 10.77184711406856
10.788034115694886 0.0 0.0 0.0 10.788034115694886 0.0 0.0 0.0 10.788034115694886
10.804510577254181 0.0 0.0 0.0 10.804510577254181 0.0 0.0 0.0 10.804510577254181
10.82052982970546 0.0 0.0 0.0 10.82052982970546 0.0 0.0 0.0 10.82052982970546
10.835427755652237 0.0 0.0 0.0 10.835427755652237 0.0 0.0 0.0 10.835427755652237
10.84927632319485 0.0 0.0 0.0 10.84927632319485 0.0 0.0 0.0 10.84927632319485
10.86216390492709 0.0 0.0 0.0 10.86216390492709 0.0 0.0 0.0 10.86216390492709
10.873814799523412 0.0 0.0 0.0 10.873814799523412 0.0 0.0 0.0 10.873814799523412
10.883848528571002 0.0 0.0 0.0 10.883848528571002 0.0 0.0 0.0 10.883848528571002
10.892181482070946 0.0 0.0 0.0 10.892181482070946 0.0 0.0 0.0 10.892181482070946
10.898948071034162 0.0 0.0 0.0 10.898948071034162 0.0 0.0 0.0 10.898948071034162
10.904134536853235 0.0 0.0 0.0 10.904134536853235 0.0 0.0 0.0 10.904134536853235
10.907783213704832 0.0 0.0 0.0 10.907783213704832 0.0 0.0 0.0 10.907783213704832
10.910168215382882 0.0 0.0 0.0 10.910168215382882 0.0 0.0 0.0 10.910168215382882
10.911439828214556 0.0 0.0 0.0 10.911439828214556 0.0 0.0 0.0 10.911439828214556
10.911672137009024 0.0 0.0 0.0 10.911672137009024 0.0 0.0 0.0 10.911672137009024
10.910844503855158 0.0 0.0 0.0 10.910844503855158 0.0 0.0 0.0 10.910844503855158
10.908878610526125 0.0 0.0 0.0 10.908878610526125 0.0 0.0 0.0 10.908878610526125
10.90558606993575 0.0 0.0 0.0 10.90558606993575 0.0 0.0 0.0 10.90558606993575
10.90092878132503 0.0 0.0 0.0 10.90092878132503 0.0 0.0 0.0 10.90092878132503
10.895203613107853 0.0 0.0 0.0 10.895203613107853 0.0 0.0 0.0 10.895203613107853
10.888729659140855 0.0 0.0 0.0 10.888729659140855 0.0 0.0 0.0 10.888729659140855
10.882005933531516 0.0 0.0 0.0 10.882005933531516 0.0 0.0 0.0 10.882005933531516
10.87562141051273 0.0 0.0 0.0 10.87562141051273 0.0 0.0 0.0 10.87562141051273
10.869889362991845 0.0 0.0 0.0 10.869889362991845 0.0 0.0 0.0 10.869889362991845
10.86526541254525 0.0 0.0 0.0 10.86526541254525 0.0 0.0 0.0 10.86526541254525
10.861812531260744 0.0 0.0 0.0 10.861812531260744 0.0 0.0 0.0 10.861812531260744
10.859264013825314 0.0 0.0 0.0 10.859264013825314 0.0 0.0 0.0 10.859264013825314
10.857320875116239 0.0 0.0 0.0 10.857320875116239 0.0 0.0 0.0 10.857320875116239
10.85572963925072 0.0 0.0 0.0 10.85572963925072 0.0 0.0 0.0 10.85572963925072
10.85433155306625 0.0 0.0 0.0 10.85433155306625 0.0 0.0 0.0 10.85433155306625
10.853137200106998 0.0 0.0 0.0 10.853137200106998 0.0 0.0 0.0 10.853137200106998
10.852038099045247 0.0 0.0 0.0 10.852038099045247 0.0 0.0 0.0 10.852038099045247
10.851109393044585 0.0 0.0 0.0 10.851109393044585 0.0 0.0 0.0 10.851109393044585
10.850829987478575 0.0 0.0 0.0 10.850829987478575 0.0 0.0 0.0 10.850829987478575
10.85135546044647 0.0 0.0 0.0 10.85135546044647 0.0 0.0 0.0 10.85135546044647
10.852800643402484 0.0 0.0 0.0 10.852800643402484 0.0 0.0 0.0 10.852800643402484
10.855712176402845 0.0 0.0 0.0 10.855712176402845 0.0 0.0 0.0 10.855712176402845
10.86020383254735 0.0 0.0 0.0 10.86020383254735 0.0 0.0 0.0 10.86020383254735
10.86611421278745 0.0 0.0 0.0 10.86611421278745 0.0 0.0 0.0 10.86611421278745
10.873122106557675 0.0 0.0 0.0 10.873122106557675 0.0 0.0 0.0 10.873122106557675
10.880591442853586 0.0 0.0 0.0 10.880591442853586 0.0 0.0 0.0 10.880591442853586
10.88827774180492 0.0 0.0 0.0 10.88827774180492 0.0 0.0 0.0 10.88827774180492
10.896157719614514 0.0 0.0 0.0 10.896157719614514 0.0 0.0 0.0 10.896157719614514
10.903951441539144 0.0 0.0 0.0 10.903951441539144 0.0 0.0 0.0 10.903951441539144
10.911227098976799 0.0 0.0 0.0 10.911227098976799 0.0 0.0 0.0 10.911227098976799
10.91766083547596 0.0 0.0 0.0 10.91766083547596 0.0 0.0 0.0 10.91766083547596
10.923321973250927 0.0 0.0 0.0 10.923321973250927 0.0 0.0 0.0 10.923321973250927
10.928578290461502 0.0 0.0 0.0 10.928578290461502 0.0 0.0 0.0 10.928578290461502
10.933273150654015 0.0 0.0 0.0 10.933273150654015 0.0 0.0 0.0 10.933273150654015
10.93658844586435 0.0 0.0 0.0 10.93658844586435 0.0 0.0 0.0 10.93658844586435
10.938122530591366 0.0 0.0 0.0 10.938122530591366 0.0 0.0 0.0 10.938122530591366
10.938270171032498 0.0 0.0 0.0 10.938270171032498 0.0 0.0 0.0 10.938270171032498
10.93720917072975 0.0 0.0 0.0 10.93720917072975 0.0 0.0 0.0 10.93720917072975
10.934593447788858 0.0 0.0 0.0 10.934593447788858 0.0 0.0 0.0 10.934593447788858
10.930368496957362 0.0 0.0 0.0 10.930368496957362 0.0 0.0 0.0 10.930368496957362
10.924961364242407 0.0 0.0 0.0 10.924961364242407 0.0 0.0 0.0 10.924961364242407
10.918813912612963 0.0 0.0 0.0 10.918813912612963 0.0 0.0 0.0 10.918813912612963
10.912299741178131 0.0 0.0 0.0 10.912299741178131 0.0 0.0 0.0 10.912299741178131
10.905739531326173 0.0 0.0 0.0 10.905739531326173 0.0 0.0 0.0 10.905739531326173
10.89929309457401 0.0 0.0 0.0 10.89929309457401 0.0 0.0 0.0 10.89929309457401
10.892973660351851 0.0 0.0 0.0 10.892973660351851 0.0 0.0 0.0 10.892973660351851
10.88685795935491 0.0 0.0 0.0 10.88685795935491 0.0 0.0 0.0 10.88685795935491
10.881062410569022 0.0 0.0 0.0 10.881062410569022 0.0 0.0 0.0 10.881062410569022
10.875826202092364 0.0 0.0 0.0 10.875826202092364 0.0 0.0 0.0 10.875826202092364
10.871148804747726 0.0 0.0 0.0 10.871148804747726 0.0 0.0 0.0 10.871148804747726
10.866678844868764 0.0 0.0 0.0 10.866678844868764 0.0 0.0 0.0 10.866678844868764
10.862289849102678 0.0 0.0 0.0 10.862289849102678 0.0 0.0 0.0 10.862289849102678
10.857745804414549 0.0 0.0 0.0 10.857745804414549 0.0 0.0 0.0 10.857745804414549
10.852696395492439 0.0 0.0 0.0 10.852696395492439 0.0 0.0 0.0 10.852696395492439
10.847168610373977 0.0 0.0 0.0 10.847168610373977 0.0 0.0 0.0 10.847168610373977
10.84139528703084 0.0 0.0 0.0 10.84139528703084 0.0 0.0 0.0 10.84139528703084
10.83549443198049 0.0 0.0 0.0 10.83549443198049 0.0 0.0 0.0 10.83549443198049
10.829353859654756 0.0 0.0 0.0 10.829353859654756 0.0 0.0 0.0 10.829353859654756
10.82272803182896 0.0 0.0 0.0 10.82272803182896 0.0 0.0 0.0 10.82272803182896
10.815642878186315 0.0 0.0 0.0 10.815642878186315 0.0 0.0 0.0 10.815642878186315
10.808484698088916 0.0 0.0 0.0 10.808484698088916 0.0 0.0 0.0 10.808484698088916
10.801784256276743 0.0 0.0 0.0 10.801784256276743 0.0 0.0 0.0 10.801784256276743
10.795850063062266 0.0 0.0 0.0 10.795850063062266 0.0 0.0 0.0 10.795850063062266
10.790560936864773 0.0 0.0 0.0 10.790560936864773 0.0 0.0 0.0 10.790560936864773
10.785787758445425 0.0 0.0 0.0 10.785787758445425 0.0 0.0 0.0 10.785787758445425
