-6823.448827993547
-6822.954003399986
-6821.714631397476
-6820.79250970844
-6820.355243450372
-6819.8164119265375
-6819.096841982899
-6818.161115282214
-6817.232773070826
-6816.972656323145
-6817.320338351706
-6817.789140562821
-6818.2871035813405
-6818.454193723397
-6817.661058891933
-6817.378107031197
-6816.968649310814
-6816.0629228887265
-6815.870514730894
-6815.709953416167
-6815.70424147458
-6815.38530840913
-6816.257008764433
-6817.084472797498
-6815.285789847601
-6814.445838918651
-6815.771378489308
-6816.383809051254
-6815.922263571989
-6814.522672029735
-6813.970547064599
-6813.340146104748
-6813.146349077882
-6813.746175598935
-6814.260731711166
-6814.650214779166
-6815.069202878577
-6815.18475085
-6815.477744255609
-6815.345801153294
-6815.0933214165525
-6814.730857211877
-6813.085879532485
-6812.755613878054
-6811.779457319562
-6812.3152581755185
-6813.548409383562
-6813.712692399259
-6813.205674928815
-6811.857439431331
-6810.6000473701415
-6810.420207334174
-6811.532257679747
-6811.277673550634
-6811.923714933646
-6812.889554432001
-6812.0715369669015
-6813.157538262871
-6813.027969898026
-6812.7058850740395
-6813.5731292931205
-6813.067031975621
-6812.861971476688
-6813.5681422627995
-6814.270512298868
-6814.486058024289
-6813.799481611472
-6811.96224802194
-6812.470777084758
-6814.955940119172
-6816.033416632803
-6815.420634907949
-6815.166442894878
-6816.125848125461
-6816.240613769597
-6815.767914752256
-6815.110780104384
-6814.3918199678565
-6812.811579667306
-6812.257790045762
-6812.887932633523
-6813.152007821213
-6813.556823143453
-6813.457972485341
-6813.680237245666
-6814.806845001322
-6814.001887503852
-6813.326452247931
-6813.141599058715
-6812.700691237201
-6811.717942993082
-6811.413779450453
-6812.6836510604535
-6813.474727078615
-6813.690888325539
-6813.838053475988
-6814.056259930523
-6813.84127652835
-6814.213866361075
-6815.405698715402
-6813.907108621165
