0.11752975348806856 0.11479204284193134 0.270145809156309 -0.25385272842324025 -0.011279943789193475 -0.19318009313353182 0.1493119309956719 -0.26483879512109876 -0.3924683560473305 0.1510484540708044 0.6259075538112253 0.40433476846761335 -0.22914442704328278 -0.07480110427129052 0.3810038070511568 0.3800959505249067 -0.35181921506740055 -0.8657331147174381 0.2019814934752457 0.02441725250209988 -0.23947923331038756 -0.08061411140864182 -0.8321064278019282 0.08630062027045782 0.13507624701226414 -0.4993516855651465 0.05515530501590501 0.3252090686790399 -1.1651535044681482 0.3175659503114853 -0.14979684105189042 0.28479698341058046 0.015988919229088593 0.05055945811510647 0.3737795213885756 -0.20744174525886855 0.2434245911113808 0.506928726581456 1.0304133006390641 0.8785873449722867 -0.9691863355077825 0.34149289344072803 0.13509141652091575 -0.8743820486416877 -1.3006174738371343 0.7224355082366462 0.7428107294588885 -0.2551807032060444 0.7433167225610294 -0.9954686662430792 0.6914105206100415 -0.22819157621171024 -0.8916572907823676 -0.7200207281475663 0.12802293970990855 0.19857401045559347 0.2810244037420257 -0.1828789683178399 -0.010481873367930335 -0.0689767842800296 0.02904575241304675 -0.0814512625979565 -0.5220519553761396 -0.09659248911476913 -0.07967103076908215 -0.9616524890245824 -0.06398318772018012 1.2439974113502448 -0.5285144231720318 -0.1932752239504994 -0.40454482759589044 -0.1619761567269017 -0.7995737452815455 0.026486219215986647 -0.9879795569548857 1.0016269725349911 0.13852589612376143 -0.4426161805463151 -0.5315562953221491 0.4646549055139095 -0.6241579181099702 0.3202897770005516 -0.30320582493507137 -0.33787972216817297 -0.2512546286787608 -0.9713172658078564 -0.29543569407134923 -0.8714309364331637 0.31092170552209036 -0.043634448860499046 0.42086104825741066 0.1221492545379509 0.5101081527507021 0.40985209874141676 0.9053494435574795 0.18944993666713822 0.7288259851440222 0.6307211731497847 0.14018014389773278 0.11477121690632491 -0.59783264995188 -0.03976956658845409 0.11737702996028816 0.2811087359257159 0.03741752141650975 -0.0007193946645277933 0.4848249527038811 -0.8923008379036376 -0.8467172357365675 1.108046475042511 0.4517225137229575 0.5502487295253298 -0.37191084361095306 -0.29597279752174194 0.42040904832165665 -0.6161689863672226 -0.09089569584030797 0.1062454388235009 0.11982086351509041 -0.561080272923195 0.5782146186106365 0.4966661683131833 0.5927246393013533 -0.2938084428805714 -0.20301739093892776 0.4580582261329982 -0.21177148298247397 0.09733965169343882 0.4190144819669751 -1.4418196312414782 -0.9179385930763997 0.20265769360666386 0.49786790193076835 0.8204233350370452 0.17017180516381664 -0.07844307189925201 0.008848194419249278 -0.3034986735851418 -0.5642962087573313 0.5371900965691587 1.3795187163197273 0.28267916573662927 0.2619676442208908 0.11301412500590213 0.9818199651113929 0.5445573355675073 1.1808578025772825 -0.11377491443132665 0.34632733871489385 0.5615613263246716 -0.9897574747909147 0.44236652642935426 0.3080988913613146 -0.0620772289467189 0.24430519394412117 -0.19546863205739237 0.5878284875513167 0.6752699062944371 -0.2412100999585652 -0.4665927459665706 -0.6407325346391998 -0.09869925104512679 -0.5794104386909504 -0.7714764728246971 -0.8371349913647711 0.049696853004495056 0.4676744090665236 -0.11779689110652615 0.18503612387015875 -0.22855692997092894 0.21497713440396526 0.333679053823264 0.010318094096556422 -0.11257780879943191 -0.8205261791634965 0.6103845184749617 0.26640588249790254 0.7042655221958387 -0.18327286132214887 -0.457563802995083 -1.0077721662007804 0.2209644623356517 0.9372072114980247 -0.35490119642683393 0.002757508140479122 0.1744416361837641 0.14183387745107184 -0.14195960439565875 -0.12285219414224648 -1.159632574649919 -1.042390013384966 1.333393896937207
0.4142360867417253 0.39590977762871166 0.7527339021098715 -0.3899355623231478 0.14442580654796416 0.03375781317673541 -0.23311806697905013 -0.11805862940834508 -0.11364841615579135 -0.1477924090273519 0.7233801315381025 0.3561852053455801 -0.07182350970020535 0.472660035206573 0.19959936639631431 0.2260922704805203 -0.4455698638580004 -0.7296058007328402 0.23245729346659966 0.04196554579850838 -0.19144357005839932 0.22387340845233056 -0.7429151162472367 -0.03831072265474047 0.5430195587667422 -1.0424902864082564 0.6335519577303605 0.19429646612616214 -1.2652270101529823 0.5165446524046652 -0.2776511163944186 0.15907492391970668 -0.14195214819649102 -0.11953649950545218 0.021182804725202228 -0.38060425761989286 -0.3082256467471659 0.4530564020430326 0.06627095531309232 1.0348453682684888 -1.1317309631436445 0.41874245925251113 -0.20173466757176223 0.3736764201518081 -1.3874703670666364 0.9107366760113218 0.43098708094781907 -0.16706231300055746 1.8559603300559198 -1.4432843887124627 1.2634154108655402 0.9336853143876952 -0.0075377031379418565 -0.684441545491376 0.053142902571566536 0.26521674728580774 -0.07164481803049597 0.38609690530334795 -0.17993428386721913 -0.6988911452578028 -0.017007847411906193 0.236734837796031 -0.5342184155353444 -0.10487092707347746 -0.2337950384414167 -0.6148613232993927 -1.3446543003423745 1.1453369839628533 -1.5430768728217683 -0.15776366130745087 -0.4278068834476245 -0.17266628945089618 -0.4053454691203148 1.020177738953985 0.02569046278756866 1.7075894228172785 -0.021564613544653184 -0.7644866717704253 -0.563161838042572 0.5094751471523935 -0.053202037944276116 0.2937937875925521 -0.4714151070558785 -0.339863328257105 -0.44586862604534183 0.5986744291268851 -0.0756534249692568 -0.6997414090732401 0.4879994937771209 -0.02856624167346693 0.9903460003045332 -0.10935853053118587 0.6434147094570531 0.4640267850116073 1.007952657642703 0.4315599227321535 0.5888186193787278 0.7671390217916078 -0.11939508883158148 0.34983663741973303 0.2580235719714782 0.1981675190457942 0.19163023214790867 0.3143939803414069 -0.09802562201686989 0.47980615933305104 -0.13190144882870833 -0.8390023835908131 -1.0375529970076387 0.3891791437730975 -0.6550875178092912 0.3211441545810469 0.591965906758458 -0.12939076659171264 0.8550203562856242 -0.8431413454598511 0.2471678602038969 -0.0004162616018121863 0.3942956390640564 -0.7643799709892319 0.39193870879610565 -0.15344857887186475 0.18859324509379777 -0.29199710070344553 -0.32808150513082857 0.5422258592208533 -0.18886655335984245 0.03326441848008464 0.5936021568103003 -2.394802617516521 -1.1641865125691886 0.7202775813533788 0.3980751607111467 0.22536516250650865 0.06763081177509643 0.4990619222388696 0.2388292584312145 -0.33265935430949806 -0.6754113169683077 0.25354085360977624 1.2181665663300698 0.19890388299118647 0.2989673613736915 -0.05309996514877307 0.20940658229472323 -0.17637844819516074 1.1270687817812848 -0.15188097727442876 0.40287258209979004 0.42109964663077804 -0.9497279696728547 0.37196766499081746 0.08133761983822765 -0.7092832871254042 -0.1334777921768927 0.06801467747707642 0.800900434512769 0.09964207457437033 -0.5374392364654874 -0.9207513799348466 -0.37751353450971115 -0.34108563069998027 -0.8270632089510659 0.014305360879078589 -0.4415926243778073 0.2158165995861251 0.3214786551023302 -0.041926722140772955 -0.0020316857180481137 -0.03203003185235129 0.07325715682293835 0.20354446708699137 -0.2042108970263967 -0.2114372395715068 -0.1907023210170006 0.40516549189902484 0.2397785097183612 0.36677455082565225 -0.9061847949745813 -0.16264978575515857 -0.41455516064404085 0.036780144942826984 0.7304750907116709 -0.5687005084726141 -1.504628853258215 0.5233668175328212 0.16700317762784786 0.14430522180969987 -0.37371704358175634 -1.8899060908737453 -0.45349657490424483 1.4508622010597205
0.47453565496273115 0.8043469983004728 0.962525121437523 -0.5751817453215836 -0.11205998862274894 0.4466720957832437 -0.5935373650106358 0.16538235419497324 0.16507870691162538 -0.5127162797975104 0.766963415445692 0.22920407663662462 0.22476892368340645 0.7468751293362491 -0.03823950309717285 -0.1469010075613341 -0.628928085805104 -0.2938053575567779 -0.042984216871009846 -0.08065447772827398 -0.24679505024551043 0.4112538641849498 -0.5241152656630716 -0.18485666086950098 0.9241987150534987 -1.5371288827684495 1.3346984746812434 -0.5294276790149205 -0.3245390391952088 0.594353433154028 -0.2643286882538996 -0.13652506364364872 -0.19779393775645937 -0.06464318990168222 -0.4277019824386441 -0.5976321039052997 -0.4870361014225871 0.2831738459848607 -0.38837027471855695 0.8603093725987054 -0.8270418687948272 0.31672185714363515 -0.36787549719931484 1.5443634528436756 -1.067320972298691 0.9488136853887016 -0.021916083346800966 -0.13466435628582615 1.5980992518042347 -1.3713588062167545 0.926774960421107 1.4090061842558832 0.6394259000126342 -0.6223997977682829 -0.28875211140358653 0.16506122341012863 -0.5093746170187873 1.6827011442160311 -0.5077018573020546 -1.0972319009255103 -0.15052009237116012 0.45193745794724105 -0.4367373531680349 -0.22760022248461448 -0.46771837493058155 -0.16659025846014536 -1.3589948853347626 0.7782330748222404 -1.5575820084164786 -0.1571172859727036 -0.454378720398882 -0.17194458079352323 -0.507514680991913 1.734871398461683 0.5538238484710979 0.9638456400211594 -0.1749658841183503 -0.45202101879998285 -0.6427714194460995 0.7001072770530911 0.2545968056781164 0.30563371765027364 -0.558004976431981 -0.22913131441716023 -0.003300782238458831 2.0171466438916745 -0.28131519550956713 -0.266228990600406 0.47285106817145667 0.11593978329312936 1.4449887729980793 -0.3474221144409694 0.6972708360455605 0.4920443532704558 0.8802883868237936 0.43664530767486087 0.3890976398028847 0.7054633991586818 -0.3515569625449494 0.14875374449935674 1.4611728389571093 0.48209469825691165 0.11721299357859812 0.37554329815721776 -0.22342809338479586 0.813032956110245 -0.8969329373590103 -0.15449990295451457 -1.2592743921139733 0.37951205299697865 -1.4894716859018025 -0.6301866408025534 1.7644007753793678 0.053889550929603965 1.129198683640094 -0.785042641544906 0.3653470743505063 -0.04385556373236963 0.534247469001067 -0.7813682780171124 0.37718443330506657 -0.4569585653109163 0.08424990838901619 -0.17781620908295181 -0.24895272001846158 0.5535212296290145 -0.15787653273623134 -0.024872594871963617 0.701022846888825 -2.638538312110417 -1.198530023046065 1.0554255064126854 0.6642352457468301 -0.6665939757869939 -0.12504457380787498 0.7123043333399153 0.19703083433818971 -0.5248667991171153 0.18665051954513018 -0.7616224628487528 0.5485510301079327 0.21396797641316054 0.30006882196798645 -0.13379300942446634 -0.4963843754067064 -1.2392701810779043 0.7180018979453247 -0.10097082068812288 0.5013283496755431 0.37778735699638805 -0.6351936070988417 -0.045928129990682194 0.0234101513938242 -1.406560550928868 -1.0564734880612257 0.3988740024633582 0.9532231273103068 -0.7092321221724947 -0.3847123662509955 -1.031956476756468 0.02268612874360609 -0.6119716604564235 -0.7040451786549166 0.3395231713088669 -0.15793669655020542 0.36148707717446776 0.17271462619032835 0.09729414316748405 -0.12317229648582656 0.15099343246315286 -0.2849283667821222 -0.0993692805289579 -0.2757155899346026 -0.21745876317523838 -0.07726370687917015 0.21908267193190653 0.18931701063369974 -0.1328409299238422 -1.3274885871963653 0.23468386880427325 0.2914360859936529 -0.13243443851404288 0.6374417797030698 -0.47912661676752316 -2.386581258047993 0.7377487415549489 0.4486261341858209 0.8265556731870282 -0.6297328410945865 -1.1647467559480327 0.6134397603615177 0.4516116991767061
0.16861885885439992 0.7040418362208068 0.6486823856138957 -0.6381606601469654 -0.7835999955611086 0.9366443970160191 -0.7097193462215583 0.40824875881003886 0.34530198277417307 -0.8543683245239221 0.7849883912682029 0.13195724176730825 0.4879444721694694 0.9922766416683428 -0.1486717263085117 -0.6209005875149372 -1.042587731218069 0.7644226513017093 -1.3004382679467925 -0.4628816156635705 -0.22592463455440442 0.523090166832667 -0.2666755912195214 -0.33553976118108664 0.6419000725847397 -1.2306752403200418 1.0418454537354058 -1.9953547448275637 1.5610655960897049 0.9828152391451268 -0.2689330197951304 -0.4864059240377558 -0.1388791656981221 0.1430806053739794 -1.0666185469150276 -0.9689078850354153 -0.4074882264949305 0.20340048530995936 -0.5138768757645149 0.4572874094052447 -0.40097510796676106 0.1336441425514279 -0.1547449290857851 0.8406825995067135 -0.3075149938333865 0.7579653257121397 -0.2579842340931105 -0.22325840057615096 0.5357798464851934 -0.5120783891031955 -0.06543946055073246 0.7513082254069383 1.0776809753767762 0.16898704082709604 -0.7228941930406195 -0.15081911166881767 -0.7292666722258666 2.1547078621093214 -0.496027763398236 -0.9804631939731823 -0.46372879415521423 0.5665554371051533 -0.054833145789795895 -0.5066024535902889 -0.5459938109037178 0.3436204813066921 -0.543479014901664 -0.06480748339368839 -0.7420975054419477 -0.2063554541732253 -0.47537589147583936 -0.2597737218933655 -0.25694782240879616 1.504598771351228 0.6206966990342472 -0.045134944665425496 -0.46442556311192273 -0.25995935554161037 -0.6239625142697125 0.6344199621576107 0.19133121285025112 0.2219581937074887 -0.46861029061723164 -0.02732928394257229 0.29852950250532456 2.4409181809276608 -0.3752028840986635 0.19878998312114152 0.2687566421182662 0.4564006359249172 1.4779184338465645 -0.4486320477230919 0.641648875805882 0.4620334087306623 0.6080872378003527 0.37258627241142284 0.17401071929393258 0.4768162234667917 -0.3614657370182291 0.11420737398305493 2.129440345791784 0.5353558715738973 -0.2896432557592883 0.5210253138838382 -0.4030918971994477 1.14580209652473 -1.554089678992504 0.71011838143219 -0.7086191711788441 0.36175421479292535 -0.9856161989290316 -1.432346144533404 1.7246106399656234 0.08446176728950615 0.8633232197243648 -0.14347912636397872 -0.11601460239512278 0.03067737447919878 0.41605334245612213 -0.6355805581246151 0.5021750139465545 -0.5098836954447218 0.36157937977795795 0.22633061174357147 -0.05552245854733664 0.38155736556178155 -0.1067858847080032 -0.05900527488961451 0.6837267788125386 -1.9204469397750794 -0.8530892007011823 0.4012499588947025 0.9688564629721893 -1.1616413775498315 -0.24330529192469713 0.5563648697253966 -0.25421679663087837 -0.7488219686499749 1.859269854045127 -2.4177476563484683 -0.3178276886133043 0.2192297390327321 0.3028309580941559 -0.2572455561548731 -0.7014540208889726 -1.1289983947038298 0.4328763275507319 -0.140824462349951 0.5916316633474907 0.5789910917653449 -0.33559709678158334 -0.543904789585173 -0.26095385824439576 -1.4494776620073684 -1.4198212725935162 0.5581474155471161 0.711872130898503 -0.7436681923631773 0.17180651255376217 -0.2567909851159577 0.25161843977608284 -1.0561510717248004 -0.4305659342500004 0.31211829693335275 -0.026156089570077534 0.39662994362418785 -0.0954275222723905 0.49107530448896713 -0.11893074760065324 0.2991599370004719 -0.7227988051133357 -0.4173062410266168 -0.19125048021098676 -0.13388248381447912 0.06707931014700061 -0.14116744751166657 0.12554259649021604 -0.2681516615444156 -1.0736996221315251 0.5010054191184856 0.6313780900074933 -0.23883671463038222 0.6112108710309989 -0.3976529855720635 -1.2377326613874553 -0.024685418561822003 0.9284796018170397 1.598171499803067 -0.9167108913168857 0.6172077120443822 1.8674048244474357 -0.8420427130790338
-0.44154043098363316 0.06822679348788249 -0.09347271253886483 -0.19741649981238257 -1.1767147269431864 1.207937432402894 -0.5732027672183418 0.43794320055067804 0.30941915283463484 -0.9969236535220509 0.4585202533710814 0.05605930488741313 0.501022131289034 1.0312589364688112 -0.13606663594999147 -0.592599683687715 -1.8897816494807391 1.9867379496928297 -3.0529201804013875 -0.8627596339114109 -0.033553924696045435 0.6948002630178808 -0.012709734257184562 -0.3760161240285782 0.1653090777548766 0.19173539026720526 0.3256304724871747 -1.5636241008455007 1.3922191946055316 0.8133995954210442 -0.22903618360019265 -0.5974130459159582 0.001282466256849404 0.3014677591980421 -1.5772242081274386 -1.3203046678534165 -0.2154512458269064 0.247917850996044 -0.5137902295879796 -0.019362463687011815 -0.15478015319909472 0.02674075842895395 0.21000564933130286 0.06789100741501855 0.13604041069774636 0.357624508895268 -0.18723210308021304 -0.5552073590821858 0.13367551000999559 0.34383851085476913 -0.6592030826395615 0.14887227235509198 1.6423705629177845 0.7511786418076095 -0.9546007243841236 -0.5664191686376051 -0.4532538627658193 0.24517911190864228 0.5166410687732134 -0.924239595593763 -0.9015159287440022 0.6923150347021819 0.4354546298008694 -0.6185243739732768 -0.4813801886883903 0.4924097070296745 -0.2431865069586457 -0.7301945833567747 -0.05413586261245515 -0.24835596697472712 -0.3400440768093434 -0.355441128090704 0.4567119965177489 0.6987157960222031 0.4241777713354695 -0.5326065909635344 -0.6899727597222504 -0.39604141811056953 -0.4374865726292336 0.137823213629782 -0.17203559784543274 -0.005417057250513251 -0.15846608669111417 0.2444244931308049 0.10905411191688962 1.351899669050878 0.007016540527149207 0.4718935893541938 0.05257160344912881 0.7918357532073395 1.0951310525324236 -0.39859246666719744 0.47741323362084226 0.3891724589048781 0.41140607349209785 0.35736868413072004 -0.015322489289683291 0.07318362327252556 -0.07338648331195102 0.6762785500646096 1.6452928787709018 0.28132496570158 -0.9491522996750427 0.6587580246823429 -0.7893466682368986 1.018542517343407 -1.0345507198462054 0.45753834907378627 0.021106700071628168 0.023877063727913716 -0.051319990430214846 -0.5605333992807895 0.19894759174492835 0.40726145519610507 0.49633783843948714 0.7722431757873925 -0.9505059854894599 0.13258690493150715 0.1612279657069675 -0.25874605195979955 0.8019553581398446 -0.5837355484288657 0.8237022628986331 0.8348616219495621 0.16917396002692156 0.025379873525685322 -0.20673623455141169 -0.11413898263896471 0.5562131746388809 -1.1261940924858151 -0.4899792432113109 -0.5231241053943959 0.4937819047868528 -0.6486785289591538 -0.057331486731617386 0.22100251466243875 -0.837166615933655 -0.7659131198043068 1.5243903521558584 -1.9836657385254093 -0.22858366944380631 0.029912214178400093 0.4222018785560213 -0.48850368710704895 -0.2868196702675641 -0.17759509421108122 0.14252833241493518 -0.23200580775147783 0.55361250379124 0.8392283835586902 -0.23971911723533554 -0.8807768964244379 -0.682475680014257 -0.2869266281590736 -0.560136678063003 0.6131417695051248 0.07609925425742378 -0.016578730294287577 0.7271750798041606 0.6064952107228845 0.46884271834301194 -1.3473953534226215 -0.12720995689030995 0.2728500954613495 -0.08630010604982556 0.2387330991729824 -0.656552789500908 1.0420004912560312 -0.075989725262753 0.38362453250345546 -0.7898056101511882 -0.5516857190821725 -0.05369543264092688 -0.0598748219787614 0.31963980212137855 -0.7141704400143765 0.18470522289330127 -0.10267674763563606 -0.45307234288263254 0.5689432206110395 0.36090292253622364 -0.3168748377817317 0.2837831974340855 -0.563495567232907 0.0136219616588088 -0.9150664137349273 1.1667612152749003 1.895192021863033 -0.902577280128981 2.84893116957781 1.8891085346731142 -0.7844343185369458
-1.2276508516714213 -0.48388212917463763 -0.8766996410312708 0.2832358095710477 -0.7864899155143938 0.9124413174072543 -0.2944332209487639 0.34692512019989286 0.018862898342773965 -0.803037792570746 -0.41917440458360716 0.013773142524692408 0.22691450927149953 0.6861700981467086 -0.05857435799978299 -0.049293704028805424 -2.4108576140968543 2.1402163533613656 -2.1672242494087772 -0.7240113373641983 -0.05982674234964535 0.8554731275523267 0.21814113395424367 -0.25543652797059235 0.005672367794428941 2.0421642489819343 -0.05003649573210092 0.24527629960813885 0.174139531562313 0.24291911222987198 -0.10145444519276076 -0.3839626325691646 0.263937623463068 0.1838801558888446 -1.3883550836644347 -1.295578882971962 -0.02661117482962514 0.26375867468304254 -0.44315662643081744 -0.47477322489483403 -0.05138143979576957 0.004633127896637182 0.37777398725994943 -0.055596506318381665 0.01584390901079207 -0.10003879579215674 0.03323022280803954 -1.1046240796245232 0.13851535460080014 0.7185708830749173 -0.8056448911762898 0.05356919147570774 2.01962081646378 0.2568827734988157 -1.0199273135060758 -0.7539086391442629 0.05483006046600234 -1.3289723708307435 1.1429602562005605 -1.293718946945088 -1.2901595117286038 0.799068780620669 0.424206824801192 -0.3708620906314645 -0.40630243371694547 0.016090734914275512 -0.1900117227078792 -1.1185106077986284 0.44679396607308863 -0.21968868094702165 0.0005229623830055509 -0.36515964093004855 0.9084545648453644 0.015984034133082147 0.2708189239639336 -0.5685120466108918 -0.7602001285799295 -0.6604516103346819 -0.04166344117705728 -0.5721388447302018 -0.44115553684038855 -0.2676024739091649 0.25719002032658933 0.47087157584758255 0.06850601529119814 0.27411199289290855 0.418034377441893 0.4844752826739463 -0.028755474866137574 0.7895484998350596 0.5107565849679785 -0.4009334560955482 0.2809704105756387 0.30533444124229997 0.4225968000015948 0.5173182973458962 -0.19020301278307888 -0.5012267911006723 0.3071290712488775 1.1269633665516718 0.7687356768547664 0.08495259088299563 -1.2711459467405786 0.35288930820312775 -1.2572015687453446 0.7570993781674188 0.0989141952694103 -0.22425058928609123 0.33091074704950757 -0.3736049434839243 0.3592273346060136 0.5017847204866713 -1.187005310235917 1.0937372575086906 0.31112070890677385 1.3222592204766261 -1.4407317974939382 0.09219975936371218 0.02199861575827824 0.5286038975620444 1.0863376226105097 -0.6689866443888866 1.133871406525415 1.0970172138115428 0.13165822246965067 -0.46512696005432147 -0.5371363605130879 -0.11826637454377698 -0.05820900424056427 -0.5194312299238409 -0.08203875967031032 -0.8484265051181905 -0.5111286235954164 0.1203386836917734 0.08272113044931559 -0.14139319036922746 -1.0854629333150403 -0.5337409616782937 -0.28058088844670387 -0.5440122616973148 0.4884244971296814 -0.2777380196812701 0.6106251737308581 -0.6756478584591461 0.18568481319775118 0.3894984747857292 -0.07192403983381161 0.029122114176936942 0.38567832970869065 0.8795525370990337 -0.15695479225291034 -0.9428425554069311 -0.7126984834545403 1.2164860933038533 0.18907481271590665 1.004487839022554 -0.47561166163572927 0.5505220377913745 0.7761607656742439 0.7135124947154035 0.7708311259312144 -0.27081481019887554 0.13864108154538704 0.3315409244343387 -0.21168020882024835 0.0028796355406402016 -1.1712117948470862 1.270875466688011 0.033093697230175266 0.4905495138924842 -0.21343910049288403 -0.46551596796262407 0.020168761638391073 -0.06891996290016518 0.5259806010065845 -1.2392732664016979 0.43359675065652425 0.0642796359146764 0.02353587833841108 0.4000405119676336 -0.18926790256331918 -0.38306300357303064 -0.4735583786511264 -0.754210743765714 0.591618293611052 -1.070652607775085 1.0100234241288024 1.6066365998512846 -0.36196735924499596 2.4412609089790602 0.8492263753116664 0.26667790521236656
-1.2615953269376659 -0.7658352153785198 -0.9435958886331879 0.06484219328636574 -0.12933883030785467 0.32185069372976827 0.021083560143176593 0.27163910587238377 -0.4043237127240198 -0.34519168244855386 -0.819193319284686 -0.1642328139715623 -0.2172813570571097 0.2984202306209699 -0.013762086781098878 -0.11226130600027763 -1.4702909992082935 1.2346560793446608 -0.10839153863222623 -0.2781619945925661 -0.4011841386537736 0.6328773002608391 0.6006683196284622 0.09192645109766749 0.0116183009652187 2.618050990790343 -0.12518289915795214 1.1335890993983058 -0.02626767544727734 -0.086410920596077 0.0489373491306512 -0.13389302533744035 0.4806178566010691 0.09852955823648192 -0.8198070416092847 -0.9703975822070643 0.16964421479512073 0.13178034986981177 -0.33944192444897026 -0.7605179169306643 0.0031148914798978613 -0.03940035617449343 0.5018253439166196 -0.10763794829565335 -0.2753862316196419 -0.37390010612683994 0.18009060693942533 -1.4070585736112091 0.0714599557131995 0.45570309563726036 -0.6504474479341185 0.10195015388225667 1.96632339059222 -0.42536844920946093 -0.8263502420444413 -0.4386556532366704 0.3265283017110957 -1.3575892632364879 0.08121703509996335 -1.2820026869494243 -1.15419597701538 0.5945501225458665 -0.19602501878149467 -0.15637937936541457 -0.31361390764227276 -0.6107701839491545 -0.009418465100422489 -1.1813663667825849 0.6273936514384485 -0.12470184575647558 0.3172548468289697 -0.2007262809119059 0.9135466346562913 -0.6155151548333077 0.357038811595127 -0.054718731699118665 -0.7006191836925031 -0.8392679785473739 0.2531968400067962 -0.9239104943891184 -0.3494710265501981 -0.3588889774299884 0.4573264901732963 0.6022876003994402 0.2504177345997623 -0.11295036164750225 0.6042043578061788 0.33900200869807423 0.02781702221226822 0.5765917382952328 -0.17243206195290306 -0.47657633954184375 0.14110162727073763 0.2765064612670141 0.5898475748638745 0.7928477394116216 -0.2937901880481263 -0.9383708927888226 0.4285959550078232 1.0204731587072167 0.09774074378659942 0.11954704102841346 -0.8522381655547968 -0.22365177935982775 -1.2051770960489374 0.8242604493949481 0.8986360360930459 -0.5205604584322777 0.34484252663925125 -0.6357829039434082 0.39009317094693463 0.97751131043371 -1.7007556877248966 1.4136053735907914 0.036357712693427705 1.039516805602229 -0.9988434962525831 -0.06614548547882157 0.1264864484607241 1.5673162049851073 0.9566833179447655 -0.4371327888342407 0.9065226379299742 0.41247436685561223 -0.5189931139451579 -1.0978589929865479 -0.9680545358961843 -0.2413067734374296 -1.9785764969279604 -0.010403454721511116 0.3433592572255054 -0.5923186621121864 -1.04932787815538 0.5495509321273567 -0.009120217133713325 -0.45052849341485635 -0.6016607654487186 -0.28224362086110744 -1.0888848145123955 -0.14393369740289405 0.874616533249997 -0.34116610622892857 0.7327448605824541 -0.6639172002857793 0.49196876283751395 0.46664391091948015 -0.25574480323963056 0.5024976873932959 0.08843257901179609 0.672798304825493 -0.01401508333216941 -0.779895807236644 -0.3946121418632107 1.4742936926097834 0.46868356705732833 1.113536808733121 -0.7306023603181546 0.610555239724871 0.3912087726086166 0.6493056210201914 1.1036473175335508 2.286373797888456 0.031095178742907736 0.0898104331959292 0.01964271393159198 -0.13719149358305405 -0.7584695190420679 0.6994488175334858 0.4313735177529603 0.8082206223232662 0.7007893907217801 -0.34752958655311117 0.023037084325121613 -0.15029666350644438 0.5196986246526147 -1.4462295873837159 0.706233701665803 0.15971050062117656 0.2915445865470592 0.0651278428475846 -0.7509410718755067 -0.4815704503223255 -1.3600498089618385 -0.643332177045576 0.7975127489874588 -0.7191085007459421 0.8626444484897854 1.0607219789249345 0.26515041282424656 0.5537474867072076 0.03073753829317287 1.1752314575294407