An instance of this daemon is already running

     Program PWSCF v.7.1 starts on 11May2023 at  9:52:40 

     This program is part of the open-source Quantum ESPRESSO suite
     for quantum simulation of materials; please cite
         "P. Giannozzi et al., J. Phys.:Condens. Matter 21 395502 (2009);
         "P. Giannozzi et al., J. Phys.:Condens. Matter 29 465901 (2017);
         "P. Giannozzi et al., J. Chem. Phys. 152 154105 (2020);
          URL http://www.quantum-espresso.org", 
     in publications or presentations arising from this work. More details at
     http://www.quantum-espresso.org/quote

     Parallel version (MPI & OpenMP), running on       4 processor cores
     Number of MPI processes:                 4
     Threads/MPI process:                     1

     MPI processes distributed on     1 nodes
     917744 MiB available memory on the printing compute node when the environment starts
 
     Reading input from pw-si-56.in
Warning: card &CELL ignored
Warning: card / ignored

     Current dimensions of program PWSCF are:
     Max number of different atomic species (ntypx) = 10
     Max number of k-points (npk) =  40000
     Max angular momentum in pseudopotentials (lmaxx) =  4

     IMPORTANT: XC functional enforced from input :
     Exchange-correlation= PBE
                           (   1   4   3   4   0   0   0)
     Any further DFT definition will be discarded
     Please, verify this is what you really want


     gamma-point specific algorithms are used
 
     K-points division:     npool     =       2
     R & G space division:  proc/nbgrp/npool/nimage =       2
     Subspace diagonalization in iterative solution of the eigenvalue problem:
     a serial algorithm will be used

     Message from routine divide_et_impera:
     suboptimal parallelization: some nodes have no k-points
 
     Parallelization info
     --------------------
     sticks:   dense  smooth     PW     G-vecs:    dense   smooth      PW
     Min        2003    2003    528                95853    95853   12909
     Max        2006    2006    529                95858    95858   12912
     Sum        4009    4009   1057               191711   191711   25821
 
     Using Slab Decomposition
 


     bravais-lattice index     =            0
     lattice parameter (alat)  =      20.5088  a.u.
     unit-cell volume          =    8626.2511 (a.u.)^3
     number of atoms/cell      =           64
     number of atomic types    =            1
     number of electrons       =       256.00
     number of Kohn-Sham states=          154
     kinetic-energy cutoff     =      30.0000  Ry
     charge density cutoff     =     120.0000  Ry
     scf convergence threshold =      1.0E-06
     mixing beta               =       0.5000
     number of iterations used =            8  plain     mixing
     Exchange-correlation= PBE
                           (   1   4   3   4   0   0   0)

     GPU acceleration is ACTIVE.
     GPU-aware MPI enabled

     Message from routine print_cuda_info:
     High GPU oversubscription detected. Are you sure this is what you want?

     celldm(1)=  20.508821  celldm(2)=   0.000000  celldm(3)=   0.000000
     celldm(4)=   0.000000  celldm(5)=   0.000000  celldm(6)=   0.000000

     crystal axes: (cart. coord. in units of alat)
               a(1) = (   1.000000   0.000000   0.000000 )  
               a(2) = (   0.000000   1.000000   0.000000 )  
               a(3) = (   0.000000   0.000000   1.000000 )  

     reciprocal axes: (cart. coord. in units 2 pi/alat)
               b(1) = (  1.000000  0.000000  0.000000 )  
               b(2) = (  0.000000  1.000000  0.000000 )  
               b(3) = (  0.000000  0.000000  1.000000 )  


     PseudoPot. # 1 for Si read from file:
     /home/ppiaggi/pseudos/Si_ONCV_PBE_sr.upf
     MD5 check sum: 8553c464762ac42b85b1eed164b4d029
     Pseudo is Norm-conserving, Zval =  4.0
     Generated using ONCVPSP code by D. R. Hamann
     Using radial grid of 1510 points,  4 beta functions with: 
                l(1) =   0
                l(2) =   0
                l(3) =   1
                l(4) =   1

     atomic species   valence    mass     pseudopotential
        Si             4.00    28.08500     Si( 1.00)

     No symmetry found



   Cartesian axes

     site n.     atom                  positions (alat units)
         1           Si  tau(   1) = (   0.4041690   0.2776020   0.3431420  )
         2           Si  tau(   2) = (   0.4670610   0.7165630   0.7369480  )
         3           Si  tau(   3) = (   0.1432770   0.2444860   0.9611050  )
         4           Si  tau(   4) = (   0.4316170   0.1268920   0.8889450  )
         5           Si  tau(   5) = (   0.1509180   0.9839980   0.1249780  )
         6           Si  tau(   6) = (   0.7491990   0.7183980   0.5945810  )
         7           Si  tau(   7) = (   0.2708760   0.4136370   0.2224410  )
         8           Si  tau(   8) = (   0.1895190   0.8479210   0.3563760  )
         9           Si  tau(   9) = (   0.5721980   0.4858740   0.0682685  )
        10           Si  tau(  10) = (   0.9519480   0.9825790   0.5153160  )
        11           Si  tau(  11) = (   0.9644150   0.1218590   0.0179094  )
        12           Si  tau(  12) = (   0.2382250   0.7783470   0.7379320  )
        13           Si  tau(  13) = (   0.1014820   0.3913790   0.6255510  )
        14           Si  tau(  14) = (   0.4287140   0.7114630   0.9468640  )
        15           Si  tau(  15) = (   0.9691190   0.8939180   0.0058843  )
        16           Si  tau(  16) = (   0.7479880   0.1234420   0.0527718  )
        17           Si  tau(  17) = (   0.3630460   0.2314730   0.6688210  )
        18           Si  tau(  18) = (   0.3154730   0.0478010   0.2627420  )
        19           Si  tau(  19) = (   0.2588610   0.9902150   0.7335310  )
        20           Si  tau(  20) = (   0.5218450   0.0104322   0.0521455  )
        21           Si  tau(  21) = (   0.0578477   0.5957020   0.0564445  )
        22           Si  tau(  22) = (   0.2601650   0.6335430   0.5722200  )
        23           Si  tau(  23) = (   0.2974330   0.3739990   0.5354910  )
        24           Si  tau(  24) = (   0.7180620   0.6419770   0.0023132  )
        25           Si  tau(  25) = (   0.9173190   0.5533180   0.6138800  )
        26           Si  tau(  26) = (   0.8642580   0.2611640   0.1857640  )
        27           Si  tau(  27) = (   0.3856280   0.4980480   0.9596120  )
        28           Si  tau(  28) = (   0.6294040   0.0906921   0.4025370  )
        29           Si  tau(  29) = (   0.7610030   0.3827390   0.6362570  )
        30           Si  tau(  30) = (   0.2282900   0.6528590   0.2200820  )
        31           Si  tau(  31) = (   0.9258540   0.2887050   0.8137070  )
        32           Si  tau(  32) = (   0.4322880   0.7486620   0.5043260  )
        33           Si  tau(  33) = (   0.6895480   0.0842819   0.8067860  )
        34           Si  tau(  34) = (   0.9123990   0.8610730   0.6752280  )
        35           Si  tau(  35) = (   0.3513380   0.2091540   0.0878724  )
        36           Si  tau(  36) = (   0.6129440   0.2859270   0.4338220  )
        37           Si  tau(  37) = (   0.7327060   0.3493520   0.0091786  )
        38           Si  tau(  38) = (   0.3036570   0.8958930   0.9432320  )
        39           Si  tau(  39) = (   0.8057620   0.7865820   0.3622940  )
        40           Si  tau(  40) = (   0.5577670   0.2747920   0.1474620  )
        41           Si  tau(  41) = (   0.8196350   0.5298490   0.1237480  )
        42           Si  tau(  42) = (   0.4607490   0.4737820   0.2557170  )
        43           Si  tau(  43) = (   0.5621110   0.8173900   0.0569862  )
        44           Si  tau(  44) = (   0.1013080   0.1194330   0.3019900  )
        45           Si  tau(  45) = (   0.0705212   0.5989200   0.7295270  )
        46           Si  tau(  46) = (   0.7562070   0.5799210   0.7786450  )
        47           Si  tau(  47) = (   0.3790880   0.8147460   0.2549100  )
        48           Si  tau(  48) = (   0.4762960   0.4588390   0.4873200  )
        49           Si  tau(  49) = (   0.9179250   0.8045030   0.1949900  )
        50           Si  tau(  50) = (   0.9626460   0.0224322   0.8099860  )
        51           Si  tau(  51) = (   0.1561380   0.4547870   0.9013730  )
        52           Si  tau(  52) = (   0.7266570   0.8943820   0.9217360  )
        53           Si  tau(  53) = (   0.0564384   0.2097030   0.4857390  )
        54           Si  tau(  54) = (   0.5796610   0.9129040   0.2873080  )
        55           Si  tau(  55) = (   0.2537000   0.0402404   0.4828050  )
        56           Si  tau(  56) = (   0.9327060   0.5898520   0.3425840  )
        57           Si  tau(  57) = (   0.6663240   0.9126420   0.6732220  )
        58           Si  tau(  58) = (   0.6592600   0.6293750   0.4253240  )
        59           Si  tau(  59) = (   0.8326520   0.1200860   0.3734110  )
        60           Si  tau(  60) = (   0.5122480   0.9275290   0.5234250  )
        61           Si  tau(  61) = (   0.4425860   0.3453390   0.8526600  )
        62           Si  tau(  62) = (   0.0485780   0.7853630   0.8338810  )
        63           Si  tau(  63) = (   0.5627270   0.4580410   0.6700620  )
        64           Si  tau(  64) = (   0.8124440   0.3921160   0.3657840  )

     number of k points=     1  Fermi-Dirac smearing, width (Ry)=  0.0100
                       cart. coord. in units 2pi/alat
        k(    1) = (   0.0000000   0.0000000   0.0000000), wk =   2.0000000

     Dense  grid:    95856 G-vectors     FFT dimensions: (  72,  72,  72)

     Estimated max dynamical RAM per process >     152.82 MB

     Estimated total dynamical RAM >     587.90 MB

     Initial potential from superposition of free atoms

     starting charge     255.9608, renormalised to     256.0000
     Starting wfcs are  256 randomized atomic wfcs

     total cpu time spent up to now is        4.3 secs

     Self-consistent Calculation

     iteration #  1     ecut=    30.00 Ry     beta= 0.50
     Davidson diagonalization with overlap
     ethr =  1.00E-02,  avg # of iterations =  3.0

     Threshold (ethr) on eigenvalues was too large:
     Diagonalizing with lowered threshold

     Davidson diagonalization with overlap
     ethr =  6.05E-04,  avg # of iterations =  4.0

     total cpu time spent up to now is        4.5 secs

     total energy              =    -500.04423954 Ry
     estimated scf accuracy    <       2.04653702 Ry

     iteration #  2     ecut=    30.00 Ry     beta= 0.50
     Davidson diagonalization with overlap
     ethr =  7.99E-04,  avg # of iterations =  5.0

     total cpu time spent up to now is        4.6 secs

     total energy              =    -499.01392079 Ry
     estimated scf accuracy    <      14.84776363 Ry

     iteration #  3     ecut=    30.00 Ry     beta= 0.50
     Davidson diagonalization with overlap
     ethr =  7.99E-04,  avg # of iterations =  4.0

     total cpu time spent up to now is        4.7 secs

     total energy              =    -500.36409935 Ry
     estimated scf accuracy    <       2.82143987 Ry

     iteration #  4     ecut=    30.00 Ry     beta= 0.50
     Davidson diagonalization with overlap
     ethr =  7.99E-04,  avg # of iterations =  2.0

     total cpu time spent up to now is        4.8 secs

     total energy              =    -500.56810227 Ry
     estimated scf accuracy    <       0.75837621 Ry

     iteration #  5     ecut=    30.00 Ry     beta= 0.50
     Davidson diagonalization with overlap
     ethr =  2.96E-04,  avg # of iterations =  2.0

     total cpu time spent up to now is        4.9 secs

     total energy              =    -500.60525032 Ry
     estimated scf accuracy    <       0.61910195 Ry

     iteration #  6     ecut=    30.00 Ry     beta= 0.50
     Davidson diagonalization with overlap
     ethr =  2.42E-04,  avg # of iterations =  2.0

     total cpu time spent up to now is        5.0 secs

     total energy              =    -500.66131066 Ry
     estimated scf accuracy    <       0.10356233 Ry

     iteration #  7     ecut=    30.00 Ry     beta= 0.50
     Davidson diagonalization with overlap
     ethr =  4.05E-05,  avg # of iterations =  2.0

     total cpu time spent up to now is        5.1 secs

     total energy              =    -500.67130674 Ry
     estimated scf accuracy    <       0.03966783 Ry

     iteration #  8     ecut=    30.00 Ry     beta= 0.50
     Davidson diagonalization with overlap
     ethr =  1.55E-05,  avg # of iterations =  2.0

     total cpu time spent up to now is        5.2 secs

     total energy              =    -500.67464947 Ry
     estimated scf accuracy    <       0.03295828 Ry

     iteration #  9     ecut=    30.00 Ry     beta= 0.50
     Davidson diagonalization with overlap
     ethr =  1.29E-05,  avg # of iterations =  2.0

     total cpu time spent up to now is        5.2 secs

     total energy              =    -500.67727861 Ry
     estimated scf accuracy    <       0.00384006 Ry

     iteration # 10     ecut=    30.00 Ry     beta= 0.50
     Davidson diagonalization with overlap
     ethr =  1.50E-06,  avg # of iterations = 19.0

     total cpu time spent up to now is        5.4 secs

     total energy              =    -500.67752832 Ry
     estimated scf accuracy    <       0.00499081 Ry

     iteration # 11     ecut=    30.00 Ry     beta= 0.50
     Davidson diagonalization with overlap
     ethr =  1.50E-06,  avg # of iterations =  2.0

     total cpu time spent up to now is        5.5 secs

     total energy              =    -500.67790056 Ry
     estimated scf accuracy    <       0.00088403 Ry

     iteration # 12     ecut=    30.00 Ry     beta= 0.50
     Davidson diagonalization with overlap
     ethr =  3.45E-07,  avg # of iterations =  2.0

     total cpu time spent up to now is        5.6 secs

     total energy              =    -500.67801084 Ry
     estimated scf accuracy    <       0.00040242 Ry

     iteration # 13     ecut=    30.00 Ry     beta= 0.50
     Davidson diagonalization with overlap
     ethr =  1.57E-07,  avg # of iterations =  2.0

     total cpu time spent up to now is        5.7 secs

     total energy              =    -500.67804178 Ry
     estimated scf accuracy    <       0.00021230 Ry

     iteration # 14     ecut=    30.00 Ry     beta= 0.50
     Davidson diagonalization with overlap
     ethr =  8.29E-08,  avg # of iterations =  2.0

     total cpu time spent up to now is        5.8 secs

     total energy              =    -500.67805487 Ry
     estimated scf accuracy    <       0.00006236 Ry

     iteration # 15     ecut=    30.00 Ry     beta= 0.50
     Davidson diagonalization with overlap
     ethr =  2.44E-08,  avg # of iterations =  3.0

     total cpu time spent up to now is        5.9 secs

     total energy              =    -500.67806020 Ry
     estimated scf accuracy    <       0.00007690 Ry

     iteration # 16     ecut=    30.00 Ry     beta= 0.50
     Davidson diagonalization with overlap
     ethr =  2.44E-08,  avg # of iterations =  2.0

     total cpu time spent up to now is        6.0 secs

     total energy              =    -500.67806568 Ry
     estimated scf accuracy    <       0.00001052 Ry

     iteration # 17     ecut=    30.00 Ry     beta= 0.50
     Davidson diagonalization with overlap
     ethr =  4.11E-09,  avg # of iterations =  2.0

     total cpu time spent up to now is        6.0 secs

     total energy              =    -500.67806679 Ry
     estimated scf accuracy    <       0.00000196 Ry

     iteration # 18     ecut=    30.00 Ry     beta= 0.50
     Davidson diagonalization with overlap
     ethr =  7.66E-10,  avg # of iterations =  5.0

     total cpu time spent up to now is        6.2 secs

     total energy              =    -500.67806667 Ry
     estimated scf accuracy    <       0.00001134 Ry

     iteration # 19     ecut=    30.00 Ry     beta= 0.50
     Davidson diagonalization with overlap
     ethr =  7.66E-10,  avg # of iterations =  3.0

     total cpu time spent up to now is        6.2 secs

     End of self-consistent calculation

          k = 0.0000 0.0000 0.0000 ( 11924 PWs)   bands (ev):

    -6.3053  -5.7294  -5.4575  -5.2964  -5.1245  -4.9923  -4.7478  -4.5087
    -4.4849  -4.3038  -4.1987  -4.0750  -3.9905  -3.8351  -3.8057  -3.6772
    -3.3663  -3.0656  -3.0170  -2.8316  -2.8038  -2.5806  -2.5484  -2.4216
    -2.2915  -2.2162  -1.9880  -1.8663  -1.6291  -1.4490  -1.2887  -1.2078
    -1.1662  -1.0505  -1.0280  -0.8302  -0.7656  -0.7191  -0.6009  -0.5644
    -0.3711  -0.3382  -0.1793   0.0362   0.0832   0.1614   0.1941   0.3052
     0.3671   0.5217   0.5626   0.7245   0.7961   0.8610   0.9061   0.9777
     1.0692   1.1019   1.2421   1.4591   1.5993   1.6965   1.8324   1.9242
     1.9452   2.0441   2.1668   2.2367   2.2705   2.3693   2.4713   2.5329
     2.6495   2.7025   2.7079   2.9085   2.9578   2.9931   3.1364   3.2572
     3.3173   3.4000   3.4949   3.5871   3.6541   3.7430   3.7788   3.8254
     3.9062   4.0263   4.0959   4.1738   4.2700   4.3341   4.3694   4.3988
     4.5443   4.5615   4.6927   4.8174   4.9019   4.9226   4.9357   5.0141
     5.0481   5.1404   5.2080   5.2676   5.3020   5.3850   5.4360   5.4705
     5.5073   5.5604   5.6198   5.6629   5.7403   5.7879   5.8911   5.9119
     6.0035   6.0883   6.1400   6.2090   6.2334   6.2535   6.3775   6.4169
     6.4843   6.5011   6.5828   6.6311   6.6675   6.7289   6.7635   6.8604
     6.8856   6.9866   7.0107   7.1728   7.2740   7.3327   7.3343   7.3935
     7.4326   7.5275   7.5943   7.6338   7.6954   7.7224   7.8167   7.8476
     7.9295   7.9952

     the Fermi energy is     6.4351 ev

!    total energy              =    -500.67806699 Ry
     estimated scf accuracy    <       0.00000061 Ry
     smearing contrib. (-TS)   =      -0.15853503 Ry
     internal energy E=F+TS    =    -500.51953196 Ry

     The total energy is F=E-TS. E is the sum of the following terms:
     one-electron contribution =     133.54702139 Ry
     hartree contribution      =      44.66267116 Ry
     xc contribution           =    -150.88521591 Ry
     ewald contribution        =    -527.84400860 Ry

     convergence has been achieved in  19 iterations

     Forces acting on atoms (cartesian axes, Ry/au):

     atom    1 type  1   force =    -0.01718002   -0.03541587   -0.00325733
     atom    2 type  1   force =     0.01107341   -0.01795328   -0.04586967
     atom    3 type  1   force =     0.01245315   -0.00251182   -0.00928187
     atom    4 type  1   force =     0.02203509   -0.01197435   -0.03328253
     atom    5 type  1   force =    -0.01022927   -0.02342241   -0.00671351
     atom    6 type  1   force =     0.02155682    0.02358421    0.04675564
     atom    7 type  1   force =    -0.06439512   -0.00296708   -0.03461643
     atom    8 type  1   force =    -0.03409483   -0.00156070    0.00655279
     atom    9 type  1   force =     0.00612273    0.00764340    0.01323955
     atom   10 type  1   force =     0.01513896    0.05293753   -0.07260157
     atom   11 type  1   force =     0.03192575    0.02559395   -0.00528189
     atom   12 type  1   force =     0.03319960   -0.01002367    0.00308075
     atom   13 type  1   force =    -0.03091981   -0.02478937    0.01663264
     atom   14 type  1   force =    -0.05107650   -0.03089000   -0.03899835
     atom   15 type  1   force =    -0.02894470    0.00535698   -0.00111602
     atom   16 type  1   force =    -0.05922148   -0.00278028   -0.01391651
     atom   17 type  1   force =     0.02304217   -0.04289239    0.05800428
     atom   18 type  1   force =     0.03512306    0.01871475   -0.00926050
     atom   19 type  1   force =    -0.00409673    0.05243336    0.00289877
     atom   20 type  1   force =    -0.00955306    0.11152673    0.02082083
     atom   21 type  1   force =    -0.01655617    0.01564934    0.02698498
     atom   22 type  1   force =    -0.01193893   -0.02997883   -0.00098735
     atom   23 type  1   force =    -0.05934377    0.02407806   -0.02628596
     atom   24 type  1   force =    -0.07599917    0.09970814   -0.09597242
     atom   25 type  1   force =    -0.08388664   -0.04476212   -0.08414984
     atom   26 type  1   force =     0.00948991   -0.00608597    0.02832090
     atom   27 type  1   force =    -0.09190394    0.08295123    0.06548569
     atom   28 type  1   force =    -0.02971124   -0.08364716    0.00415673
     atom   29 type  1   force =     0.05493085   -0.01429947    0.01505740
     atom   30 type  1   force =    -0.03961821   -0.01544704   -0.01305560
     atom   31 type  1   force =    -0.00171287   -0.01629700   -0.01212058
     atom   32 type  1   force =     0.00029737   -0.09467090   -0.03368705
     atom   33 type  1   force =     0.00682221    0.01193499    0.02297376
     atom   34 type  1   force =    -0.04587514   -0.03316562    0.01087378
     atom   35 type  1   force =    -0.01545071    0.00761168   -0.00576272
     atom   36 type  1   force =     0.01408727    0.09136531   -0.00361452
     atom   37 type  1   force =     0.01848172   -0.02007217   -0.01285341
     atom   38 type  1   force =    -0.02462251    0.01791837    0.00951650
     atom   39 type  1   force =    -0.04018513    0.00465496    0.05151661
     atom   40 type  1   force =     0.00166366   -0.01205934    0.03354455
     atom   41 type  1   force =     0.11970423   -0.06245644    0.10845861
     atom   42 type  1   force =     0.07415431    0.03691627    0.01299403
     atom   43 type  1   force =     0.07969432   -0.09558748    0.04918476
     atom   44 type  1   force =    -0.00244682   -0.02021851   -0.03060754
     atom   45 type  1   force =     0.09549070   -0.02760339    0.06566460
     atom   46 type  1   force =    -0.03129367   -0.00855124   -0.00060230
     atom   47 type  1   force =     0.02767259    0.00822805    0.01520686
     atom   48 type  1   force =     0.02751608    0.05486041   -0.08776806
     atom   49 type  1   force =     0.05358651   -0.03994742   -0.05787176
     atom   50 type  1   force =    -0.02067584    0.05390265   -0.00543618
     atom   51 type  1   force =     0.00959023    0.02391347    0.00206048
     atom   52 type  1   force =     0.03037906   -0.00822588   -0.01865940
     atom   53 type  1   force =    -0.00773374   -0.01194883    0.04065750
     atom   54 type  1   force =    -0.00636184   -0.00795920   -0.03498321
     atom   55 type  1   force =    -0.01329372    0.00997537    0.00638822
     atom   56 type  1   force =    -0.01137509   -0.00875426   -0.00431678
     atom   57 type  1   force =     0.01183473   -0.02410567    0.02156350
     atom   58 type  1   force =    -0.03839359   -0.02215463   -0.01606490
     atom   59 type  1   force =     0.05632024   -0.00499613    0.01423361
     atom   60 type  1   force =     0.01482257    0.12310009    0.01078018
     atom   61 type  1   force =     0.05011301   -0.07269512   -0.11338102
     atom   62 type  1   force =     0.00215020    0.00074991    0.03322332
     atom   63 type  1   force =     0.01738785    0.02155818    0.11291180
     atom   64 type  1   force =    -0.00977012    0.00600367    0.00263317

     Total force =     0.578202     Total SCF correction =     0.001418


     Computing stress (Cartesian axis) and pressure

          total   stress  (Ry/bohr**3)                   (kbar)     P=        0.97
  -0.00001839   0.00002052   0.00002314           -2.71        3.02        3.40
   0.00002052   0.00004270   0.00002313            3.02        6.28        3.40
   0.00002314   0.00002313  -0.00000447            3.40        3.40       -0.66

 
     init_run     :      0.97s CPU      4.28s WALL (       1 calls)
     electrons    :      1.75s CPU      1.90s WALL (       1 calls)
     forces       :      0.03s CPU      0.03s WALL (       1 calls)
     stress       :      0.14s CPU      0.14s WALL (       1 calls)

     Called by init_run:
     wfcinit      :      0.46s CPU      3.61s WALL (       1 calls)
                                        3.61s GPU  (       1 calls)
     potinit      :      0.04s CPU      0.13s WALL (       1 calls)
     hinit0       :      0.45s CPU      0.48s WALL (       1 calls)

     Called by electrons:
     c_bands      :      1.12s CPU      1.20s WALL (      20 calls)
     sum_band     :      0.33s CPU      0.38s WALL (      20 calls)
     v_of_rho     :      0.12s CPU      0.21s WALL (      20 calls)
     mix_rho      :      0.15s CPU      0.17s WALL (      20 calls)

     Called by c_bands:
     init_us_2    :      0.05s CPU      0.06s WALL (      41 calls)
     init_us_2:gp :      0.05s CPU      0.05s WALL (      41 calls)
     regterg      :      0.99s CPU      1.05s WALL (      20 calls)

     Called by *egterg:
     rdiaghg      :      0.42s CPU      1.06s WALL (      89 calls)
                                        1.05s GPU  (      89 calls)
     h_psi        :      0.86s CPU      3.41s WALL (      91 calls)
                                        3.40s GPU  (      91 calls)
     g_psi        :      0.00s CPU      0.00s WALL (      70 calls)
                                        0.00s GPU  (      70 calls)

     Called by h_psi:
     h_psi:calbec :      0.44s CPU      2.92s WALL (      91 calls)
                                        2.92s GPU  (      91 calls)
     vloc_psi     :      0.37s CPU      0.43s WALL (      91 calls)
                                        0.43s GPU  (      91 calls)
     add_vuspsi   :      0.03s CPU      0.05s WALL (      91 calls)
                                        0.05s GPU  (      91 calls)

     General routines
     calbec       :      0.45s CPU      2.92s WALL (      96 calls)
     fft          :      0.56s CPU      0.68s WALL (     167 calls)
                                        0.12s GPU  (     106 calls)
     ffts         :      0.03s CPU      0.04s WALL (      20 calls)
     fftw         :      0.44s CPU      0.58s WALL (    2106 calls)
                                        0.51s GPU  (    2106 calls)
 
     Parallel routines
 
     PWSCF        :      2.92s CPU      6.43s WALL

 
   This run was terminated on:   9:52:47  11May2023            

=------------------------------------------------------------------------------=
   JOB DONE.
=------------------------------------------------------------------------------=
