
     Program PWSCF v.7.1 starts on 11May2023 at  9:51:55 

     This program is part of the open-source Quantum ESPRESSO suite
     for quantum simulation of materials; please cite
         "P. Giannozzi et al., J. Phys.:Condens. Matter 21 395502 (2009);
         "P. Giannozzi et al., J. Phys.:Condens. Matter 29 465901 (2017);
         "P. Giannozzi et al., J. Chem. Phys. 152 154105 (2020);
          URL http://www.quantum-espresso.org", 
     in publications or presentations arising from this work. More details at
     http://www.quantum-espresso.org/quote

     Parallel version (MPI & OpenMP), running on       4 processor cores
     Number of MPI processes:                 4
     Threads/MPI process:                     1

     MPI processes distributed on     1 nodes
     919995 MiB available memory on the printing compute node when the environment starts
 
     Reading input from pw-si-51.in
Warning: card &CELL ignored
Warning: card / ignored

     Current dimensions of program PWSCF are:
     Max number of different atomic species (ntypx) = 10
     Max number of k-points (npk) =  40000
     Max angular momentum in pseudopotentials (lmaxx) =  4

     IMPORTANT: XC functional enforced from input :
     Exchange-correlation= PBE
                           (   1   4   3   4   0   0   0)
     Any further DFT definition will be discarded
     Please, verify this is what you really want


     gamma-point specific algorithms are used
 
     K-points division:     npool     =       2
     R & G space division:  proc/nbgrp/npool/nimage =       2
     Subspace diagonalization in iterative solution of the eigenvalue problem:
     a serial algorithm will be used

     Message from routine divide_et_impera:
     suboptimal parallelization: some nodes have no k-points
 
     Parallelization info
     --------------------
     sticks:   dense  smooth     PW     G-vecs:    dense   smooth      PW
     Min        2003    2003    528                95853    95853   12909
     Max        2006    2006    529                95858    95858   12912
     Sum        4009    4009   1057               191711   191711   25821
 
     Using Slab Decomposition
 


     bravais-lattice index     =            0
     lattice parameter (alat)  =      20.5095  a.u.
     unit-cell volume          =    8627.0538 (a.u.)^3
     number of atoms/cell      =           64
     number of atomic types    =            1
     number of electrons       =       256.00
     number of Kohn-Sham states=          154
     kinetic-energy cutoff     =      30.0000  Ry
     charge density cutoff     =     120.0000  Ry
     scf convergence threshold =      1.0E-06
     mixing beta               =       0.5000
     number of iterations used =            8  plain     mixing
     Exchange-correlation= PBE
                           (   1   4   3   4   0   0   0)

     GPU acceleration is ACTIVE.
     GPU-aware MPI enabled

     Message from routine print_cuda_info:
     High GPU oversubscription detected. Are you sure this is what you want?

     celldm(1)=  20.509457  celldm(2)=   0.000000  celldm(3)=   0.000000
     celldm(4)=   0.000000  celldm(5)=   0.000000  celldm(6)=   0.000000

     crystal axes: (cart. coord. in units of alat)
               a(1) = (   1.000000   0.000000   0.000000 )  
               a(2) = (   0.000000   1.000000   0.000000 )  
               a(3) = (   0.000000   0.000000   1.000000 )  

     reciprocal axes: (cart. coord. in units 2 pi/alat)
               b(1) = (  1.000000  0.000000  0.000000 )  
               b(2) = (  0.000000  1.000000  0.000000 )  
               b(3) = (  0.000000  0.000000  1.000000 )  


     PseudoPot. # 1 for Si read from file:
     /home/ppiaggi/pseudos/Si_ONCV_PBE_sr.upf
     MD5 check sum: 8553c464762ac42b85b1eed164b4d029
     Pseudo is Norm-conserving, Zval =  4.0
     Generated using ONCVPSP code by D. R. Hamann
     Using radial grid of 1510 points,  4 beta functions with: 
                l(1) =   0
                l(2) =   0
                l(3) =   1
                l(4) =   1

     atomic species   valence    mass     pseudopotential
        Si             4.00    28.08500     Si( 1.00)

     No symmetry found



   Cartesian axes

     site n.     atom                  positions (alat units)
         1           Si  tau(   1) = (   0.3892960   0.2708730   0.3847230  )
         2           Si  tau(   2) = (   0.4623100   0.6187640   0.7213210  )
         3           Si  tau(   3) = (   0.1051030   0.3031310   0.9490320  )
         4           Si  tau(   4) = (   0.4416030   0.1052850   0.8519520  )
         5           Si  tau(   5) = (   0.1284080   0.9634210   0.1697170  )
         6           Si  tau(   6) = (   0.7867230   0.7332300   0.6046040  )
         7           Si  tau(   7) = (   0.2432560   0.4278750   0.2113330  )
         8           Si  tau(   8) = (   0.1551480   0.8754180   0.3436150  )
         9           Si  tau(   9) = (   0.5917340   0.5232460   0.0600021  )
        10           Si  tau(  10) = (   0.9488760   0.0286386   0.5302520  )
        11           Si  tau(  11) = (   0.9706220   0.1523580   0.0332003  )
        12           Si  tau(  12) = (   0.2601040   0.7713510   0.7233550  )
        13           Si  tau(  13) = (   0.0837665   0.3868950   0.6387040  )
        14           Si  tau(  14) = (   0.3719210   0.7364450   0.9384430  )
        15           Si  tau(  15) = (   0.9848260   0.9283510   0.0155461  )
        16           Si  tau(  16) = (   0.7173890   0.1094950   0.0998453  )
        17           Si  tau(  17) = (   0.3677360   0.1784380   0.6703350  )
        18           Si  tau(  18) = (   0.3241700   0.0591508   0.2603270  )
        19           Si  tau(  19) = (   0.1987570   0.0002231   0.7299060  )
        20           Si  tau(  20) = (   0.5244120   0.0549331   0.0604505  )
        21           Si  tau(  21) = (   0.0752744   0.5652150   0.1187710  )
        22           Si  tau(  22) = (   0.2295120   0.6036690   0.5492000  )
        23           Si  tau(  23) = (   0.2946830   0.3839210   0.5374740  )
        24           Si  tau(  24) = (   0.7440630   0.6664830   0.9610240  )
        25           Si  tau(  25) = (   0.9280790   0.5004100   0.5387700  )
        26           Si  tau(  26) = (   0.8649880   0.2563030   0.1875210  )
        27           Si  tau(  27) = (   0.3956490   0.5267840   0.9949100  )
        28           Si  tau(  28) = (   0.6318750   0.0854504   0.3917400  )
        29           Si  tau(  29) = (   0.7525700   0.3844780   0.6035480  )
        30           Si  tau(  30) = (   0.2316640   0.6601090   0.2210580  )
        31           Si  tau(  31) = (   0.9541740   0.3049160   0.7829820  )
        32           Si  tau(  32) = (   0.4428980   0.6836480   0.4980380  )
        33           Si  tau(  33) = (   0.7173820   0.0823095   0.7798250  )
        34           Si  tau(  34) = (   0.9748210   0.8035770   0.6724200  )
        35           Si  tau(  35) = (   0.3272150   0.2800750   0.0203328  )
        36           Si  tau(  36) = (   0.6341110   0.2978690   0.4309940  )
        37           Si  tau(  37) = (   0.7677400   0.3776660   0.9890330  )
        38           Si  tau(  38) = (   0.2862160   0.9257230   0.9230400  )
        39           Si  tau(  39) = (   0.7481350   0.8204160   0.3835000  )
        40           Si  tau(  40) = (   0.5339950   0.2291700   0.1784800  )
        41           Si  tau(  41) = (   0.8785980   0.5089230   0.1444230  )
        42           Si  tau(  42) = (   0.4834720   0.5349610   0.2567770  )
        43           Si  tau(  43) = (   0.5777370   0.8077390   0.0813106  )
        44           Si  tau(  44) = (   0.0909743   0.1213630   0.2962520  )
        45           Si  tau(  45) = (   0.1293790   0.5842280   0.7620310  )
        46           Si  tau(  46) = (   0.7543180   0.5714470   0.7541390  )
        47           Si  tau(  47) = (   0.3891380   0.7687380   0.2892850  )
        48           Si  tau(  48) = (   0.5038370   0.4990200   0.4662140  )
        49           Si  tau(  49) = (   0.9303800   0.7844210   0.2015840  )
        50           Si  tau(  50) = (   0.0122094   0.9934630   0.8125760  )
        51           Si  tau(  51) = (   0.1784360   0.5010530   0.9307720  )
        52           Si  tau(  52) = (   0.6694350   0.8571520   0.8768550  )
        53           Si  tau(  53) = (   0.0233139   0.2600860   0.4733160  )
        54           Si  tau(  54) = (   0.5736340   0.8701720   0.2754780  )
        55           Si  tau(  55) = (   0.2590000   0.0670116   0.5415940  )
        56           Si  tau(  56) = (   0.9680080   0.5857470   0.3447640  )
        57           Si  tau(  57) = (   0.5988910   0.8706550   0.6753090  )
        58           Si  tau(  58) = (   0.6761870   0.5991640   0.3966030  )
        59           Si  tau(  59) = (   0.8523190   0.1314540   0.3842550  )
        60           Si  tau(  60) = (   0.4950970   0.9236890   0.5040860  )
        61           Si  tau(  61) = (   0.4339240   0.3272330   0.8352520  )
        62           Si  tau(  62) = (   0.0176471   0.7459100   0.8872800  )
        63           Si  tau(  63) = (   0.5667670   0.4516130   0.7371140  )
        64           Si  tau(  64) = (   0.7783200   0.4279650   0.3312990  )

     number of k points=     1  Fermi-Dirac smearing, width (Ry)=  0.0100
                       cart. coord. in units 2pi/alat
        k(    1) = (   0.0000000   0.0000000   0.0000000), wk =   2.0000000

     Dense  grid:    95856 G-vectors     FFT dimensions: (  72,  72,  72)

     Estimated max dynamical RAM per process >     152.82 MB

     Estimated total dynamical RAM >     587.90 MB

     Initial potential from superposition of free atoms

     starting charge     255.9608, renormalised to     256.0000
     Starting wfcs are  256 randomized atomic wfcs

     total cpu time spent up to now is        4.6 secs

     Self-consistent Calculation

     iteration #  1     ecut=    30.00 Ry     beta= 0.50
     Davidson diagonalization with overlap
     ethr =  1.00E-02,  avg # of iterations =  3.0

     Threshold (ethr) on eigenvalues was too large:
     Diagonalizing with lowered threshold

     Davidson diagonalization with overlap
     ethr =  6.01E-04,  avg # of iterations =  4.0

     total cpu time spent up to now is        4.8 secs

     total energy              =    -499.98007375 Ry
     estimated scf accuracy    <       1.99833150 Ry

     iteration #  2     ecut=    30.00 Ry     beta= 0.50
     Davidson diagonalization with overlap
     ethr =  7.81E-04,  avg # of iterations =  4.0

     total cpu time spent up to now is        4.9 secs

     total energy              =    -499.04708252 Ry
     estimated scf accuracy    <      12.38707909 Ry

     iteration #  3     ecut=    30.00 Ry     beta= 0.50
     Davidson diagonalization with overlap
     ethr =  7.81E-04,  avg # of iterations =  4.0

     total cpu time spent up to now is        5.0 secs

     total energy              =    -500.16201871 Ry
     estimated scf accuracy    <       4.12500399 Ry

     iteration #  4     ecut=    30.00 Ry     beta= 0.50
     Davidson diagonalization with overlap
     ethr =  7.81E-04,  avg # of iterations =  2.0

     total cpu time spent up to now is        5.0 secs

     total energy              =    -500.47644758 Ry
     estimated scf accuracy    <       0.53613753 Ry

     iteration #  5     ecut=    30.00 Ry     beta= 0.50
     Davidson diagonalization with overlap
     ethr =  2.09E-04,  avg # of iterations =  2.0

     total cpu time spent up to now is        5.1 secs

     total energy              =    -500.52386942 Ry
     estimated scf accuracy    <       0.15674247 Ry

     iteration #  6     ecut=    30.00 Ry     beta= 0.50
     Davidson diagonalization with overlap
     ethr =  6.12E-05,  avg # of iterations =  4.0

     total cpu time spent up to now is        5.2 secs

     total energy              =    -500.53189093 Ry
     estimated scf accuracy    <       0.24307802 Ry

     iteration #  7     ecut=    30.00 Ry     beta= 0.50
     Davidson diagonalization with overlap
     ethr =  6.12E-05,  avg # of iterations =  2.0

     total cpu time spent up to now is        5.3 secs

     total energy              =    -500.55262767 Ry
     estimated scf accuracy    <       0.02204096 Ry

     iteration #  8     ecut=    30.00 Ry     beta= 0.50
     Davidson diagonalization with overlap
     ethr =  8.61E-06,  avg # of iterations = 14.0

     total cpu time spent up to now is        5.5 secs

     total energy              =    -500.55488287 Ry
     estimated scf accuracy    <       0.01074849 Ry

     iteration #  9     ecut=    30.00 Ry     beta= 0.50
     Davidson diagonalization with overlap
     ethr =  4.20E-06,  avg # of iterations =  3.0

     total cpu time spent up to now is        5.6 secs

     total energy              =    -500.55555785 Ry
     estimated scf accuracy    <       0.01186569 Ry

     iteration # 10     ecut=    30.00 Ry     beta= 0.50
     Davidson diagonalization with overlap
     ethr =  4.20E-06,  avg # of iterations =  2.0

     total cpu time spent up to now is        5.6 secs

     total energy              =    -500.55645892 Ry
     estimated scf accuracy    <       0.00121216 Ry

     iteration # 11     ecut=    30.00 Ry     beta= 0.50
     Davidson diagonalization with overlap
     ethr =  4.74E-07,  avg # of iterations =  2.0

     total cpu time spent up to now is        5.7 secs

     total energy              =    -500.55662477 Ry
     estimated scf accuracy    <       0.00022321 Ry

     iteration # 12     ecut=    30.00 Ry     beta= 0.50
     Davidson diagonalization with overlap
     ethr =  8.72E-08,  avg # of iterations =  6.0

     total cpu time spent up to now is        5.8 secs

     total energy              =    -500.55659179 Ry
     estimated scf accuracy    <       0.00135012 Ry

     iteration # 13     ecut=    30.00 Ry     beta= 0.50
     Davidson diagonalization with overlap
     ethr =  8.72E-08,  avg # of iterations =  3.0

     total cpu time spent up to now is        5.9 secs

     total energy              =    -500.55668796 Ry
     estimated scf accuracy    <       0.00006110 Ry

     iteration # 14     ecut=    30.00 Ry     beta= 0.50
     Davidson diagonalization with overlap
     ethr =  2.39E-08,  avg # of iterations =  3.0

     total cpu time spent up to now is        6.0 secs

     total energy              =    -500.55669368 Ry
     estimated scf accuracy    <       0.00001853 Ry

     iteration # 15     ecut=    30.00 Ry     beta= 0.50
     Davidson diagonalization with overlap
     ethr =  7.24E-09,  avg # of iterations =  5.0

     total cpu time spent up to now is        6.1 secs

     total energy              =    -500.55669320 Ry
     estimated scf accuracy    <       0.00002104 Ry

     iteration # 16     ecut=    30.00 Ry     beta= 0.50
     Davidson diagonalization with overlap
     ethr =  7.24E-09,  avg # of iterations =  3.0

     total cpu time spent up to now is        6.2 secs

     total energy              =    -500.55669403 Ry
     estimated scf accuracy    <       0.00003609 Ry

     iteration # 17     ecut=    30.00 Ry     beta= 0.50
     Davidson diagonalization with overlap
     ethr =  7.24E-09,  avg # of iterations =  2.0

     total cpu time spent up to now is        6.3 secs

     total energy              =    -500.55669596 Ry
     estimated scf accuracy    <       0.00000805 Ry

     iteration # 18     ecut=    30.00 Ry     beta= 0.50
     Davidson diagonalization with overlap
     ethr =  3.14E-09,  avg # of iterations =  2.0

     total cpu time spent up to now is        6.4 secs

     total energy              =    -500.55669646 Ry
     estimated scf accuracy    <       0.00000116 Ry

     iteration # 19     ecut=    30.00 Ry     beta= 0.50
     Davidson diagonalization with overlap
     ethr =  4.53E-10,  avg # of iterations =  3.0

     total cpu time spent up to now is        6.5 secs

     End of self-consistent calculation

          k = 0.0000 0.0000 0.0000 ( 11924 PWs)   bands (ev):

    -6.1474  -5.4494  -5.2602  -5.1062  -5.0165  -4.9255  -4.6900  -4.5149
    -4.4689  -4.3472  -4.0204  -3.9142  -3.8971  -3.8254  -3.6899  -3.5148
    -3.3838  -3.2966  -3.2090  -2.9854  -2.9092  -2.6710  -2.5374  -2.4314
    -2.1888  -2.0837  -1.8478  -1.6365  -1.5676  -1.5433  -1.3828  -1.3596
    -1.1745  -0.9308  -0.8602  -0.7623  -0.7092  -0.5436  -0.5295  -0.3649
    -0.2097  -0.1175  -0.0913  -0.0101   0.0790   0.1376   0.2381   0.2867
     0.3800   0.4817   0.5950   0.6148   0.7133   0.7813   0.9188   1.0076
     1.0467   1.1474   1.3389   1.4604   1.5587   1.7654   1.7800   1.8960
     2.0574   2.1568   2.2350   2.2852   2.3640   2.4245   2.4822   2.5595
     2.6327   2.6599   2.8402   2.9611   3.0279   3.0574   3.2206   3.2536
     3.3595   3.4466   3.5616   3.5905   3.6253   3.7182   3.7968   3.8510
     3.9990   4.0205   4.0818   4.1872   4.2733   4.2937   4.3897   4.4401
     4.4961   4.6199   4.6791   4.7045   4.7475   4.8237   4.8433   4.8836
     5.0391   5.0776   5.2303   5.2592   5.3921   5.4170   5.5120   5.5370
     5.6214   5.6417   5.6930   5.7343   5.8617   5.9143   5.9568   6.0032
     6.0704   6.0879   6.1231   6.1961   6.2902   6.3349   6.3788   6.4718
     6.4782   6.5369   6.5816   6.7159   6.7259   6.7866   6.9060   6.9327
     6.9836   7.0317   7.0565   7.0854   7.1996   7.2187   7.2926   7.3334
     7.3512   7.5042   7.5327   7.6152   7.6552   7.7014   7.7767   7.8677
     7.8980   7.9473

     the Fermi energy is     6.4720 ev

!    total energy              =    -500.55669649 Ry
     estimated scf accuracy    <       0.00000025 Ry
     smearing contrib. (-TS)   =      -0.15553755 Ry
     internal energy E=F+TS    =    -500.40115894 Ry

     The total energy is F=E-TS. E is the sum of the following terms:
     one-electron contribution =     141.83770607 Ry
     hartree contribution      =      40.66328359 Ry
     xc contribution           =    -150.65126551 Ry
     ewald contribution        =    -532.25088309 Ry

     convergence has been achieved in  19 iterations

     Forces acting on atoms (cartesian axes, Ry/au):

     atom    1 type  1   force =     0.02466205   -0.01873311   -0.05018951
     atom    2 type  1   force =    -0.06539505    0.09543145   -0.01582936
     atom    3 type  1   force =     0.01775641   -0.02718705   -0.01105950
     atom    4 type  1   force =     0.04920941   -0.03194244    0.05298823
     atom    5 type  1   force =     0.01666058    0.01748575   -0.12319694
     atom    6 type  1   force =    -0.04857657    0.00154646   -0.02011524
     atom    7 type  1   force =     0.05189392   -0.00254661   -0.01999237
     atom    8 type  1   force =     0.01520480   -0.05363669    0.09545772
     atom    9 type  1   force =     0.04850618   -0.00839725    0.02821895
     atom   10 type  1   force =     0.04166309   -0.02444899    0.03612850
     atom   11 type  1   force =     0.01124116   -0.01614663    0.00158533
     atom   12 type  1   force =    -0.01418190   -0.00529735    0.01586927
     atom   13 type  1   force =     0.03751598    0.01075096   -0.01420206
     atom   14 type  1   force =     0.04968252   -0.01820301    0.00400877
     atom   15 type  1   force =    -0.01639779   -0.00658302    0.02030242
     atom   16 type  1   force =     0.07085634    0.03329417    0.00373528
     atom   17 type  1   force =     0.01074512    0.06790547    0.00708655
     atom   18 type  1   force =     0.00627445    0.00658811    0.01003586
     atom   19 type  1   force =     0.05413148   -0.02526312    0.00889324
     atom   20 type  1   force =    -0.06948850   -0.07187292   -0.03673592
     atom   21 type  1   force =     0.02605970    0.01327315   -0.02258622
     atom   22 type  1   force =     0.01226408   -0.00470849    0.00535525
     atom   23 type  1   force =    -0.02260792    0.02187678    0.03404524
     atom   24 type  1   force =     0.02244004   -0.01436775    0.01325850
     atom   25 type  1   force =    -0.02156233    0.01297798   -0.01501551
     atom   26 type  1   force =    -0.01912771    0.00914355    0.02647548
     atom   27 type  1   force =    -0.08208898   -0.01949378   -0.00805844
     atom   28 type  1   force =    -0.00818872   -0.03604673   -0.01615064
     atom   29 type  1   force =    -0.01162196   -0.00727527    0.01481696
     atom   30 type  1   force =    -0.02073196   -0.01815385   -0.00899076
     atom   31 type  1   force =    -0.03526101   -0.02669188    0.02195973
     atom   32 type  1   force =    -0.03615216    0.12079535    0.03346149
     atom   33 type  1   force =    -0.01407352   -0.04448018    0.02668853
     atom   34 type  1   force =     0.03127894    0.02931047    0.01674276
     atom   35 type  1   force =    -0.01286906    0.01098998    0.01692180
     atom   36 type  1   force =    -0.04137095    0.00633592    0.00972071
     atom   37 type  1   force =    -0.01417429    0.00565986    0.01432972
     atom   38 type  1   force =    -0.01413555    0.03104165    0.00560281
     atom   39 type  1   force =     0.04625486   -0.04300338    0.00773919
     atom   40 type  1   force =    -0.01890102    0.02874917    0.05222610
     atom   41 type  1   force =    -0.04990769   -0.00482588   -0.02228971
     atom   42 type  1   force =    -0.01826621    0.01520050   -0.03709733
     atom   43 type  1   force =    -0.03458829   -0.00341810   -0.09394975
     atom   44 type  1   force =    -0.01282614    0.04903878    0.04391441
     atom   45 type  1   force =    -0.02459021    0.07062145   -0.10304949
     atom   46 type  1   force =    -0.00650442   -0.00238437    0.00856124
     atom   47 type  1   force =     0.02227332    0.00810620    0.03409919
     atom   48 type  1   force =     0.01394187   -0.14445279    0.01291665
     atom   49 type  1   force =    -0.01075385   -0.03166399    0.03465851
     atom   50 type  1   force =    -0.08370983    0.01546631   -0.02453808
     atom   51 type  1   force =     0.05107740   -0.03439892    0.11290217
     atom   52 type  1   force =     0.00811649    0.03511562    0.00724732
     atom   53 type  1   force =    -0.00375728   -0.04236833   -0.02288939
     atom   54 type  1   force =    -0.00162429    0.06882320    0.04459586
     atom   55 type  1   force =    -0.01046852   -0.03356719   -0.09674699
     atom   56 type  1   force =     0.00928590    0.02429048   -0.02315035
     atom   57 type  1   force =     0.04090730   -0.01490114    0.02977767
     atom   58 type  1   force =     0.01364046    0.07557315   -0.00391498
     atom   59 type  1   force =    -0.03357510    0.01660765   -0.03928632
     atom   60 type  1   force =    -0.03036686    0.02552099   -0.03403910
     atom   61 type  1   force =    -0.01541807   -0.01749205   -0.00595739
     atom   62 type  1   force =     0.00092398   -0.01053440   -0.01694717
     atom   63 type  1   force =     0.07664323   -0.05162819   -0.02132356
     atom   64 type  1   force =     0.04215266   -0.01140572   -0.00502533

     Total force =     0.533474     Total SCF correction =     0.000875


     Computing stress (Cartesian axis) and pressure

          total   stress  (Ry/bohr**3)                   (kbar)     P=        1.95
   0.00000114  -0.00000513   0.00007779            0.17       -0.75       11.44
  -0.00000513  -0.00002995  -0.00000034           -0.75       -4.41       -0.05
   0.00007779  -0.00000034   0.00006864           11.44       -0.05       10.10

 
     init_run     :      0.95s CPU      4.49s WALL (       1 calls)
     electrons    :      1.77s CPU      1.91s WALL (       1 calls)
     forces       :      0.03s CPU      0.03s WALL (       1 calls)
     stress       :      0.14s CPU      0.14s WALL (       1 calls)

     Called by init_run:
     wfcinit      :      0.44s CPU      3.83s WALL (       1 calls)
                                        3.83s GPU  (       1 calls)
     potinit      :      0.03s CPU      0.12s WALL (       1 calls)
     hinit0       :      0.46s CPU      0.48s WALL (       1 calls)

     Called by electrons:
     c_bands      :      1.15s CPU      1.22s WALL (      20 calls)
     sum_band     :      0.33s CPU      0.37s WALL (      20 calls)
     v_of_rho     :      0.12s CPU      0.21s WALL (      20 calls)
     mix_rho      :      0.15s CPU      0.16s WALL (      20 calls)

     Called by c_bands:
     init_us_2    :      0.05s CPU      0.05s WALL (      41 calls)
     init_us_2:gp :      0.05s CPU      0.05s WALL (      41 calls)
     regterg      :      1.01s CPU      1.08s WALL (      20 calls)

     Called by *egterg:
     rdiaghg      :      0.43s CPU      1.10s WALL (      92 calls)
                                        1.09s GPU  (      92 calls)
     h_psi        :      0.86s CPU      3.61s WALL (      94 calls)
                                        3.61s GPU  (      94 calls)
     g_psi        :      0.00s CPU      0.00s WALL (      73 calls)
                                        0.00s GPU  (      73 calls)

     Called by h_psi:
     h_psi:calbec :      0.43s CPU      3.11s WALL (      94 calls)
                                        3.11s GPU  (      94 calls)
     vloc_psi     :      0.38s CPU      0.44s WALL (      94 calls)
                                        0.44s GPU  (      94 calls)
     add_vuspsi   :      0.03s CPU      0.05s WALL (      94 calls)
                                        0.05s GPU  (      94 calls)

     General routines
     calbec       :      0.43s CPU      3.12s WALL (      99 calls)
     fft          :      0.56s CPU      0.68s WALL (     167 calls)
                                        0.11s GPU  (     106 calls)
     ffts         :      0.04s CPU      0.04s WALL (      20 calls)
     fftw         :      0.46s CPU      0.59s WALL (    2118 calls)
                                        0.52s GPU  (    2118 calls)
 
     Parallel routines
 
     PWSCF        :      2.93s CPU      6.66s WALL

 
   This run was terminated on:   9:52: 2  11May2023            

=------------------------------------------------------------------------------=
   JOB DONE.
=------------------------------------------------------------------------------=
