An instance of this daemon is already running

     Program PWSCF v.7.1 starts on 11May2023 at  9:54:32 

     This program is part of the open-source Quantum ESPRESSO suite
     for quantum simulation of materials; please cite
         "P. Giannozzi et al., J. Phys.:Condens. Matter 21 395502 (2009);
         "P. Giannozzi et al., J. Phys.:Condens. Matter 29 465901 (2017);
         "P. Giannozzi et al., J. Chem. Phys. 152 154105 (2020);
          URL http://www.quantum-espresso.org", 
     in publications or presentations arising from this work. More details at
     http://www.quantum-espresso.org/quote

     Parallel version (MPI & OpenMP), running on       4 processor cores
     Number of MPI processes:                 4
     Threads/MPI process:                     1

     MPI processes distributed on     1 nodes
     917716 MiB available memory on the printing compute node when the environment starts
 
     Reading input from pw-si-69.in
Warning: card &CELL ignored
Warning: card / ignored

     Current dimensions of program PWSCF are:
     Max number of different atomic species (ntypx) = 10
     Max number of k-points (npk) =  40000
     Max angular momentum in pseudopotentials (lmaxx) =  4

     IMPORTANT: XC functional enforced from input :
     Exchange-correlation= PBE
                           (   1   4   3   4   0   0   0)
     Any further DFT definition will be discarded
     Please, verify this is what you really want


     gamma-point specific algorithms are used
 
     K-points division:     npool     =       2
     R & G space division:  proc/nbgrp/npool/nimage =       2
     Subspace diagonalization in iterative solution of the eigenvalue problem:
     a serial algorithm will be used

     Message from routine divide_et_impera:
     suboptimal parallelization: some nodes have no k-points
 
     Parallelization info
     --------------------
     sticks:   dense  smooth     PW     G-vecs:    dense   smooth      PW
     Min        2030    2030    542                97706    97706   13370
     Max        2031    2031    543                97707    97707   13375
     Sum        4061    4061   1085               195413   195413   26745
 
     Using Slab Decomposition
 


     bravais-lattice index     =            0
     lattice parameter (alat)  =      20.6609  a.u.
     unit-cell volume          =    8819.5653 (a.u.)^3
     number of atoms/cell      =           64
     number of atomic types    =            1
     number of electrons       =       256.00
     number of Kohn-Sham states=          154
     kinetic-energy cutoff     =      30.0000  Ry
     charge density cutoff     =     120.0000  Ry
     scf convergence threshold =      1.0E-06
     mixing beta               =       0.5000
     number of iterations used =            8  plain     mixing
     Exchange-correlation= PBE
                           (   1   4   3   4   0   0   0)

     GPU acceleration is ACTIVE.
     GPU-aware MPI enabled

     Message from routine print_cuda_info:
     High GPU oversubscription detected. Are you sure this is what you want?

     celldm(1)=  20.660892  celldm(2)=   0.000000  celldm(3)=   0.000000
     celldm(4)=   0.000000  celldm(5)=   0.000000  celldm(6)=   0.000000

     crystal axes: (cart. coord. in units of alat)
               a(1) = (   1.000000   0.000000   0.000000 )  
               a(2) = (   0.000000   1.000000   0.000000 )  
               a(3) = (   0.000000   0.000000   1.000000 )  

     reciprocal axes: (cart. coord. in units 2 pi/alat)
               b(1) = (  1.000000  0.000000  0.000000 )  
               b(2) = (  0.000000  1.000000  0.000000 )  
               b(3) = (  0.000000  0.000000  1.000000 )  


     PseudoPot. # 1 for Si read from file:
     /home/ppiaggi/pseudos/Si_ONCV_PBE_sr.upf
     MD5 check sum: 8553c464762ac42b85b1eed164b4d029
     Pseudo is Norm-conserving, Zval =  4.0
     Generated using ONCVPSP code by D. R. Hamann
     Using radial grid of 1510 points,  4 beta functions with: 
                l(1) =   0
                l(2) =   0
                l(3) =   1
                l(4) =   1

     atomic species   valence    mass     pseudopotential
        Si             4.00    28.08500     Si( 1.00)

     No symmetry found



   Cartesian axes

     site n.     atom                  positions (alat units)
         1           Si  tau(   1) = (   0.3939480   0.3034350   0.3470720  )
         2           Si  tau(   2) = (   0.4898470   0.8269890   0.6775820  )
         3           Si  tau(   3) = (   0.1600200   0.2244190   0.8804660  )
         4           Si  tau(   4) = (   0.3864190   0.1166830   0.8865310  )
         5           Si  tau(   5) = (   0.1685330   0.0334972   0.0294335  )
         6           Si  tau(   6) = (   0.7218580   0.7505200   0.5640060  )
         7           Si  tau(   7) = (   0.2230940   0.4031940   0.2259370  )
         8           Si  tau(   8) = (   0.1895460   0.6960060   0.4363180  )
         9           Si  tau(   9) = (   0.5196510   0.4660540   0.0689877  )
        10           Si  tau(  10) = (   0.0349800   0.8304130   0.4121800  )
        11           Si  tau(  11) = (   0.9308490   0.1457820   0.0348357  )
        12           Si  tau(  12) = (   0.2896170   0.8170560   0.8090670  )
        13           Si  tau(  13) = (   0.0226366   0.3521310   0.6395950  )
        14           Si  tau(  14) = (   0.4557750   0.6790110   0.8398220  )
        15           Si  tau(  15) = (   0.0080698   0.8076860   0.0034695  )
        16           Si  tau(  16) = (   0.7145780   0.1352740   0.0752220  )
        17           Si  tau(  17) = (   0.2672120   0.2634180   0.7106760  )
        18           Si  tau(  18) = (   0.3900850   0.9933970   0.3418840  )
        19           Si  tau(  19) = (   0.2762330   0.0255655   0.7275120  )
        20           Si  tau(  20) = (   0.4742310   0.1180640   0.1048590  )
        21           Si  tau(  21) = (   0.0165490   0.5953140   0.9667020  )
        22           Si  tau(  22) = (   0.2520520   0.5447830   0.5643310  )
        23           Si  tau(  23) = (   0.1850010   0.3686830   0.4683470  )
        24           Si  tau(  24) = (   0.7098920   0.6614040   0.0595677  )
        25           Si  tau(  25) = (   0.8747090   0.5754230   0.5881340  )
        26           Si  tau(  26) = (   0.9856110   0.2875750   0.1872930  )
        27           Si  tau(  27) = (   0.3902000   0.5015010   0.8838630  )
        28           Si  tau(  28) = (   0.7045650   0.0950311   0.4224400  )
        29           Si  tau(  29) = (   0.7924220   0.2938070   0.6557340  )
        30           Si  tau(  30) = (   0.2058610   0.5970840   0.2415660  )
        31           Si  tau(  31) = (   0.8893710   0.2786490   0.8528150  )
        32           Si  tau(  32) = (   0.4137190   0.8372620   0.4848300  )
        33           Si  tau(  33) = (   0.6188410   0.1803280   0.8187520  )
        34           Si  tau(  34) = (   0.9302640   0.9428370   0.5803070  )
        35           Si  tau(  35) = (   0.2623060   0.2476760   0.0759176  )
        36           Si  tau(  36) = (   0.6271940   0.3051210   0.4897110  )
        37           Si  tau(  37) = (   0.7250880   0.4237730   0.0112505  )
        38           Si  tau(  38) = (   0.3311210   0.8861000   0.0067537  )
        39           Si  tau(  39) = (   0.7695020   0.8064730   0.3278990  )
        40           Si  tau(  40) = (   0.6091440   0.2882280   0.2040810  )
        41           Si  tau(  41) = (   0.9048000   0.4783960   0.1175500  )
        42           Si  tau(  42) = (   0.5479800   0.4765860   0.3176420  )
        43           Si  tau(  43) = (   0.5240470   0.7905850   0.0824262  )
        44           Si  tau(  44) = (   0.0198276   0.0575993   0.2484390  )
        45           Si  tau(  45) = (   0.1658060   0.6282190   0.7442040  )
        46           Si  tau(  46) = (   0.8034280   0.5448250   0.8015060  )
        47           Si  tau(  47) = (   0.3512680   0.7475490   0.1900890  )
        48           Si  tau(  48) = (   0.4610370   0.4928140   0.5057030  )
        49           Si  tau(  49) = (   0.0010608   0.6601330   0.2387880  )
        50           Si  tau(  50) = (   0.7680540   0.0963233   0.7054380  )
        51           Si  tau(  51) = (   0.1357780   0.4511740   0.8489460  )
        52           Si  tau(  52) = (   0.8055690   0.8494290   0.1040030  )
        53           Si  tau(  53) = (   0.1112880   0.1324110   0.6158960  )
        54           Si  tau(  54) = (   0.5922450   0.9695190   0.2703760  )
        55           Si  tau(  55) = (   0.2184900   0.9479560   0.5068640  )
        56           Si  tau(  56) = (   0.8945990   0.5662790   0.3946170  )
        57           Si  tau(  57) = (   0.6787370   0.9129010   0.7443250  )
        58           Si  tau(  58) = (   0.5843470   0.7041800   0.3680310  )
        59           Si  tau(  59) = (   0.8860890   0.1843600   0.3470510  )
        60           Si  tau(  60) = (   0.5039600   0.1195520   0.5323780  )
        61           Si  tau(  61) = (   0.4635300   0.3230490   0.7768500  )
        62           Si  tau(  62) = (   0.0407001   0.8003290   0.7520320  )
        63           Si  tau(  63) = (   0.6383120   0.4565230   0.6471120  )
        64           Si  tau(  64) = (   0.9206810   0.3625760   0.4518780  )

     number of k points=     1  Fermi-Dirac smearing, width (Ry)=  0.0100
                       cart. coord. in units 2pi/alat
        k(    1) = (   0.0000000   0.0000000   0.0000000), wk =   2.0000000

     Dense  grid:    97707 G-vectors     FFT dimensions: (  75,  75,  75)

     Estimated max dynamical RAM per process >     157.69 MB

     Estimated total dynamical RAM >     606.92 MB

     Initial potential from superposition of free atoms

     starting charge     255.9608, renormalised to     256.0000
     Starting wfcs are  256 randomized atomic wfcs

     total cpu time spent up to now is        4.0 secs

     Self-consistent Calculation

     iteration #  1     ecut=    30.00 Ry     beta= 0.50
     Davidson diagonalization with overlap
     ethr =  1.00E-02,  avg # of iterations =  3.0

     Threshold (ethr) on eigenvalues was too large:
     Diagonalizing with lowered threshold

     Davidson diagonalization with overlap
     ethr =  5.37E-04,  avg # of iterations =  4.0

     total cpu time spent up to now is        4.3 secs

     total energy              =    -500.39992353 Ry
     estimated scf accuracy    <       1.77074768 Ry

     iteration #  2     ecut=    30.00 Ry     beta= 0.50
     Davidson diagonalization with overlap
     ethr =  6.92E-04,  avg # of iterations =  4.0

     total cpu time spent up to now is        4.4 secs

     total energy              =    -499.63026387 Ry
     estimated scf accuracy    <      10.35210176 Ry

     iteration #  3     ecut=    30.00 Ry     beta= 0.50
     Davidson diagonalization with overlap
     ethr =  6.92E-04,  avg # of iterations =  5.0

     total cpu time spent up to now is        4.5 secs

     total energy              =    -500.56498196 Ry
     estimated scf accuracy    <       2.94165321 Ry

     iteration #  4     ecut=    30.00 Ry     beta= 0.50
     Davidson diagonalization with overlap
     ethr =  6.92E-04,  avg # of iterations =  2.0

     total cpu time spent up to now is        4.6 secs

     total energy              =    -500.78136287 Ry
     estimated scf accuracy    <       0.80658545 Ry

     iteration #  5     ecut=    30.00 Ry     beta= 0.50
     Davidson diagonalization with overlap
     ethr =  3.15E-04,  avg # of iterations =  2.0

     total cpu time spent up to now is        4.7 secs

     total energy              =    -500.81463307 Ry
     estimated scf accuracy    <       0.66624552 Ry

     iteration #  6     ecut=    30.00 Ry     beta= 0.50
     Davidson diagonalization with overlap
     ethr =  2.60E-04,  avg # of iterations =  2.0

     total cpu time spent up to now is        4.8 secs

     total energy              =    -500.87699480 Ry
     estimated scf accuracy    <       0.07471707 Ry

     iteration #  7     ecut=    30.00 Ry     beta= 0.50
     Davidson diagonalization with overlap
     ethr =  2.92E-05,  avg # of iterations =  2.0

     total cpu time spent up to now is        4.9 secs

     total energy              =    -500.88557456 Ry
     estimated scf accuracy    <       0.02315283 Ry

     iteration #  8     ecut=    30.00 Ry     beta= 0.50
     Davidson diagonalization with overlap
     ethr =  9.04E-06,  avg # of iterations = 11.0

     total cpu time spent up to now is        5.1 secs

     total energy              =    -500.88699759 Ry
     estimated scf accuracy    <       0.02941159 Ry

     iteration #  9     ecut=    30.00 Ry     beta= 0.50
     Davidson diagonalization with overlap
     ethr =  9.04E-06,  avg # of iterations =  2.0

     total cpu time spent up to now is        5.2 secs

     total energy              =    -500.88936745 Ry
     estimated scf accuracy    <       0.00478582 Ry

     iteration # 10     ecut=    30.00 Ry     beta= 0.50
     Davidson diagonalization with overlap
     ethr =  1.87E-06,  avg # of iterations =  7.0

     total cpu time spent up to now is        5.3 secs

     total energy              =    -500.88987272 Ry
     estimated scf accuracy    <       0.00085450 Ry

     iteration # 11     ecut=    30.00 Ry     beta= 0.50
     Davidson diagonalization with overlap
     ethr =  3.34E-07,  avg # of iterations =  4.0

     total cpu time spent up to now is        5.4 secs

     total energy              =    -500.88989122 Ry
     estimated scf accuracy    <       0.00137193 Ry

     iteration # 12     ecut=    30.00 Ry     beta= 0.50
     Davidson diagonalization with overlap
     ethr =  3.34E-07,  avg # of iterations =  3.0

     total cpu time spent up to now is        5.5 secs

     total energy              =    -500.89001676 Ry
     estimated scf accuracy    <       0.00042950 Ry

     iteration # 13     ecut=    30.00 Ry     beta= 0.50
     Davidson diagonalization with overlap
     ethr =  1.68E-07,  avg # of iterations =  2.0

     total cpu time spent up to now is        5.6 secs

     total energy              =    -500.89005031 Ry
     estimated scf accuracy    <       0.00012185 Ry

     iteration # 14     ecut=    30.00 Ry     beta= 0.50
     Davidson diagonalization with overlap
     ethr =  4.76E-08,  avg # of iterations =  2.0

     total cpu time spent up to now is        5.7 secs

     total energy              =    -500.89006112 Ry
     estimated scf accuracy    <       0.00002512 Ry

     iteration # 15     ecut=    30.00 Ry     beta= 0.50
     Davidson diagonalization with overlap
     ethr =  9.81E-09,  avg # of iterations =  4.0

     total cpu time spent up to now is        5.9 secs

     total energy              =    -500.89006249 Ry
     estimated scf accuracy    <       0.00004798 Ry

     iteration # 16     ecut=    30.00 Ry     beta= 0.50
     Davidson diagonalization with overlap
     ethr =  9.81E-09,  avg # of iterations =  2.0

     total cpu time spent up to now is        6.0 secs

     total energy              =    -500.89006629 Ry
     estimated scf accuracy    <       0.00001029 Ry

     iteration # 17     ecut=    30.00 Ry     beta= 0.50
     Davidson diagonalization with overlap
     ethr =  4.02E-09,  avg # of iterations =  2.0

     total cpu time spent up to now is        6.1 secs

     total energy              =    -500.89006724 Ry
     estimated scf accuracy    <       0.00000115 Ry

     iteration # 18     ecut=    30.00 Ry     beta= 0.50
     Davidson diagonalization with overlap
     ethr =  4.48E-10,  avg # of iterations =  4.0

     total cpu time spent up to now is        6.2 secs

     End of self-consistent calculation

          k = 0.0000 0.0000 0.0000 ( 12203 PWs)   bands (ev):

    -6.2636  -5.6466  -5.4075  -5.1866  -5.0280  -4.9640  -4.8019  -4.5652
    -4.4610  -4.3155  -4.1040  -4.0210  -3.9019  -3.8449  -3.8365  -3.7317
    -3.6751  -3.3481  -3.0953  -3.0355  -2.9775  -2.8878  -2.7341  -2.6360
    -2.4677  -2.2770  -2.1105  -1.9941  -1.8247  -1.7480  -1.5196  -1.4218
    -1.2554  -1.2338  -1.0374  -0.9722  -0.8582  -0.7250  -0.7113  -0.6108
    -0.5468  -0.4062  -0.3303  -0.2464  -0.1741  -0.0897   0.0110   0.1081
     0.1510   0.3713   0.4313   0.4589   0.5617   0.7496   0.7779   0.8331
     0.9458   0.9887   1.0650   1.2822   1.3842   1.5077   1.6574   1.7979
     1.8628   1.9916   2.0081   2.1002   2.1391   2.2461   2.2748   2.4100
     2.5035   2.5733   2.6549   2.7355   2.7689   2.9315   2.9912   3.0945
     3.1950   3.2448   3.3566   3.3914   3.5073   3.5639   3.6521   3.7183
     3.7636   3.8171   3.8905   3.9098   4.0839   4.1404   4.1790   4.2119
     4.2453   4.2990   4.3711   4.4878   4.5879   4.5969   4.6220   4.7070
     4.7783   4.7932   4.8823   4.9517   5.0681   5.0888   5.2040   5.2753
     5.2874   5.3180   5.3873   5.4895   5.5673   5.5806   5.7115   5.7387
     5.7941   5.8084   5.8645   5.9198   6.0158   6.0415   6.1144   6.1217
     6.1644   6.2136   6.3426   6.3984   6.4292   6.5344   6.5991   6.6630
     6.7067   6.7248   6.8093   6.8399   6.8870   6.9545   7.1040   7.1731
     7.2373   7.3264   7.3561   7.4037   7.4502   7.5184   7.5467   7.6181
     7.7227   7.8054

     the Fermi energy is     6.1800 ev

!    total energy              =    -500.89006673 Ry
     estimated scf accuracy    <       0.00000091 Ry
     smearing contrib. (-TS)   =      -0.15631813 Ry
     internal energy E=F+TS    =    -500.73374860 Ry

     The total energy is F=E-TS. E is the sum of the following terms:
     one-electron contribution =     133.42643821 Ry
     hartree contribution      =      42.65967170 Ry
     xc contribution           =    -150.08483382 Ry
     ewald contribution        =    -526.73502469 Ry

     convergence has been achieved in  18 iterations

     Forces acting on atoms (cartesian axes, Ry/au):

     atom    1 type  1   force =     0.00139532    0.00781254    0.01534528
     atom    2 type  1   force =     0.01491578    0.00444472    0.03629262
     atom    3 type  1   force =    -0.04582353   -0.01065792    0.07827132
     atom    4 type  1   force =     0.01693637    0.01118534    0.02688889
     atom    5 type  1   force =    -0.03935922    0.01467323    0.00567920
     atom    6 type  1   force =     0.01054673    0.00291089   -0.00160463
     atom    7 type  1   force =    -0.00666043   -0.12085246    0.01555984
     atom    8 type  1   force =     0.05714662    0.00648637   -0.00969887
     atom    9 type  1   force =     0.00817353    0.00210485    0.02955147
     atom   10 type  1   force =    -0.01800646    0.06019898   -0.00621027
     atom   11 type  1   force =     0.01439322   -0.00470942   -0.01780502
     atom   12 type  1   force =    -0.02801620   -0.00627956   -0.01372338
     atom   13 type  1   force =     0.00861175   -0.00485110    0.04595802
     atom   14 type  1   force =     0.06137747    0.10241105   -0.00794229
     atom   15 type  1   force =     0.01151531    0.02160389   -0.01601487
     atom   16 type  1   force =    -0.01007541   -0.00152236   -0.00408720
     atom   17 type  1   force =     0.04569002    0.01228046   -0.05705205
     atom   18 type  1   force =    -0.01967680    0.02140817   -0.00717636
     atom   19 type  1   force =    -0.00230883   -0.01912508   -0.03107429
     atom   20 type  1   force =    -0.01334786    0.00798146    0.00532510
     atom   21 type  1   force =    -0.02260800   -0.02299276   -0.00987748
     atom   22 type  1   force =     0.01133635    0.01402484    0.01277364
     atom   23 type  1   force =    -0.00983533   -0.02862380   -0.01700260
     atom   24 type  1   force =    -0.02209142   -0.02837462   -0.01477765
     atom   25 type  1   force =    -0.03871614    0.02320810    0.09733619
     atom   26 type  1   force =     0.03338595    0.02811686   -0.00579641
     atom   27 type  1   force =    -0.04952498   -0.11171951    0.03553201
     atom   28 type  1   force =    -0.02482561   -0.00793264   -0.00120312
     atom   29 type  1   force =     0.02382982    0.03798312   -0.01318811
     atom   30 type  1   force =     0.00167514    0.09129529   -0.00483584
     atom   31 type  1   force =     0.01011883    0.00005366    0.01282481
     atom   32 type  1   force =    -0.00951594   -0.05440015   -0.02342481
     atom   33 type  1   force =    -0.03933126    0.01143194    0.05779272
     atom   34 type  1   force =     0.01303957   -0.01519320    0.01975257
     atom   35 type  1   force =     0.01818544   -0.01702725   -0.02278370
     atom   36 type  1   force =    -0.01375276   -0.01188468   -0.03793459
     atom   37 type  1   force =     0.00392881    0.00579727   -0.02833426
     atom   38 type  1   force =     0.00748754    0.01339086    0.01661060
     atom   39 type  1   force =    -0.00468483    0.01447362   -0.02126795
     atom   40 type  1   force =    -0.01783106    0.01313789   -0.01313107
     atom   41 type  1   force =     0.00595797    0.01605083    0.00671712
     atom   42 type  1   force =     0.02034213    0.00267782   -0.05928333
     atom   43 type  1   force =     0.02524013   -0.01491157   -0.02100491
     atom   44 type  1   force =     0.02359135   -0.02773868   -0.02141646
     atom   45 type  1   force =     0.00742409    0.02745847   -0.01716555
     atom   46 type  1   force =    -0.00451756   -0.02072595    0.02212843
     atom   47 type  1   force =    -0.01410919    0.02348176    0.01090166
     atom   48 type  1   force =    -0.01453915   -0.00622173    0.04003088
     atom   49 type  1   force =    -0.00551359    0.02162739   -0.02443108
     atom   50 type  1   force =     0.05054575   -0.02802337   -0.03321167
     atom   51 type  1   force =     0.00161864   -0.02589137    0.02314609
     atom   52 type  1   force =     0.01396910    0.00715236    0.01850657
     atom   53 type  1   force =    -0.01084061   -0.01194437   -0.01075527
     atom   54 type  1   force =     0.03037994   -0.02047244   -0.02167470
     atom   55 type  1   force =    -0.01208409    0.00761440   -0.01195157
     atom   56 type  1   force =    -0.00303892   -0.00497037   -0.06753840
     atom   57 type  1   force =    -0.02181260   -0.05254171   -0.00952341
     atom   58 type  1   force =    -0.02392582   -0.01551730    0.02588012
     atom   59 type  1   force =    -0.01316163   -0.01448777    0.00688409
     atom   60 type  1   force =     0.00114220    0.00623779    0.00047047
     atom   61 type  1   force =     0.01814098    0.01807925   -0.02676449
     atom   62 type  1   force =    -0.01284702    0.01588141    0.00419957
     atom   63 type  1   force =    -0.01128526    0.02731336    0.04082900
     atom   64 type  1   force =     0.01162564    0.00760289   -0.00052066

     Total force =     0.400572     Total SCF correction =     0.001850


     Computing stress (Cartesian axis) and pressure

          total   stress  (Ry/bohr**3)                   (kbar)     P=      -17.40
  -0.00015430  -0.00002860  -0.00007317          -22.70       -4.21      -10.76
  -0.00002860  -0.00010739  -0.00005898           -4.21      -15.80       -8.68
  -0.00007317  -0.00005898  -0.00009318          -10.76       -8.68      -13.71

 
     init_run     :      0.64s CPU      3.99s WALL (       1 calls)
     electrons    :      1.97s CPU      2.12s WALL (       1 calls)
     forces       :      0.03s CPU      0.04s WALL (       1 calls)
     stress       :      0.15s CPU      0.15s WALL (       1 calls)

     Called by init_run:
     wfcinit      :      0.46s CPU      3.66s WALL (       1 calls)
                                        3.66s GPU  (       1 calls)
     potinit      :      0.03s CPU      0.11s WALL (       1 calls)
     hinit0       :      0.13s CPU      0.16s WALL (       1 calls)

     Called by electrons:
     c_bands      :      1.29s CPU      1.37s WALL (      19 calls)
     sum_band     :      0.37s CPU      0.42s WALL (      19 calls)
     v_of_rho     :      0.13s CPU      0.21s WALL (      19 calls)
     mix_rho      :      0.16s CPU      0.17s WALL (      19 calls)

     Called by c_bands:
     init_us_2    :      0.05s CPU      0.05s WALL (      39 calls)
     init_us_2:gp :      0.05s CPU      0.05s WALL (      39 calls)
     regterg      :      1.15s CPU      1.21s WALL (      19 calls)

     Called by *egterg:
     rdiaghg      :      0.37s CPU      1.03s WALL (      85 calls)
                                        1.01s GPU  (      85 calls)
     h_psi        :      1.06s CPU      3.64s WALL (      87 calls)
                                        3.64s GPU  (      87 calls)
     g_psi        :      0.00s CPU      0.00s WALL (      67 calls)
                                        0.00s GPU  (      67 calls)

     Called by h_psi:
     h_psi:calbec :      0.43s CPU      2.93s WALL (      87 calls)
                                        2.93s GPU  (      87 calls)
     vloc_psi     :      0.58s CPU      0.65s WALL (      87 calls)
                                        0.65s GPU  (      87 calls)
     add_vuspsi   :      0.03s CPU      0.05s WALL (      87 calls)
                                        0.05s GPU  (      87 calls)

     General routines
     calbec       :      0.43s CPU      2.94s WALL (      92 calls)
     fft          :      0.26s CPU      0.37s WALL (     159 calls)
                                        0.10s GPU  (     101 calls)
     ffts         :      0.04s CPU      0.05s WALL (      19 calls)
     fftw         :      0.65s CPU      0.84s WALL (    2003 calls)
                                        0.76s GPU  (    2003 calls)
 
     Parallel routines
 
     PWSCF        :      2.83s CPU      6.37s WALL

 
   This run was terminated on:   9:54:38  11May2023            

=------------------------------------------------------------------------------=
   JOB DONE.
=------------------------------------------------------------------------------=
