ITEM: TIMESTEP
0
ITEM: NUMBER OF ATOMS
64
ITEM: BOX BOUNDS pp pp pp
1.7190853553507512e-01 1.0689491464464821e+01
1.7190853553507512e-01 1.0689491464464821e+01
1.7190853553507512e-01 1.0689491464464821e+01
ITEM: ATOMS id type xs ys zs
48 1 0.404267 0.356198 0.221559
40 1 0.198154 0.234965 0.171923
36 1 0.434241 0.125392 0.200445
17 1 0.361673 0.462519 0.038529
7 1 0.19825 0.297027 0.458097
38 1 0.341207 0.155532 0.38706
61 1 0.980265 0.179849 0.170457
62 1 0.754995 0.455501 0.352499
19 1 0.69381 0.263497 0.00534125
2 1 0.530983 0.267967 0.384788
32 1 0.998409 0.484428 0.21935
1 1 0.94008 0.30014 0.338382
31 1 0.750006 0.492516 0.121379
46 1 0.733418 0.0194586 0.418107
3 1 0.743287 0.208473 0.250376
11 1 0.315645 0.586269 0.23706
4 1 0.416004 0.888866 0.214247
6 1 0.150273 0.999276 0.158807
55 1 0.172753 0.980312 0.378455
12 1 0.100654 0.767945 0.178966
50 1 0.101664 0.623825 0.358283
28 1 0.957095 0.923755 0.401778
29 1 0.707286 0.80828 0.472612
58 1 0.54685 0.543854 0.324837
45 1 0.86185 0.798801 0.0990487
16 1 0.50673 0.753659 0.38652
26 1 0.876039 0.710387 0.369175
24 1 0.599659 0.677467 0.135824
25 1 0.690629 0.937187 0.216438
43 1 0.384097 0.38885 0.803458
8 1 0.406888 0.0529312 0.979736
10 1 0.216061 0.255274 0.655438
14 1 0.440937 0.150327 0.660515
56 1 0.00319382 0.469945 0.984828
5 1 0.0348685 0.105471 0.774392
64 1 0.0320647 0.408217 0.601054
23 1 0.328765 0.458512 0.605665
60 1 0.135598 0.334927 0.851872
21 1 0.261982 0.134477 0.834619
18 1 0.827518 0.338638 0.653653
44 1 0.835591 0.147038 0.846857
59 1 0.875394 0.157132 0.542086
49 1 0.567295 0.179953 0.839744
63 1 0.643331 0.38634 0.747748
13 1 0.635474 0.371646 0.525502
20 1 0.124106 0.597025 0.816714
53 1 0.0342605 0.785367 0.713615
54 1 0.431827 0.794881 0.979122
41 1 0.0366406 0.913133 0.936227
34 1 0.176073 0.63061 0.570697
15 1 0.26682 0.996096 0.62383
33 1 0.258023 0.883967 0.824237
35 1 0.49273 0.877583 0.571448
22 1 0.0245291 0.994317 0.587146
39 1 0.344035 0.609752 0.851609
47 1 0.628282 0.967682 0.718527
27 1 0.741893 0.740338 0.684008
42 1 0.645044 0.766538 0.929966
51 1 0.520521 0.557867 0.538432
52 1 0.637234 0.987711 0.973251
57 1 0.706403 0.580243 0.833122
37 1 0.86205 0.893538 0.815501
30 1 0.913767 0.61863 0.572448
9 1 0.892757 0.620616 0.900489
ITEM: TIMESTEP
1000
ITEM: NUMBER OF ATOMS
64
ITEM: BOX BOUNDS pp pp pp
9.1073113485128587e-02 1.0770326886514779e+01
9.1073113485128587e-02 1.0770326886514779e+01
9.1073113485128587e-02 1.0770326886514779e+01
ITEM: ATOMS id type xs ys zs
48 1 0.189272 0.236532 0.292289
40 1 0.0230562 0.444205 0.265993
7 1 0.354432 0.377958 0.48419
31 1 0.411327 0.326637 0.204077
6 1 0.286252 0.141053 0.0343206
43 1 0.0340052 0.240413 0.0964539
59 1 0.0280269 0.0725333 0.265792
53 1 0.449664 0.120915 0.304522
34 1 0.115252 0.377334 0.496054
19 1 0.736479 0.244693 0.0363219
2 1 0.616992 0.1235 0.438851
3 1 0.834946 0.0622887 0.42681
58 1 0.82946 0.280516 0.246924
24 1 0.631293 0.38195 0.246534
5 1 0.881607 0.069185 0.0481953
13 1 0.66084 0.458017 0.461015
61 1 0.136015 0.810605 0.34315
32 1 0.150069 0.60065 0.0657289
46 1 0.471137 0.573099 0.453826
55 1 0.343549 0.733167 0.335018
54 1 0.414688 0.91274 0.019842
15 1 0.239491 0.558132 0.470095
35 1 0.296899 0.531337 0.265183
52 1 0.167043 0.949081 0.0987065
62 1 0.748937 0.798264 0.410338
11 1 0.613383 0.792919 0.00277988
4 1 0.521012 0.898946 0.22859
26 1 0.855437 0.54488 0.156298
25 1 0.642292 0.65754 0.251737
64 1 0.904339 0.589833 0.370327
41 1 0.729749 0.945118 0.15483
39 1 0.950966 0.861815 0.193809
36 1 0.424371 0.333835 0.972561
17 1 0.223593 0.303618 0.836892
23 1 0.133328 0.186084 0.655267
60 1 0.39296 0.364603 0.708849
63 1 0.387522 0.131523 0.750302
33 1 0.155971 0.0348135 0.822231
22 1 0.30264 0.107878 0.537095
51 1 0.0443549 0.471891 0.882786
1 1 0.889334 0.392307 0.529364
8 1 0.537874 0.0845516 0.95834
10 1 0.697313 0.0553205 0.664923
14 1 0.613695 0.352829 0.662405
56 1 0.92364 0.294465 0.930867
21 1 0.822742 0.251436 0.721283
44 1 0.893811 0.0630152 0.81571
37 1 0.967135 0.0326135 0.623419
9 1 0.724102 0.474335 0.972558
38 1 0.480716 0.899729 0.780185
12 1 0.0568597 0.745137 0.690741
50 1 0.0299022 0.889141 0.92371
28 1 0.282747 0.769457 0.966058
29 1 0.166629 0.929649 0.551394
20 1 0.215321 0.561852 0.69652
57 1 0.400102 0.630454 0.844899
30 1 0.281737 0.795465 0.702096
45 1 0.768357 0.503131 0.73675
16 1 0.541575 0.569307 0.669643
18 1 0.684956 0.730685 0.804555
49 1 0.53396 0.555176 0.97418
47 1 0.937639 0.634533 0.962689
27 1 0.854383 0.69304 0.595855
42 1 0.795049 0.901186 0.905168
ITEM: TIMESTEP
2000
ITEM: NUMBER OF ATOMS
64
ITEM: BOX BOUNDS pp pp pp
2.6677097051819310e-02 1.0834722902948073e+01
2.6677097051819310e-02 1.0834722902948073e+01
2.6677097051819310e-02 1.0834722902948073e+01
ITEM: ATOMS id type xs ys zs
7 1 0.464624 0.315923 0.439702
31 1 0.452818 0.405159 0.184802
43 1 0.122133 0.265625 0.0609847
2 1 0.48231 0.00931802 0.248687
58 1 0.210289 0.388524 0.277269
54 1 0.355952 0.208247 0.212297
15 1 0.142083 0.10796 0.202187
36 1 0.0106982 0.442537 0.182535
8 1 0.274205 0.158854 0.478058
3 1 0.626981 0.160788 0.163039
24 1 0.768957 0.314051 0.108602
4 1 0.652556 0.300072 0.35188
26 1 0.877643 0.340828 0.30883
22 1 0.959582 0.163649 0.308853
18 1 0.855877 0.0451507 0.0495625
61 1 0.311812 0.707073 0.38125
52 1 0.244995 0.981993 0.349649
25 1 0.376115 0.510016 0.400448
39 1 0.0580201 0.668939 0.206242
17 1 0.101672 0.795433 0.0100149
33 1 0.366578 0.758548 0.119366
21 1 0.113028 0.805408 0.419006
28 1 0.260111 0.977004 0.0678775
57 1 0.294778 0.559666 0.0797213
59 1 0.938144 0.700296 0.411883
32 1 0.54617 0.910489 0.0633009
46 1 0.56433 0.613256 0.217901
62 1 0.612317 0.920159 0.454032
51 1 0.730049 0.555859 0.0395445
12 1 0.863234 0.731898 0.13426
20 1 0.917962 0.94343 0.21713
47 1 0.653672 0.807419 0.262767
27 1 0.717452 0.519813 0.39655
48 1 0.0331577 0.154204 0.700109
6 1 0.194893 0.188821 0.850023
53 1 0.429787 0.167888 0.960568
34 1 0.0344949 0.343702 0.501754
19 1 0.388444 0.0382978 0.795656
23 1 0.173 0.00514147 0.632549
14 1 0.426337 0.29564 0.659274
49 1 0.323762 0.360111 0.94953
40 1 0.99025 0.364312 0.731409
5 1 0.8908 0.305311 0.924296
13 1 0.681274 0.239426 0.631155
11 1 0.666273 0.146173 0.965559
1 1 0.826898 0.439336 0.591945
10 1 0.893964 0.126658 0.501984
9 1 0.57539 0.393896 0.992139
38 1 0.718111 0.329136 0.822879
16 1 0.587097 0.460167 0.669303
55 1 0.468701 0.653559 0.749299
35 1 0.405127 0.847682 0.88691
64 1 0.484861 0.684892 0.538526
63 1 0.379027 0.87527 0.617473
56 1 0.00575619 0.698383 0.696358
44 1 0.113234 0.564166 0.969338
37 1 0.131346 0.966475 0.847757
29 1 0.24882 0.695068 0.796327
41 1 0.597826 0.724852 0.93744
60 1 0.604312 0.993422 0.686616
50 1 0.901146 0.919826 0.804917
30 1 0.692298 0.792487 0.742617
45 1 0.694654 0.695122 0.516122
42 1 0.944042 0.896109 0.539831
ITEM: TIMESTEP
3000
ITEM: NUMBER OF ATOMS
64
ITEM: BOX BOUNDS pp pp pp
-9.4810148899515667e-04 1.0862348101488896e+01
-9.4810148899515667e-04 1.0862348101488896e+01
-9.4810148899515667e-04 1.0862348101488896e+01
ITEM: ATOMS id type xs ys zs
54 1 0.287083 0.368227 0.198697
15 1 0.311474 0.0629411 0.326667
36 1 0.0970012 0.00450981 0.268317
8 1 0.105156 0.263449 0.371796
3 1 0.436541 0.156333 0.167156
57 1 0.219264 0.186963 0.0936023
34 1 0.275328 0.393164 0.435455
11 1 0.0136271 0.1954 0.207127
7 1 0.629514 0.232686 0.433975
31 1 0.567926 0.46768 0.2338
43 1 0.783053 0.0380311 0.300782
4 1 0.628121 0.255032 0.2138
26 1 0.831064 0.245724 0.127544
25 1 0.502852 0.475519 0.423507
51 1 0.94305 0.427252 0.0706104
27 1 0.780186 0.461948 0.439026
58 1 0.193417 0.805601 0.272115
39 1 0.0764397 0.879703 0.445887
28 1 0.137718 0.925775 0.0015321
62 1 0.431016 0.704666 0.372638
10 1 0.348956 0.840308 0.104719
16 1 0.293641 0.547895 0.0692918
56 1 0.115886 0.530457 0.182405
61 1 0.677407 0.654973 0.387324
52 1 0.719133 0.973103 0.0387369
17 1 0.775648 0.813775 0.249424
21 1 0.838806 0.811332 0.45137
47 1 0.698249 0.672459 0.117529
49 1 0.90611 0.515231 0.265203
37 1 0.928825 0.934618 0.116559
18 1 0.0500796 0.326321 0.878565
59 1 0.32967 0.0230388 0.557819
6 1 0.255163 0.171895 0.802288
53 1 0.494109 0.430498 0.954796
19 1 0.437333 0.196662 0.938159
5 1 0.194331 0.389163 0.697033
1 1 0.108289 0.491402 0.518241
55 1 0.415322 0.388209 0.606796
2 1 0.652854 0.323851 0.816562
22 1 0.773967 0.179173 0.617966
48 1 0.968918 0.196965 0.516352
23 1 0.952804 0.117885 0.709791
13 1 0.643998 0.0394102 0.765345
9 1 0.983283 0.0826847 0.961954
38 1 0.511948 0.155082 0.609542
64 1 0.755986 0.428608 0.659477
50 1 0.73634 0.163055 0.915993
32 1 0.363793 0.982978 0.952964
14 1 0.294466 0.942088 0.772079
63 1 0.387019 0.710086 0.592271
44 1 0.292648 0.530073 0.848475
29 1 0.0237171 0.700291 0.538683
41 1 0.13869 0.704752 0.916729
42 1 0.159811 0.689966 0.693144
24 1 0.715566 0.979838 0.510462
33 1 0.553607 0.795952 0.998939
46 1 0.802792 0.547708 0.952892
12 1 0.862595 0.699433 0.741761
20 1 0.75671 0.833926 0.883599
40 1 0.966447 0.501072 0.759689
35 1 0.528257 0.630686 0.861705
60 1 0.519804 0.867416 0.786827
30 1 0.58798 0.585701 0.654221
45 1 0.661444 0.808293 0.640181
ITEM: TIMESTEP
4000
ITEM: NUMBER OF ATOMS
64
ITEM: BOX BOUNDS pp pp pp
4.3286245996810635e-02 1.0818113754003104e+01
4.3286245996810635e-02 1.0818113754003104e+01
4.3286245996810635e-02 1.0818113754003104e+01
ITEM: ATOMS id type xs ys zs
54 1 0.249203 0.47657 0.000638909
57 1 0.14921 0.00689892 0.2776
34 1 0.481846 0.23136 0.362877
26 1 0.0985678 0.422469 0.330529
39 1 0.228639 0.079275 0.466496
10 1 0.075021 0.150666 0.119154
59 1 0.250727 0.230667 0.207499
5 1 0.378853 0.429513 0.200023
24 1 0.469531 0.0198749 0.446595
40 1 0.28498 0.439446 0.484479
11 1 0.911323 0.282215 0.263109
56 1 0.984919 0.489818 0.137853
61 1 0.791182 0.398383 0.416079
52 1 0.738495 0.197382 0.137678
49 1 0.714494 0.384295 0.00743265
22 1 0.509212 0.186198 0.14754
35 1 0.553204 0.487564 0.32935
15 1 0.39674 0.812523 0.374196
58 1 0.246565 0.716279 0.0421569
62 1 0.0900216 0.651265 0.235994
42 1 0.296852 0.59131 0.355708
60 1 0.445073 0.752661 0.12647
3 1 0.683459 0.838593 0.320097
28 1 0.964575 0.810071 0.0983827
16 1 0.6137 0.912702 0.12976
21 1 0.593426 0.554271 0.0951445
37 1 0.813809 0.627901 0.276854
55 1 0.522834 0.68751 0.476089
9 1 0.821859 0.994699 0.363616
14 1 0.975894 0.829022 0.329313
29 1 0.97618 0.598069 0.446371
36 1 0.0668772 0.305138 0.530706
31 1 0.404653 0.0841614 0.983408
25 1 0.351039 0.295446 0.941378
51 1 0.267985 0.359587 0.700645
18 1 0.0882359 0.293648 0.898901
6 1 0.039877 0.0631552 0.703712
19 1 0.206667 0.0748025 0.920398
38 1 0.264665 0.146969 0.711792
63 1 0.489859 0.106903 0.652142
8 1 0.81771 0.152278 0.917467
7 1 0.677301 0.25627 0.552136
43 1 0.685186 0.338081 0.766855
4 1 0.972001 0.0993724 0.502696
27 1 0.511434 0.396998 0.535491
2 1 0.902635 0.45855 0.951256
48 1 0.895862 0.271039 0.653921
13 1 0.325963 0.803196 0.841155
50 1 0.148035 0.577164 0.809019
32 1 0.132566 0.882972 0.984462
44 1 0.456546 0.590882 0.914527
41 1 0.257377 0.931221 0.666578
46 1 0.430352 0.523059 0.697648
12 1 0.107075 0.765082 0.684351
20 1 0.489598 0.93776 0.851275
17 1 0.92389 0.865626 0.583989
47 1 0.664625 0.806694 0.760874
53 1 0.645197 0.580911 0.783214
1 1 0.949584 0.514028 0.684708
23 1 0.944697 0.900514 0.861863
64 1 0.863231 0.662956 0.861029
33 1 0.72062 0.75581 0.988335
30 1 0.725369 0.561746 0.548591
45 1 0.69512 0.807426 0.568289
ITEM: TIMESTEP
5000
ITEM: NUMBER OF ATOMS
64
ITEM: BOX BOUNDS pp pp pp
9.7533825267325014e-02 1.0763866174732598e+01
9.7533825267325014e-02 1.0763866174732598e+01
9.7533825267325014e-02 1.0763866174732598e+01
ITEM: ATOMS id type xs ys zs
39 1 0.0952693 0.421745 0.430805
10 1 0.276684 0.16347 0.293133
59 1 0.320519 0.0465676 0.0508784
5 1 0.247765 0.369944 0.223122
11 1 0.449439 0.0188254 0.220383
22 1 0.225766 0.018414 0.473081
14 1 0.00443979 0.148213 0.0241865
25 1 0.144489 0.33648 0.020121
38 1 0.247346 0.249936 0.477694
52 1 0.804718 0.146197 0.132971
35 1 0.597704 0.193097 0.263692
6 1 0.622056 0.159847 0.486976
63 1 0.557696 0.477165 0.469596
4 1 0.861587 0.0152938 0.334493
2 1 0.935307 0.315292 0.238445
48 1 0.873508 0.306727 0.00985845
53 1 0.547423 0.396374 0.173085
30 1 0.731207 0.417237 0.346794
54 1 0.0483418 0.532769 0.235895
57 1 0.19224 0.60811 0.101434
56 1 0.229842 0.591383 0.479578
61 1 0.0703201 0.762113 0.225279
62 1 0.104799 0.980144 0.111626
42 1 0.393531 0.719712 0.124326
3 1 0.0241947 0.735404 0.446969
37 1 0.255672 0.904954 0.230973
55 1 0.391947 0.545541 0.316906
15 1 0.520892 0.868684 0.358012
60 1 0.695456 0.570492 0.205877
29 1 0.868544 0.547494 0.434663
32 1 0.739634 0.942501 0.128866
41 1 0.639856 0.677388 0.422047
33 1 0.864171 0.665866 0.12383
45 1 0.80568 0.802004 0.436352
40 1 0.295231 0.357503 0.718369
49 1 0.330954 0.238294 0.956301
9 1 0.462938 0.282514 0.57152
18 1 0.207439 0.144503 0.768369
44 1 0.441314 0.478991 0.908544
34 1 0.824685 0.111226 0.515892
24 1 0.620284 0.225734 0.698648
51 1 0.936758 0.364239 0.589039
8 1 0.985096 0.417544 0.797599
46 1 0.573473 0.136269 0.947041
12 1 0.989621 0.0806828 0.686273
23 1 0.748513 0.241649 0.860886
26 1 0.426045 0.572446 0.608269
31 1 0.307179 0.947838 0.744052
19 1 0.112932 0.794991 0.941386
13 1 0.453757 0.962205 0.547978
50 1 0.175639 0.674828 0.67486
20 1 0.110823 0.892592 0.578512
47 1 0.40998 0.817072 0.90161
1 1 0.253033 0.556738 0.871223
58 1 0.656749 0.670505 0.996426
28 1 0.754999 0.752955 0.648565
16 1 0.623601 0.921946 0.935971
21 1 0.998046 0.649094 0.811791
36 1 0.724856 0.967529 0.778333
7 1 0.632472 0.558107 0.834073
43 1 0.817361 0.740392 0.865557
27 1 0.514566 0.779739 0.697579
17 1 0.965509 0.955763 0.86823
64 1 0.690332 0.509643 0.643054
ITEM: TIMESTEP
6000
ITEM: NUMBER OF ATOMS
64
ITEM: BOX BOUNDS pp pp pp
9.8600929814601557e-02 1.0762799070185308e+01
9.8600929814601557e-02 1.0762799070185308e+01
9.8600929814601557e-02 1.0762799070185308e+01
ITEM: ATOMS id type xs ys zs
10 1 0.0142313 0.291253 0.159589
5 1 0.191835 0.261903 0.0471451
11 1 0.402217 0.30661 0.42513
38 1 0.231745 0.149566 0.382416
35 1 0.320048 0.396369 0.191782
49 1 0.334045 0.0919437 0.109595
1 1 0.469295 0.254807 0.110225
22 1 0.971082 0.154016 0.345319
52 1 0.633468 0.125918 0.237431
6 1 0.513834 0.108572 0.447803
2 1 0.66081 0.351681 0.187397
30 1 0.84801 0.362632 0.306091
55 1 0.644773 0.352858 0.428053
32 1 0.761862 0.0509186 0.0531303
39 1 0.162626 0.615365 0.228299
57 1 0.19099 0.851569 0.214018
56 1 0.126793 0.52532 0.450285
42 1 0.357738 0.626292 0.0742671
3 1 0.447026 0.786723 0.238894
37 1 0.11936 0.955768 0.0258795
60 1 0.348268 0.625967 0.364041
29 1 0.16694 0.747931 0.493183
45 1 0.343359 0.945853 0.45313
19 1 0.0182869 0.640468 0.0261033
13 1 0.458011 0.915014 0.0509523
20 1 0.0762756 0.944524 0.386761
61 1 0.890083 0.958948 0.210471
15 1 0.646987 0.939527 0.357905
33 1 0.545246 0.597509 0.480132
34 1 0.700386 0.824474 0.0377676
23 1 0.943627 0.627483 0.261753
58 1 0.789474 0.555562 0.146738
16 1 0.593584 0.639451 0.0430177
36 1 0.855122 0.829555 0.378372
25 1 0.0772817 0.24008 0.72399
53 1 0.392589 0.44667 0.603808
40 1 0.274599 0.0267766 0.668266
44 1 0.464128 0.0905706 0.76687
31 1 0.30633 0.286928 0.838248
27 1 0.477449 0.379934 0.928186
14 1 0.753174 0.36738 0.999789
62 1 0.97834 0.0361218 0.857721
18 1 0.917618 0.234185 0.920546
24 1 0.80056 0.283098 0.645409
51 1 0.920814 0.42907 0.777228
12 1 0.991443 0.0982771 0.556493
7 1 0.652781 0.175329 0.888906
43 1 0.690422 0.460556 0.792132
64 1 0.554085 0.289201 0.696479
59 1 0.432115 0.89692 0.818744
48 1 0.299074 0.52583 0.884976
41 1 0.0493832 0.708541 0.781735
8 1 0.114847 0.518498 0.721321
26 1 0.229399 0.788503 0.888817
50 1 0.392476 0.682398 0.718587
17 1 0.0426332 0.903364 0.682987
63 1 0.746697 0.532917 0.559542
4 1 0.717631 0.981903 0.838138
54 1 0.934442 0.678398 0.554406
9 1 0.660738 0.992692 0.617436
46 1 0.777235 0.789271 0.620726
47 1 0.537441 0.801495 0.576239
28 1 0.641191 0.761623 0.842901
21 1 0.827873 0.640037 0.89419
ITEM: TIMESTEP
7000
ITEM: NUMBER OF ATOMS
64
ITEM: BOX BOUNDS pp pp pp
6.1632058301371195e-02 1.0799767941698537e+01
6.1632058301371195e-02 1.0799767941698537e+01
6.1632058301371195e-02 1.0799767941698537e+01
ITEM: ATOMS id type xs ys zs
38 1 0.280736 0.310661 0.351883
22 1 0.177497 0.120697 0.343385
52 1 0.443486 0.0923687 0.384756
29 1 0.33357 0.0358615 0.192592
16 1 0.257853 0.269452 0.132692
48 1 0.416403 0.446442 0.155941
26 1 0.467299 0.156433 0.0973178
10 1 0.954025 0.399096 0.239087
2 1 0.703734 0.222949 0.159365
55 1 0.500075 0.343409 0.45332
37 1 0.939595 0.0345239 0.00376836
13 1 0.717584 0.00676031 0.00958965
61 1 0.754888 0.0217378 0.248316
24 1 0.981816 0.376734 0.45427
17 1 0.965659 0.103675 0.213558
63 1 0.725685 0.490099 0.453785
9 1 0.911418 0.152068 0.430014
11 1 0.263404 0.543297 0.300031
35 1 0.15267 0.833489 0.238006
49 1 0.258898 0.847128 0.040007
57 1 0.0916433 0.579753 0.168846
56 1 0.368813 0.507406 0.497568
36 1 0.0398344 0.641397 0.438869
42 1 0.972593 0.808618 0.0106049
3 1 0.512274 0.709515 0.144824
60 1 0.660624 0.795805 0.447105
20 1 0.938081 0.882909 0.285549
15 1 0.542335 0.930865 0.277254
34 1 0.782949 0.547191 0.242515
23 1 0.837121 0.706686 0.369978
58 1 0.565993 0.568699 0.334982
12 1 0.963842 0.875573 0.483345
21 1 0.947817 0.598339 0.0136131
6 1 0.486286 0.268523 0.683731
30 1 0.249151 0.249271 0.560199
45 1 0.317733 0.119636 0.726039
40 1 0.0669512 0.261571 0.764428
31 1 0.216536 0.292731 0.920875
27 1 0.206715 0.0481528 0.925739
51 1 0.190468 0.489704 0.991374
8 1 0.0133725 0.0568704 0.658613
54 1 0.134462 0.439168 0.608236
5 1 0.718884 0.142779 0.787914
25 1 0.849609 0.253531 0.625544
53 1 0.545262 0.22179 0.905372
18 1 0.848655 0.27738 0.992001
7 1 0.883853 0.419303 0.825834
64 1 0.624559 0.409884 0.802621
4 1 0.544734 0.0541172 0.55971
1 1 0.175426 0.972481 0.538663
32 1 0.373422 0.889049 0.838005
39 1 0.0960442 0.713614 0.863253
44 1 0.481735 0.753551 0.548429
14 1 0.25921 0.780615 0.661075
59 1 0.415314 0.57566 0.972846
50 1 0.344572 0.554341 0.76153
19 1 0.932062 0.892653 0.788734
33 1 0.770423 0.979063 0.531754
62 1 0.865509 0.69008 0.738511
43 1 0.668332 0.762486 0.996086
41 1 0.619927 0.62699 0.670168
46 1 0.683518 0.799762 0.788539
47 1 0.867554 0.528804 0.603001
28 1 0.551731 0.975719 0.76234
ITEM: TIMESTEP
8000
ITEM: NUMBER OF ATOMS
64
ITEM: BOX BOUNDS pp pp pp
1.1993574240397820e-02 1.0849406425759518e+01
1.1993574240397820e-02 1.0849406425759518e+01
1.1993574240397820e-02 1.0849406425759518e+01
ITEM: ATOMS id type xs ys zs
29 1 0.298802 0.225311 0.179694
16 1 0.210762 0.407034 0.044306
55 1 0.31024 0.380155 0.351074
20 1 0.0516215 0.136582 0.25513
45 1 0.311256 0.136048 0.387234
27 1 0.348608 0.0461222 0.0282728
38 1 0.525543 0.330161 0.455592
10 1 0.779492 0.307968 0.118476
2 1 0.721479 0.0375925 0.374448
61 1 0.757136 0.242003 0.457289
24 1 0.869517 0.0519302 0.148043
11 1 0.978692 0.362836 0.204094
58 1 0.639186 0.33651 0.260595
31 1 0.564987 0.0956559 0.104122
48 1 0.426839 0.998436 0.281863
35 1 0.0874189 0.965161 0.353337
57 1 0.126272 0.647448 0.117509
56 1 0.19773 0.563323 0.356817
3 1 0.330041 0.620194 0.084736
23 1 0.249131 0.828249 0.0766798
30 1 0.270632 0.840747 0.328167
62 1 0.0384549 0.814434 0.0265124
26 1 0.628768 0.852016 0.269756
13 1 0.744572 0.7385 0.41771
36 1 0.747801 0.56601 0.108677
60 1 0.514787 0.525797 0.170834
15 1 0.507635 0.771083 0.0836164
34 1 0.94982 0.83319 0.234977
51 1 0.953811 0.583932 0.239124
53 1 0.691703 0.883107 0.0310717
50 1 0.579579 0.572464 0.422673
33 1 0.888421 0.904798 0.446626
47 1 0.986218 0.560866 0.480268
37 1 0.00644431 0.0424051 0.953001
17 1 0.201634 0.319995 0.57159
49 1 0.290282 0.0541851 0.729457
6 1 0.340357 0.245691 0.780006
40 1 0.0321459 0.400827 0.874231
8 1 0.209938 0.207704 0.940741
25 1 0.0727413 0.13025 0.769742
19 1 0.00481992 0.222493 0.561852
63 1 0.600676 0.254676 0.638772
9 1 0.846806 0.30284 0.775463
42 1 0.595623 0.305939 0.974135
54 1 0.533073 0.110833 0.835567
5 1 0.767207 0.47027 0.619759
18 1 0.816354 0.159916 0.978366
39 1 0.904777 0.0491363 0.667738
28 1 0.695289 0.0515403 0.690601
22 1 0.120163 0.513237 0.662549
52 1 0.289622 0.687583 0.534287
21 1 0.113414 0.879989 0.779771
7 1 0.0104114 0.626953 0.86886
32 1 0.325928 0.509377 0.882293
44 1 0.355266 0.863744 0.681366
14 1 0.18519 0.889982 0.522095
59 1 0.202366 0.652221 0.801392
12 1 0.507764 0.759649 0.52452
64 1 0.770404 0.506974 0.828647
4 1 0.538123 0.959398 0.517255
1 1 0.860191 0.672548 0.653009
43 1 0.746675 0.716825 0.90291
41 1 0.697585 0.822391 0.728142
46 1 0.504003 0.903681 0.870454
ITEM: TIMESTEP
9000
ITEM: NUMBER OF ATOMS
64
ITEM: BOX BOUNDS pp pp pp
6.4123344794148274e-02 1.0797276655205799e+01
6.4123344794148274e-02 1.0797276655205799e+01
6.4123344794148274e-02 1.0797276655205799e+01
ITEM: ATOMS id type xs ys zs
55 1 0.317419 0.206898 0.22299
2 1 0.150514 0.14204 0.432216
11 1 0.484993 0.499089 0.144723
58 1 0.39529 0.11213 0.426461
35 1 0.0821794 0.274732 0.0177902
34 1 0.0832553 0.469636 0.37755
19 1 0.258599 0.41464 0.167437
29 1 0.672834 0.418585 0.0222425
24 1 0.957987 0.0975414 0.287225
31 1 0.533598 0.234248 0.304186
51 1 0.75635 0.326088 0.433874
37 1 0.915134 0.15898 0.0773848
42 1 0.725625 0.237625 0.177063
39 1 0.966019 0.317763 0.317556
16 1 0.173455 0.663673 0.0215173
56 1 0.30999 0.577243 0.332362
23 1 0.305028 0.921391 0.12624
30 1 0.121766 0.757347 0.243815
36 1 0.0634604 0.507464 0.0422473
15 1 0.376877 0.707406 0.116267
49 1 0.355023 0.914687 0.397847
44 1 0.0988711 0.939955 0.379735
45 1 0.588448 0.927623 0.236069
10 1 0.574454 0.70118 0.164646
57 1 0.794731 0.961526 0.494931
62 1 0.852753 0.765437 0.0374842
26 1 0.800477 0.873238 0.253975
13 1 0.539133 0.809368 0.402956
60 1 0.69688 0.531119 0.331331
50 1 0.514029 0.594142 0.386989
52 1 0.923349 0.658316 0.288293
64 1 0.858576 0.535923 0.143676
46 1 0.530877 0.951796 0.0285557
20 1 0.416461 0.37673 0.84893
27 1 0.458922 0.227058 0.991569
38 1 0.307603 0.22096 0.597205
3 1 0.413704 0.00793229 0.644749
17 1 0.0289464 0.310527 0.588238
8 1 0.17494 0.263506 0.805535
25 1 0.227856 0.0215546 0.922293
63 1 0.49056 0.345983 0.64948
28 1 0.442854 0.0447904 0.855113
7 1 0.233417 0.494113 0.811146
61 1 0.600916 0.175127 0.772582
9 1 0.833997 0.38878 0.883845
18 1 0.830205 0.166065 0.740717
22 1 0.804422 0.384275 0.659382
32 1 0.627169 0.472489 0.550762
4 1 0.610438 0.0466464 0.553772
40 1 0.0320216 0.982596 0.975975
5 1 0.170844 0.685098 0.507602
21 1 0.227203 0.885052 0.679086
14 1 0.0663859 0.722555 0.700485
59 1 0.332676 0.697567 0.87316
41 1 0.432562 0.682169 0.615515
48 1 0.625114 0.817541 0.619456
53 1 0.806738 0.985329 0.978381
33 1 0.9168 0.964494 0.728047
47 1 0.793984 0.616889 0.674437
6 1 0.519216 0.556532 0.805095
54 1 0.618434 0.866705 0.844355
12 1 0.951243 0.562687 0.510943
1 1 0.709264 0.633947 0.904322
43 1 0.949362 0.644392 0.888083
ITEM: TIMESTEP
10000
ITEM: NUMBER OF ATOMS
64
ITEM: BOX BOUNDS pp pp pp
7.2846677307003560e-03 1.0854115332269178e+01
7.2846677307003560e-03 1.0854115332269178e+01
7.2846677307003560e-03 1.0854115332269178e+01
ITEM: ATOMS id type xs ys zs
55 1 0.276171 0.403135 0.325733
29 1 0.0587288 0.496409 0.06469
24 1 0.19634 0.124204 0.18501
49 1 0.400647 0.170502 0.289361
44 1 0.165857 0.133951 0.486359
28 1 0.418284 0.0498956 0.0899225
9 1 0.0323735 0.401609 0.261915
6 1 0.397231 0.491133 0.143858
58 1 0.678987 0.30295 0.311377
35 1 0.881986 0.184119 0.281732
31 1 0.590564 0.299102 0.115004
42 1 0.764302 0.196427 0.01883
46 1 0.624578 0.111669 0.219464
17 1 0.563748 0.058211 0.457923
33 1 0.986905 0.126116 0.0766568
30 1 0.0596029 0.675256 0.495019
13 1 0.348747 0.785639 0.266463
64 1 0.246908 0.642905 0.0742508
3 1 0.231186 0.792919 0.492759
40 1 0.285777 0.989346 0.364625
14 1 0.25118 0.599173 0.380932
48 1 0.475892 0.543273 0.333506
43 1 0.0824977 0.69514 0.180128
36 1 0.962653 0.910937 0.0904088
15 1 0.547529 0.854897 0.356367
45 1 0.742694 0.983838 0.328983
10 1 0.712799 0.571887 0.0558972
62 1 0.960949 0.831929 0.299381
52 1 0.801966 0.767734 0.414094
32 1 0.686474 0.642549 0.272779
1 1 0.809304 0.750088 0.0955142
2 1 0.148655 0.317653 0.973191
34 1 0.056957 0.258701 0.77467
16 1 0.164854 0.00162441 0.67892
56 1 0.407475 0.278357 0.511293
27 1 0.289294 0.158784 0.868959
7 1 0.163516 0.484809 0.559943
18 1 0.363272 0.0661263 0.652529
21 1 0.279805 0.388581 0.790792
41 1 0.00680789 0.343057 0.566209
51 1 0.797077 0.127307 0.516452
37 1 0.712953 0.143307 0.805629
60 1 0.790148 0.343373 0.539743
50 1 0.543061 0.466749 0.979797
20 1 0.501247 0.327984 0.782601
25 1 0.871048 0.0228446 0.844744
63 1 0.59682 0.46235 0.529101
22 1 0.837496 0.325061 0.748878
53 1 0.642993 0.0363846 0.650306
19 1 0.230531 0.820994 0.77568
23 1 0.320919 0.894135 0.963306
38 1 0.482456 0.853809 0.726957
8 1 0.00600366 0.623478 0.831426
61 1 0.372974 0.553366 0.631373
4 1 0.443151 0.756008 0.548036
5 1 0.274623 0.612308 0.823976
11 1 0.528349 0.603588 0.827307
39 1 0.966851 0.992414 0.566267
57 1 0.872603 0.779395 0.82734
26 1 0.780382 0.861258 0.60532
59 1 0.545553 0.806721 0.938688
47 1 0.663275 0.680458 0.621589
54 1 0.722457 0.93042 0.9954
12 1 0.805761 0.550564 0.732531
ITEM: TIMESTEP
11000
ITEM: NUMBER OF ATOMS
64
ITEM: BOX BOUNDS pp pp pp
2.3074843908155174e-02 1.0838325156091726e+01
2.3074843908155174e-02 1.0838325156091726e+01
2.3074843908155174e-02 1.0838325156091726e+01
ITEM: ATOMS id type xs ys zs
55 1 0.170139 0.311901 0.225889
46 1 0.375171 0.0946808 0.149174
14 1 0.359279 0.426378 0.115144
45 1 0.124 0.0751823 0.368505
7 1 0.252059 0.294818 0.433349
41 1 0.159128 0.481982 0.382917
20 1 0.409928 0.245347 0.289317
54 1 0.0615987 0.189839 0.0585317
6 1 0.973536 0.396212 0.267406
58 1 0.508019 0.492549 0.303262
35 1 0.768218 0.440468 0.249694
48 1 0.734426 0.25844 0.0454779
27 1 0.631437 0.255581 0.315251
51 1 0.89535 0.196845 0.430172
60 1 0.757594 0.382971 0.474882
53 1 0.879616 0.0915463 0.142914
8 1 0.69464 0.0557966 0.420519
17 1 0.357537 0.865831 0.45283
13 1 0.107491 0.754571 0.22173
64 1 0.285237 0.648286 0.134462
40 1 0.103788 0.995768 0.151412
43 1 0.0315731 0.862461 0.382108
23 1 0.337187 0.870354 0.208899
29 1 0.998547 0.625775 0.391184
31 1 0.567498 0.953708 0.131879
1 1 0.500436 0.554229 0.0286211
63 1 0.743748 0.845156 0.399963
57 1 0.665115 0.62698 0.171456
59 1 0.768015 0.839905 0.123518
24 1 0.120376 0.491401 0.900906
49 1 0.439276 0.218908 0.912953
9 1 0.0412219 0.324371 0.564104
3 1 0.12442 0.208442 0.723653
36 1 0.0836315 0.00756985 0.930079
10 1 0.314437 0.392135 0.809312
34 1 0.340903 0.182215 0.701049
18 1 0.293946 0.0375472 0.930747
21 1 0.232311 0.308635 0.992329
19 1 0.254511 0.0486198 0.54616
12 1 0.498845 0.340409 0.502371
44 1 0.553468 0.127734 0.736983
42 1 0.925298 0.293595 0.914549
2 1 0.883485 0.489821 0.88621
37 1 0.86957 0.25338 0.700266
22 1 0.749209 0.0651987 0.683398
61 1 0.569709 0.403727 0.892296
11 1 0.747566 0.463334 0.725498
26 1 0.613371 0.0800974 0.938515
33 1 0.0704552 0.666346 0.978453
30 1 0.206241 0.677775 0.506299
15 1 0.412829 0.814248 0.991121
16 1 0.159843 0.816424 0.828617
50 1 0.339504 0.501809 0.567534
4 1 0.379235 0.763766 0.795644
5 1 0.237148 0.63212 0.700243
39 1 0.0123371 0.721983 0.611657
28 1 0.77631 0.665029 0.877532
62 1 0.78337 0.748723 0.586474
52 1 0.576319 0.76441 0.702508
32 1 0.517491 0.950115 0.567823
56 1 0.546446 0.550717 0.601276
25 1 0.930991 0.861669 0.861643
38 1 0.730662 0.903398 0.810381
47 1 0.877183 0.549684 0.568846
ITEM: TIMESTEP
12000
ITEM: NUMBER OF ATOMS
64
ITEM: BOX BOUNDS pp pp pp
-8.5640451681937790e-02 1.0947040451681804e+01
-8.5640451681937790e-02 1.0947040451681804e+01
-8.5640451681937790e-02 1.0947040451681804e+01
ITEM: ATOMS id type xs ys zs
55 1 0.120009 0.211581 0.168538
14 1 0.378363 0.297356 0.273929
54 1 0.00848617 0.0204642 0.0555977
51 1 0.0770956 0.273131 0.402035
17 1 0.32179 0.0251298 0.47862
1 1 0.447595 0.0435754 0.0592369
24 1 0.0617694 0.48772 0.0736563
49 1 0.303979 0.264563 0.0440028
2 1 0.258573 0.365072 0.480445
20 1 0.560704 0.297096 0.403571
35 1 0.838696 0.354939 0.0436558
60 1 0.673652 0.446361 0.311739
8 1 0.504198 0.0695378 0.344888
40 1 0.90266 0.138637 0.229119
42 1 0.861237 0.33311 0.321881
61 1 0.834263 0.127122 0.00275491
30 1 0.572446 0.293136 0.0564523
25 1 0.702824 0.0538584 0.461391
45 1 0.018398 0.910496 0.433619
13 1 0.0966834 0.984524 0.233972
64 1 0.184464 0.649305 0.137703
36 1 0.333753 0.847755 0.0842839
10 1 0.416719 0.531596 0.389888
18 1 0.147517 0.887318 0.046158
21 1 0.347066 0.596127 0.0323785
50 1 0.461681 0.767334 0.348184
6 1 0.856505 0.569702 0.0941923
58 1 0.657975 0.503468 0.111592
31 1 0.510323 0.685352 0.164034
63 1 0.82047 0.766965 0.220077
47 1 0.675812 0.887895 0.379965
46 1 0.0708653 0.296455 0.982961
9 1 0.135254 0.320386 0.645451
34 1 0.460239 0.484979 0.664341
19 1 0.116785 0.0914964 0.50283
44 1 0.205386 0.102342 0.725047
33 1 0.236385 0.386549 0.87778
15 1 0.312045 0.0146642 0.884479
28 1 0.0391153 0.477649 0.774603
56 1 0.464134 0.478434 0.880635
7 1 0.878989 0.321235 0.535841
53 1 0.927958 0.00516831 0.832782
3 1 0.956098 0.26772 0.801446
12 1 0.615776 0.179132 0.610323
37 1 0.717096 0.456013 0.884525
11 1 0.703632 0.375982 0.66731
41 1 0.0847124 0.706056 0.577185
48 1 0.40709 0.946627 0.668959
27 1 0.0286996 0.503555 0.546584
29 1 0.253431 0.824713 0.590168
59 1 0.15161 0.617893 0.910915
16 1 0.102494 0.925069 0.713575
4 1 0.218827 0.822246 0.866355
5 1 0.323473 0.666265 0.744116
43 1 0.876791 0.831086 0.583214
23 1 0.513965 0.802187 0.530468
57 1 0.76998 0.691666 0.884872
22 1 0.773825 0.996021 0.664454
26 1 0.527229 0.809034 0.960088
39 1 0.860494 0.616143 0.654539
62 1 0.618257 0.548043 0.520724
52 1 0.671677 0.739177 0.679318
32 1 0.517756 0.66641 0.818008
38 1 0.936452 0.798293 0.946444
ITEM: TIMESTEP
13000
ITEM: NUMBER OF ATOMS
64
ITEM: BOX BOUNDS pp pp pp
-1.6278825296424770e-02 1.0877678825296218e+01
-1.6278825296424770e-02 1.0877678825296218e+01
-1.6278825296424770e-02 1.0877678825296218e+01
ITEM: ATOMS id type xs ys zs
51 1 0.347725 0.454449 0.241224
18 1 0.160623 0.0644927 0.20057
31 1 0.416417 0.0110034 0.286503
63 1 0.122751 0.31262 0.139124