LAMMPS data file via write_data, version 23 Jun 2022, timestep = 1000

64 atoms
1 atom types

-0.3630215799303036 11.224421579929938 xlo xhi
-0.3630215799303036 11.224421579929938 ylo yhi
-0.3630215799303036 11.224421579929938 zlo zhi

Masses

1 28.0855

Atoms # atomic

18 1 3.515265549108543 1.8424335276779753 3.269134349530244 0 0 0
7 1 3.184874752959023 3.5787156732355756 1.5643734974070593 0 0 0
41 1 1.4969196447457462 2.7218263364190176 0.37443545231692554 0 0 0
40 1 5.298737329484224 3.3070003397235537 4.439922285142575 0 0 0
27 1 3.8588677288793294 5.035930723402096 3.5942484743008096 0 0 0
1 1 0.5260640210114503 3.276402990576632 2.8919539094892013 0 0 0
61 1 2.1828032999695917 1.9671132700205125 4.993746201553573 0 0 0
5 1 3.998067219275682 0.24439038262298796 1.5093193357826373 1 0 1
53 1 7.849964935412113 2.9400352926306246 4.353256258466119 -1 0 0
36 1 8.407709815886516 5.324506877698807 5.0339886954109065 0 0 0
26 1 10.474722255921453 2.9596673703238756 1.4326632609321197 0 0 0
64 1 8.949235175426079 1.2087256974326563 0.7266430751715101 0 0 0
25 1 10.216889208237852 3.385632733163908 4.544637360565019 0 0 0
62 1 9.382887800172345 5.045983046395673 2.1733265678447053 -1 0 0
4 1 7.043376124804673 2.0632404346921818 1.7505408163247247 0 0 1
9 1 8.06321999811534 3.633659126205229 0.6218627156694013 0 0 1
55 1 3.967340486422681 9.896177807527717 0.38624474839443335 0 -1 0
20 1 3.888725625554067 9.342191915510998 4.732023264671487 0 0 0
30 1 3.140316502502743 6.180177139478553 1.804974199655399 0 0 0
21 1 1.3071058316952737 7.188207815936993 2.1566095688798392 0 0 0
60 1 4.300070098962772 9.690102631546267 2.541217030130638 0 0 0
47 1 1.8922351133815023 9.312861311624278 3.5365301428321265 0 0 0
32 1 2.114291479171869 11.096644377742887 4.930102001361031 0 0 0
8 1 0.15530098032980955 9.156031295277241 1.8432122983268857 1 0 0
43 1 3.5143795912563505 7.516271887077749 3.452213950289216 0 0 1
16 1 10.929428067792912 10.906829512934387 0.40774287201090564 0 -1 0
15 1 10.495369732538805 7.1333671752697505 2.6601190831721544 -1 0 0
6 1 8.677958458575091 10.692836882654714 3.4672230449021684 0 0 0
54 1 9.373080278666386 9.607891662037076 1.4972521634171092 0 0 0
39 1 7.329684000803782 8.811625656107346 2.8774068170317677 0 0 0
59 1 6.2860790511305416 10.226235141573436 4.2145624778537005 0 0 0
29 1 8.265541083728717 6.744572482080326 3.0899711401180565 0 0 0
38 1 1.8140363752657325 1.8380750797972163 9.76064357919158 0 0 -1
48 1 1.8083922335680582 4.109812429256893 8.669682213200161 0 0 0
23 1 2.3485155672167637 3.883361396836283 6.330086942616734 0 0 0
13 1 0.017349407647948012 4.14833376827058 6.955796768689476 0 0 0
12 1 3.041152254682624 -0.19146656971353074 8.513249792864155 0 0 0
19 1 2.910348676453233 2.0150895161648292 7.752003923084573 0 0 0
2 1 3.143123190775669 4.682401339229377 11.08928821368379 0 0 0
44 1 11.132717129016097 1.7371373223709043 11.133602600219632 0 0 -1
28 1 8.973093100386986 2.1148278029798835 6.119202695909519 0 0 0
58 1 5.507721008386618 4.174941746980016 8.248244073251922 0 0 0
33 1 8.478031924892797 1.3599182551156002 9.216683990972644 0 1 0
3 1 7.13873931199453 2.645273221365532 7.516833478932418 0 0 0
17 1 6.288516263612252 4.573772382978129 6.312111407931196 0 0 0
63 1 5.762483785020503 4.965280707199497 10.61995670881224 0 0 0
10 1 9.599358163199401 0.20891953040338607 7.354555792065096 0 0 0
49 1 5.1270077075318765 10.421149096182283 8.952969041561726 0 0 -1
51 1 2.9208150663355013 9.23961501261794 9.293861796558502 0 0 -1
35 1 3.615499841193716 5.543308746834172 9.078709697209593 0 0 0
34 1 1.4443756647089636 10.082101110730804 7.192285430927248 0 0 0
45 1 0.30147578338714387 6.455030729375926 6.786037705343759 0 0 0
22 1 1.830230977014578 6.95054419988111 8.79237069710883 0 0 0
50 1 0.052600490865937044 8.381897889620998 8.372516423066763 1 0 0
14 1 6.700722465344275 6.741200670210364 9.42075630732958 0 0 -1
42 1 5.772309157647039 10.861255967661023 6.413736726499412 0 0 0
56 1 9.814610338489505 5.740011917945379 7.004966024689828 0 0 0
52 1 7.078455081071422 10.756258144295334 10.21078711393774 0 -1 0
11 1 8.522221891949126 9.156491949409592 10.89770163827092 0 -1 0
57 1 8.370300991769707 10.317020733249496 6.092054096710188 0 0 0
37 1 8.124791069758668 5.5266879507613975 10.593700471599949 0 0 0
24 1 6.084282676801981 8.856281609325247 10.616831737055406 0 0 0
46 1 9.325115519719908 7.244896818888528 8.988687259195348 0 0 0
31 1 9.438315034150921 9.480641880144955 8.188230250686562 0 0 0

Velocities

18 1.7609771349936705 3.475808141325845 8.073610299373268
7 -1.8977373765532752 -2.801210242452652 6.334519509020846
41 4.204761272687543 -11.667743968601561 7.992879412083498
40 6.654125866988997 9.473985656256675 5.117385189410105
27 -17.440758996711253 -0.8825910280188487 7.95029509544435
1 6.7036120609838825 11.118967055709005 4.687337764495556
61 1.0513055410076075 0.6379661001899598 -11.376117571491003
5 9.380107164532001 -6.422488546564597 7.763690183033635
53 3.599862646734624 4.644007298408552 -5.025661857938521
36 5.313708943306365 -1.1873131569208994 17.38308729123772
26 -3.382352771790877 9.94640430431944 -3.176237165951967
64 -2.9002406730705292 5.003732165114935 -6.397624532866324
25 -3.979009485622417 3.389207046955489 -4.763698393623123
62 -7.675422882945471 0.08574784787222221 5.199749702232939
4 6.473608243879231 1.258726052015511 -0.24256139056888604
9 -6.905618456071695 0.9881581373336421 1.1790555983550008
55 -2.083694217048672 -10.046931062532055 -4.6777654321538025
20 -5.500717769920043 1.4547020155738455 0.8937737232910816
30 5.007579496795212 -7.652166775675237 -1.0577102574137516
21 -4.34720165049866 -15.170283612699626 -4.671845289418185
60 4.96081278719666 -1.1333267441194566 -7.046021944944158
47 1.9553851073725614 -3.5621712680250543 -9.954997758113022
32 4.088084277866989 -2.4059016837907805 8.533916746317916
8 -0.26944549650618616 -0.15978421730178102 3.37081284668642
43 9.299202536012187 -0.5878791240296902 10.275931210519277
16 -2.7635794288702873 -16.238499090833567 1.196187628604343
15 6.163657223719499 -0.4194992575912619 -7.31185101743375
6 -10.046932023555996 9.081048038229145 -0.8351699610572575
54 8.012170013549085 10.247297963474175 0.8574657514807975
39 -4.624227600727219 -2.26365587489326 -0.0717285350198543
59 -16.483952008023802 4.171915064262824 -5.019656332553579
29 3.530049450179134 -4.666965669249148 3.1128899558664336
38 0.5995821728482459 7.056654528345714 -8.668253538548788
48 -5.121466185088947 -6.437703386943658 10.375436841526803
23 -9.583332561290446 4.267718382746268 -2.98096823444297
13 -6.945666902418239 -7.804872206694043 0.11728681053368482
12 10.755046645605095 5.621386300949347 3.6020440195966996
19 1.1688564957165282 -14.391772222254817 7.157065554889793
2 -6.459693931774161 5.698857619980206 -8.757373394428415
44 -0.33630914104249876 0.6318121939999212 6.189276061599396
28 -0.9796827664315089 1.7864216389555503 -6.0568756435017415
58 -0.5130347962827279 6.187748253608625 -9.341465116156288
33 13.012777846404944 -5.653531309429869 6.91202841054218
3 -8.163770565741187 -7.048458529612107 7.375262766856938
17 -4.412258274546054 9.538044367306798 -17.331573247595887
63 11.965235698667804 1.5665770110104238 1.2083384572641727
10 7.196353886196584 3.3916891563628897 4.841995719198885
49 3.1598065624207226 0.15437571150662474 -5.6354618102942124
51 8.359155744708193 -8.873951816280082 5.18798848751021
35 2.725034312517305 4.0884088897494735 -5.087743049241832
34 7.938242159620024 0.7737658344188072 -1.8163920794312147
45 -6.423768945196481 -7.9220719425861175 -3.9612771970432052
22 -12.251235889122983 2.035005543443693 12.640246233915606
50 -0.559400824128849 -2.9915093551982155 -15.50681262892178
14 3.868041751300886 -3.7974095693194134 0.79403078250849
42 -7.111813661201138 10.85970031098724 -5.51633383833494
56 -9.86930705650542 9.588549104775876 -3.543281531765296
52 12.14358458017557 6.6453117001474205 -9.049198217910867
11 -1.7110051139968148 -0.1040098119897428 4.5956019774097
57 -13.415194992437959 13.6996180354706 10.612027982649108
37 -4.77419091597038 -2.2477037117524343 0.07595179488489648
24 4.135965580783852 -3.9290405337572625 1.5369911884962897
46 7.078277854827151 -2.5020704856190075 -3.7204280152220495
31 6.667052301493876 -7.596801266070904 -4.542076013449261
