LAMMPS data file via write_data, version 23 Jun 2022, timestep = 100000

64 atoms
1 atom types

-0.016712732525181906 10.99671273252575 xlo xhi
-0.016712732525181906 10.99671273252575 ylo yhi
-0.016712732525181906 10.99671273252575 zlo zhi

Masses

1 28.0855

Atoms # atomic

5 1 1.4578902017016273 1.380609818671549 1.3083676186942674 0 0 0
6 1 1.4119825252325129 4.051228431132762 4.219724133973929 0 0 0
7 1 4.112181828371638 1.2180869056187011 4.2824839262889425 0 0 0
8 1 4.021272938996114 4.072392129217796 1.4084168170153109 0 0 0
2 1 0.0030517887722962996 2.663126161564492 2.726017095995842 0 0 0
10 1 5.407076524721653 2.7372926352112006 2.7940466078219814 0 0 0
3 1 2.8121737026486406 0.023598842470593677 2.7352593295585312 0 0 0
19 1 2.669470649724228 5.3944757733890745 2.6914370097376135 0 0 0
9 1 5.513945081628457 0.07189862378365645 0.041789269599709654 0 0 0
13 1 6.869071200086172 1.3659694004817602 1.3952484997183339 0 0 0
14 1 6.796646481831527 4.28602208862751 4.108885163486828 0 0 0
15 1 9.55383169564205 1.402383106632436 4.107667958619063 0 0 0
16 1 9.7000634372492 4.100056583020407 1.3608263762810644 0 0 0
12 1 8.257052064060629 2.749208070114949 0.02604880153818736 0 0 0
27 1 8.355681106569719 5.380870507600121 2.723804535526489 0 0 0
33 1 10.92039207167421 0.004850454318752102 5.401386526660595 -1 0 0
21 1 1.3682037441318937 6.879128418463937 1.3736821423750343 0 0 0
22 1 1.2662721325498296 9.635814849082621 3.985402342503175 0 0 0
23 1 4.0185949260580385 6.861376903054102 3.9660856752508473 0 0 0
24 1 4.225078853720991 9.7349035919099 1.4363310006513443 0 0 0
26 1 5.435101802427789 8.295362350242145 2.6854338837853122 0 0 0
57 1 5.444271257366676 5.684090563209801 5.425325231806248 0 0 0
52 1 2.7603584854624628 8.256112676482905 5.343089594644362 0 0 0
1 1 0.09012631104980606 10.913053684657312 0.03350703644265174 0 -1 0
25 1 5.594088377126099 5.493808867969775 0.15884822522063116 0 0 0
18 1 10.975475749099628 8.148780368302614 2.6457742325610902 -1 0 0
11 1 8.296988963021086 10.875078488952735 2.7300859889002536 0 -1 0
29 1 6.989812307479057 6.912574841102143 1.4592571035421562 0 0 0
30 1 6.8992913534784 9.59814415868906 4.096704250496302 0 0 0
31 1 9.750751656151685 6.749293780143595 4.0874046658245256 0 0 0
32 1 9.660240950279208 9.530891939329281 1.258751213646661 0 0 0
60 1 8.28639998654626 8.207931640771594 5.455689653841195 0 0 0
4 1 2.7008903244383484 2.912089238707469 10.851556212707655 0 0 -1
36 1 2.786501847985522 2.651092899866833 5.634964227190601 0 0 0
37 1 1.2627072483993604 1.3887074417909313 6.886474863654216 0 0 0
38 1 1.2419532566966238 4.105885031268647 9.582664363713834 0 0 0
39 1 4.057073189425853 1.4343742892185682 9.66559313424818 0 0 0
40 1 4.1363715091404325 4.195701970771165 6.918755133677223 0 0 0
49 1 0.006821836286144568 5.413282973548161 5.514930144326537 0 0 0
35 1 2.6871543122406747 0.07287351282426989 8.239044182356059 0 0 0
51 1 2.6535209378085387 5.403723390917031 8.268969660267818 0 0 0
44 1 8.135276230082287 2.7927881775679784 5.541697687483783 0 0 0
34 1 10.836103042940074 2.71320369985614 8.327534967530916 -1 0 0
42 1 5.493399216639203 2.7433067509127964 8.289774089224425 0 0 0
45 1 6.877185813761282 1.3641770274232823 6.948238918405922 0 0 0
46 1 6.798037470446356 4.011314026847539 9.739977770046366 0 0 0
47 1 9.501604128729488 1.3085472082091674 9.757461591950056 0 0 0
48 1 9.633329384417104 4.179062765839046 6.937817924120832 0 0 0
20 1 2.879100814603237 8.294867321360847 10.974929228803177 0 0 -1
53 1 1.4719595296430357 6.825798316397208 6.799178862402583 0 0 0
54 1 1.4814440602053551 9.61402008284998 9.489206077648928 0 0 0
55 1 4.210188468113475 6.734252386346757 9.591722812733098 0 0 0
56 1 4.093852032003235 9.677401449667238 6.85500582458843 0 0 0
50 1 0.0046463143674182195 8.32980375980329 8.114692419036025 0 0 0
17 1 -0.00930308754051623 5.55636798311518 10.90404873202032 0 0 -1
58 1 5.377062562254947 8.308799998141913 8.235665440778277 0 0 0
59 1 8.076784400740184 5.512332295302662 8.304116281990616 0 0 0
28 1 8.226658333227803 8.297124588944989 10.862943728267911 0 0 -1
41 1 5.559827609120305 10.965272867991697 5.571290893120882 0 -1 0
43 1 8.357303239567916 10.923766431243457 8.324556984012798 0 -1 0
61 1 6.823768133187672 6.889851202174626 6.892109962906249 0 0 0
62 1 6.798887666668067 9.6324954825754 9.597654614597277 0 0 0
63 1 9.650473302129386 6.873248991216261 9.48738207469699 0 0 0
64 1 9.613151252370416 9.55604978310302 6.777259279494118 0 0 0

Velocities

5 0.27133514165606115 5.368486058323018 -0.8556292255984006
6 1.634297695903312 -2.7163470111840753 -2.0748901834637388
7 -6.081339264316778 -8.994691247084676 -5.560181404314598
8 -2.445130503771458 0.9327874620135368 2.963966184869739
2 0.8180638194515071 1.6668576191979454 -2.8311088696732436
10 -3.885450206045378 -1.4328315595753227 3.898127838180379
3 0.3629796592252738 -0.542515717318762 -0.013308155728068014
19 -2.835996622862377 0.9760096487553664 9.135611128963186
9 0.18965268409214525 -0.516222020565649 -1.938352822829453
13 1.1016632600814906 -0.5720870525454751 3.207380542035329
14 1.34039649093988 -6.59627506366992 1.112886235513756
15 3.3388055752888093 -0.727684826087679 -1.4673396163698949
16 3.5230066356618095 -2.370674826253363 -2.8164570016635806
12 -3.9892273158388813 -1.713604437031767 -2.4564767511286294
27 0.3000041788662106 -5.98563122025995 -3.7383549834627314
33 -0.34715491249156966 2.592689278024674 4.3787197174847465
21 -0.770705064184773 -4.482574110150515 -0.6120385965639741
22 2.5306136434850846 -1.5593504194621342 3.2299318732728706
23 -0.5079097241757308 -3.3609725062875455 0.655487489725271
24 -2.6908776378099653 4.722698373708581 -4.500092125912336
26 -0.03412910927364979 5.941734997136898 -2.80829901105649
57 -2.3546756668330535 0.3566879970357779 2.0632735596612686
52 1.5276261171746464 1.9489933848139986 3.4666806417158003
1 0.21913669849202538 -1.3208408957427487 4.3134943782063875
25 -5.8740472454414645 4.25907878131921 4.352379996310152
18 -2.928431477955833 -3.6541792744695405 0.2201727765890435
11 -1.3347789215865489 1.0039451019760208 -0.2617070682768968
29 -1.956033261165814 -4.255537353001637 0.9290234229203339
30 -2.841313607866492 0.9349296203056054 -1.5159549715079106
31 5.504958627224713 -4.819781352381023 1.7362544774160602
32 -1.5971445292894038 -2.5528111398093194 2.9248132152068878
60 3.4967177931494327 -3.1718759483043137 1.389527124519678
4 -0.46960232804319124 6.966916804995276 -3.7546614157045335
36 -2.5072079940244962 -0.5006435501993832 -0.46043619900281074
37 8.69776207395746 -3.667326905946273 -2.1700089684230366
38 -0.3924564735823717 3.051487217731779 5.663666138876032
39 -1.574879385125938 -0.275960745122187 -2.4542741671406976
40 4.592277185650806 2.3018009012927028 -8.87360915823237
49 -4.682698519988521 5.8000480349584995 -2.012665728113448
35 -3.7149848434617425 1.208375021763109 6.071023532704429
51 0.6764824828959471 -1.5438604111419882 -1.6965446025987907
44 -2.287103337622489 -0.004791669512281588 -2.316002058363255
34 -0.9971505924732634 1.6238875643718604 2.1682100617929163
42 2.3353597638420394 -2.788538456798089 1.964135670619404
45 -2.9234757286402506 -0.20176095743692346 0.7893244140438808
46 -1.0654248648397724 0.7057961965400645 -3.516978798956527
47 3.0943085493566316 5.468639711381136 -0.4712009353364832
48 -0.08176556024607981 0.11340046121342436 -0.26845065843108945
20 -1.9643279894500782 -2.031008753510665 -3.815309853624947
53 3.4765827922403107 2.993034027827655 -1.4074709725419865
54 0.07560697302192529 -6.484555518568535 -4.431218927702752
55 3.3465325848809515 4.763637617174864 0.9121540825314982
56 1.8080378276955598 5.598986194951624 4.66102552242903
50 2.136148514284843 -4.4732714623444805 -4.241986812239893
17 1.5067270838535443 1.6892614923701805 -2.208139510313575
58 1.6682215134958713 -1.2166697240405882 -1.9579596849757992
59 5.138926655522647 -1.5993352031813566 1.8821069029506898
28 1.929303387065808 3.915668486341764 1.6169073788206398
41 -2.2846646247389057 2.6415820136127155 -0.36523662859078
43 0.5341866261158503 0.36396202554550133 -1.7522593924647907
61 -0.3746747704800601 3.238822545336364 4.587771001416882
62 5.723759161512243 3.100613821904349 4.091494293738123
63 -2.9517714008764147 2.0108675490298413 -1.503496287097903
64 -2.1529477115820996 -2.127474671965171 -1.2574480551089988
