ITEM: TIMESTEP
0
ITEM: NUMBER OF ATOMS
64
ITEM: BOX BOUNDS pp pp pp
-7.3893175049910553e-05 1.0980073893175543e+01
-7.3893175049910553e-05 1.0980073893175543e+01
-7.3893175049910553e-05 1.0980073893175543e+01
ITEM: ATOMS id type xs ys zs
5 1 0.11803 0.121089 0.122347
6 1 0.12653 0.374021 0.372528
7 1 0.364876 0.115301 0.377207
8 1 0.374607 0.365989 0.124395
2 1 0.00203714 0.25071 0.250105
10 1 0.496434 0.246967 0.256328
4 1 0.239894 0.252348 0.00961664
13 1 0.614643 0.123608 0.128074
14 1 0.638365 0.368396 0.37182
15 1 0.882799 0.130016 0.382186
16 1 0.858431 0.381548 0.125106
11 1 0.746618 0.00937147 0.243422
27 1 0.745808 0.497245 0.255573
12 1 0.749803 0.235089 0.00250664
44 1 0.754293 0.255252 0.499834
57 1 0.502169 0.499835 0.49576
19 1 0.258139 0.501167 0.251611
1 1 0.00207408 0.99374 0.00597316
33 1 0.00493193 0.995922 0.49732
3 1 0.253346 0.989174 0.2351
21 1 0.127993 0.623742 0.139902
22 1 0.121491 0.875784 0.368611
23 1 0.37954 0.631614 0.373209
24 1 0.374069 0.867634 0.109869
52 1 0.248086 0.749724 0.499548
49 1 0.000659097 0.505102 0.492624
25 1 0.517627 0.500934 0.00638545
18 1 0.994399 0.752775 0.253223
26 1 0.507822 0.74791 0.241335
29 1 0.637722 0.628238 0.132872
30 1 0.634573 0.876696 0.369549
31 1 0.876394 0.624658 0.368403
32 1 0.861231 0.875703 0.115124
17 1 0.987605 0.510416 0.00863627
60 1 0.757618 0.754603 0.492902
36 1 0.246222 0.248838 0.506633
37 1 0.117162 0.129366 0.62405
38 1 0.129438 0.38225 0.884578
39 1 0.364428 0.133526 0.876143
40 1 0.376557 0.371194 0.62308
51 1 0.265563 0.498288 0.756647
42 1 0.490713 0.242207 0.74762
9 1 0.502351 0.00225722 0.988078
34 1 0.999877 0.261225 0.752927
45 1 0.62586 0.130237 0.621158
46 1 0.629118 0.364955 0.875265
47 1 0.884436 0.131077 0.876913
48 1 0.876986 0.383263 0.623056
59 1 0.746011 0.496426 0.74774
43 1 0.748954 0.00969456 0.75527
35 1 0.230302 0.999518 0.759322
20 1 0.258503 0.729344 0.994392
53 1 0.125999 0.624033 0.633925
54 1 0.126699 0.865619 0.885285
55 1 0.396445 0.617174 0.872525
56 1 0.363547 0.883599 0.627629
58 1 0.49813 0.757827 0.755093
41 1 0.49859 0.996159 0.505507
28 1 0.748221 0.745756 0.989391
50 1 0.997259 0.750304 0.757963
61 1 0.62369 0.637485 0.615023
62 1 0.620318 0.876379 0.86819
63 1 0.876509 0.626201 0.874861
64 1 0.871457 0.873478 0.622733
ITEM: TIMESTEP
1000
ITEM: NUMBER OF ATOMS
64
ITEM: BOX BOUNDS pp pp pp
-4.3346015410872241e-04 1.0980433460154579e+01
-4.3346015410872241e-04 1.0980433460154579e+01
-4.3346015410872241e-04 1.0980433460154579e+01
ITEM: ATOMS id type xs ys zs
5 1 0.122322 0.111949 0.129114
6 1 0.124909 0.362962 0.372103
7 1 0.36896 0.120157 0.383708
8 1 0.373812 0.380692 0.129146
10 1 0.490695 0.243764 0.258661
4 1 0.236019 0.262569 0.0116321
2 1 0.998424 0.24136 0.248517
13 1 0.615007 0.127347 0.128111
14 1 0.618341 0.368179 0.381429
15 1 0.883391 0.127782 0.382326
16 1 0.869109 0.365072 0.127125
11 1 0.755782 0.00479665 0.244021
27 1 0.739182 0.497669 0.249267
17 1 0.994208 0.499823 0.0101619
19 1 0.250007 0.504826 0.261458
3 1 0.251045 0.995647 0.250793
21 1 0.122144 0.624588 0.131004
22 1 0.131204 0.870954 0.380593
23 1 0.371047 0.636447 0.382782
24 1 0.375204 0.874799 0.118462
49 1 0.00993928 0.503016 0.491779
20 1 0.251764 0.735979 0.00604712
57 1 0.504827 0.508629 0.496179
18 1 0.998307 0.749362 0.254417
26 1 0.50291 0.753875 0.246178
29 1 0.626688 0.628072 0.113164
30 1 0.626341 0.879928 0.363987
31 1 0.878227 0.626894 0.379957
32 1 0.868325 0.871803 0.12004
60 1 0.748203 0.763468 0.49446
36 1 0.255517 0.239951 0.507048
37 1 0.125883 0.128301 0.63753
38 1 0.129185 0.3825 0.877976
39 1 0.366357 0.140916 0.880526
40 1 0.377752 0.38291 0.623106
9 1 0.488276 0.00562501 0.988872
34 1 0.002874 0.264557 0.764242
35 1 0.256423 0.000559939 0.753195
12 1 0.747342 0.249338 0.997733
44 1 0.757042 0.24945 0.500202
25 1 0.501823 0.493863 0.999307
42 1 0.503943 0.24677 0.750906
45 1 0.62978 0.125678 0.626721
46 1 0.628485 0.373261 0.869138
47 1 0.879 0.129427 0.874337
48 1 0.871186 0.377669 0.623846
59 1 0.740347 0.499659 0.740024
43 1 0.755028 0.00311215 0.75122
41 1 0.502475 0.00743603 0.503009
1 1 0.00107924 0.990504 0.985371
33 1 0.00795199 0.997056 0.507859
52 1 0.245606 0.754375 0.504454
51 1 0.251529 0.501812 0.75118
53 1 0.131796 0.620951 0.616549
54 1 0.13171 0.85608 0.874875
55 1 0.389634 0.623714 0.872524
56 1 0.36896 0.88102 0.621208
50 1 0.00382101 0.734933 0.741766
58 1 0.501825 0.747362 0.738929
28 1 0.74481 0.754521 0.987997
61 1 0.62484 0.630572 0.611148
62 1 0.624843 0.879803 0.865299
63 1 0.86664 0.613391 0.872733
64 1 0.879894 0.870513 0.632549
ITEM: TIMESTEP
2000
ITEM: NUMBER OF ATOMS
64
ITEM: BOX BOUNDS pp pp pp
-2.8223086100451766e-03 1.0982822308610483e+01
-2.8223086100451766e-03 1.0982822308610483e+01
-2.8223086100451766e-03 1.0982822308610483e+01
ITEM: ATOMS id type xs ys zs
5 1 0.131698 0.120354 0.110865
6 1 0.131476 0.366682 0.378139
7 1 0.377317 0.119263 0.372219
8 1 0.364136 0.383929 0.133811
4 1 0.241145 0.256043 0.00298734
2 1 0.00492207 0.232962 0.249328
36 1 0.249074 0.250237 0.498832
9 1 0.498058 0.00868088 0.0061491
25 1 0.490615 0.499058 0.00305667
10 1 0.503991 0.252867 0.25354
13 1 0.62024 0.126403 0.121216
14 1 0.625968 0.370665 0.377031
15 1 0.880157 0.114458 0.376081
16 1 0.866614 0.373272 0.130485
11 1 0.755587 0.00345709 0.240616
49 1 0.993869 0.495399 0.488633
12 1 0.745991 0.249208 0.00372726
44 1 0.750018 0.246519 0.494947
41 1 0.50857 0.0107166 0.498637
19 1 0.235636 0.501051 0.258986
3 1 0.236334 0.995832 0.244191
21 1 0.117729 0.627742 0.121996
22 1 0.115735 0.877299 0.38169
23 1 0.3787 0.628469 0.368796
24 1 0.378801 0.876169 0.12274
20 1 0.256058 0.75435 0.00754764
57 1 0.487316 0.501384 0.492385
18 1 0.00221762 0.747756 0.257068
52 1 0.245197 0.750223 0.497553
27 1 0.740791 0.502105 0.248899
17 1 0.990522 0.503407 0.00643201
26 1 0.515125 0.751764 0.245674
29 1 0.631106 0.624561 0.12022
30 1 0.630452 0.879697 0.362329
31 1 0.85847 0.627274 0.374288
32 1 0.879618 0.872071 0.118649
60 1 0.752551 0.758533 0.492072
37 1 0.136824 0.127683 0.63371
38 1 0.124724 0.386048 0.880314
39 1 0.367005 0.13583 0.881319
40 1 0.374023 0.370984 0.630639
34 1 0.0022805 0.255709 0.75414
35 1 0.25547 0.00428592 0.75447
33 1 0.00506576 0.00865372 0.51598
51 1 0.252635 0.497149 0.750272
42 1 0.5019 0.249658 0.746077
45 1 0.631293 0.125132 0.629616
46 1 0.626999 0.376614 0.876734
47 1 0.87678 0.126958 0.879653
48 1 0.87821 0.365504 0.614923
1 1 0.00524988 0.995155 0.982843
53 1 0.126124 0.615097 0.616913
54 1 0.125504 0.857233 0.874505
55 1 0.370907 0.628355 0.872946
56 1 0.381602 0.883319 0.626968
50 1 0.00513638 0.733114 0.756333
59 1 0.752835 0.502012 0.740629
43 1 0.75132 0.987485 0.753992
58 1 0.50286 0.746073 0.752389
28 1 0.749838 0.756865 0.999073
61 1 0.626494 0.632795 0.61862
62 1 0.621854 0.8793 0.876814
63 1 0.870733 0.624517 0.884897
64 1 0.884531 0.868608 0.633414
ITEM: TIMESTEP
3000
ITEM: NUMBER OF ATOMS
64
ITEM: BOX BOUNDS pp pp pp
-1.4855317679811186e-02 1.0994855317680290e+01
-1.4855317679811186e-02 1.0994855317680290e+01
-1.4855317679811186e-02 1.0994855317680290e+01
ITEM: ATOMS id type xs ys zs
5 1 0.130758 0.126667 0.117353
6 1 0.119391 0.363147 0.372368
7 1 0.382334 0.118502 0.372505
8 1 0.371424 0.381829 0.123455
2 1 0.00110149 0.23984 0.244902
36 1 0.257892 0.244677 0.49193
10 1 0.498086 0.259467 0.255433
9 1 0.501212 0.00344825 0.00564141
13 1 0.624065 0.136881 0.127208
14 1 0.621029 0.376527 0.38331
15 1 0.87853 0.122452 0.378338
16 1 0.871899 0.363645 0.119057
11 1 0.751967 0.00409311 0.246656
49 1 0.994854 0.495906 0.49417
44 1 0.742172 0.230819 0.496411
27 1 0.746939 0.492951 0.252759
19 1 0.244852 0.509521 0.253765
3 1 0.245987 0.999234 0.254611
21 1 0.123889 0.64001 0.130753
22 1 0.123953 0.881805 0.384879
23 1 0.37698 0.628566 0.379312
24 1 0.370176 0.883408 0.128126
41 1 0.50514 0.998572 0.498856
18 1 0.99373 0.76118 0.259702
17 1 0.996015 0.50102 0.01085
26 1 0.511613 0.749377 0.249323
29 1 0.623219 0.623173 0.126395
30 1 0.639116 0.874145 0.37423
31 1 0.862945 0.630911 0.373943
32 1 0.880956 0.874714 0.117916
4 1 0.249768 0.25734 0.99249
37 1 0.131461 0.136529 0.631035
38 1 0.118081 0.382275 0.875515
39 1 0.38198 0.124347 0.877791
40 1 0.375264 0.374389 0.617649
34 1 0.000964263 0.25375 0.74977
35 1 0.262353 0.00455444 0.745603
51 1 0.245967 0.498799 0.743675
25 1 0.501607 0.496196 0.993286
12 1 0.748064 0.257285 0.996004
33 1 0.999674 0.00528481 0.513609
42 1 0.512393 0.252071 0.757405
45 1 0.626034 0.118217 0.63421
46 1 0.629679 0.380715 0.87901
47 1 0.869304 0.126615 0.870682
48 1 0.868008 0.375763 0.617143
59 1 0.748755 0.496648 0.743375
20 1 0.243663 0.745255 0.997037
52 1 0.246495 0.742466 0.501294
1 1 0.0043234 0.998235 0.985781
53 1 0.125857 0.623736 0.609382
54 1 0.139614 0.868163 0.867002
55 1 0.373238 0.621994 0.876194
56 1 0.37261 0.872293 0.618292
50 1 0.00264306 0.745249 0.751814
57 1 0.502031 0.505772 0.501528
60 1 0.738993 0.744239 0.513179
43 1 0.74932 0.990445 0.755181
58 1 0.500173 0.756223 0.743699
28 1 0.754791 0.742351 0.998692
61 1 0.61912 0.625333 0.63146
62 1 0.622721 0.867788 0.881001
63 1 0.875011 0.620629 0.873066
64 1 0.867815 0.872569 0.63299
ITEM: TIMESTEP
4000
ITEM: NUMBER OF ATOMS
64
ITEM: BOX BOUNDS pp pp pp
-1.8857808054851155e-02 1.0998857808055334e+01
-1.8857808054851155e-02 1.0998857808055334e+01
-1.8857808054851155e-02 1.0998857808055334e+01
ITEM: ATOMS id type xs ys zs
5 1 0.127899 0.12527 0.116248
6 1 0.129002 0.376281 0.367012
7 1 0.376221 0.128738 0.377259
8 1 0.365503 0.381672 0.115605
2 1 0.00944962 0.24888 0.242447
36 1 0.243391 0.256829 0.496036
10 1 0.496921 0.252491 0.243384
49 1 0.000995196 0.493611 0.488029
3 1 0.252507 0.00528844 0.249603
13 1 0.626068 0.136135 0.134027
14 1 0.625396 0.370126 0.377305
15 1 0.872149 0.122585 0.378315
16 1 0.885368 0.37771 0.122489
11 1 0.747027 0.0049566 0.247272
27 1 0.756296 0.499926 0.260161
33 1 0.995465 0.00901238 0.497859
9 1 0.49927 0.993753 0.00934587
19 1 0.252193 0.505123 0.250529
21 1 0.126599 0.636936 0.135047
22 1 0.121752 0.880147 0.375522
23 1 0.370264 0.62394 0.370118
24 1 0.373725 0.872256 0.129165
17 1 0.0149231 0.502967 0.00221108
26 1 0.499827 0.744816 0.246459
20 1 0.248402 0.74429 0.000942103
52 1 0.239274 0.743358 0.497089
41 1 0.504628 0.986515 0.489587
18 1 0.997852 0.761459 0.255437
29 1 0.637558 0.621769 0.132621
30 1 0.631794 0.863558 0.370435
31 1 0.872783 0.628638 0.383023
32 1 0.874491 0.882424 0.118451
28 1 0.759966 0.73642 0.0041023
4 1 0.248906 0.255117 0.994054
37 1 0.125614 0.135382 0.612464
38 1 0.121446 0.372375 0.875972
39 1 0.385086 0.123243 0.886624
40 1 0.372822 0.371313 0.624667
35 1 0.254052 0.0132756 0.743091
51 1 0.246489 0.498486 0.742442
57 1 0.498424 0.498957 0.504043
44 1 0.743523 0.245775 0.503639
34 1 0.99392 0.247484 0.73872
12 1 0.749453 0.244775 0.999986
42 1 0.503475 0.248326 0.754008
45 1 0.621975 0.111449 0.617057
46 1 0.627813 0.370409 0.874269
47 1 0.876811 0.125145 0.872372
48 1 0.870557 0.370267 0.614726
59 1 0.761661 0.499599 0.754278
1 1 0.00966771 0.999445 0.995859
53 1 0.118064 0.618964 0.624612
54 1 0.134944 0.886681 0.869952
55 1 0.357016 0.61636 0.876096
56 1 0.365462 0.87525 0.621593
50 1 0.0036789 0.761868 0.75211
58 1 0.491111 0.750937 0.758673
25 1 0.500017 0.506592 0.995715
60 1 0.746298 0.748016 0.510006
43 1 0.736888 0.996227 0.766585
61 1 0.620375 0.624054 0.633163
62 1 0.617973 0.860425 0.88966
63 1 0.893118 0.626178 0.878401
64 1 0.868405 0.879744 0.632027
ITEM: TIMESTEP
5000
ITEM: NUMBER OF ATOMS
64
ITEM: BOX BOUNDS pp pp pp
-1.6273555580143650e-02 1.0996273555580668e+01
-1.6273555580143650e-02 1.0996273555580668e+01
-1.6273555580143650e-02 1.0996273555580668e+01
ITEM: ATOMS id type xs ys zs
5 1 0.124109 0.120867 0.12513
6 1 0.125344 0.379037 0.377212
7 1 0.372321 0.125156 0.378647
8 1 0.384709 0.378919 0.108774
2 1 0.000302443 0.247613 0.242461
3 1 0.255031 0.000522079 0.257456
10 1 0.502043 0.249284 0.24763
13 1 0.625986 0.134586 0.125711
14 1 0.621798 0.378186 0.382203
15 1 0.866793 0.129795 0.362739
16 1 0.882291 0.374612 0.127897
27 1 0.758159 0.497905 0.255776
33 1 0.987934 0.00661317 0.49705
9 1 0.500064 0.000876509 0.000175168
19 1 0.25343 0.501468 0.242747
21 1 0.130202 0.630125 0.12547
22 1 0.122893 0.878084 0.380439
23 1 0.374632 0.621233 0.387431
24 1 0.377706 0.862821 0.127951
20 1 0.24365 0.754956 0.00276656
41 1 0.491319 0.99126 0.490383
11 1 0.743281 0.997972 0.25182
26 1 0.507427 0.735401 0.243548
18 1 0.999475 0.753505 0.255859
29 1 0.640569 0.612338 0.112632
30 1 0.619878 0.872858 0.373201
31 1 0.872426 0.633474 0.384807
32 1 0.873955 0.876446 0.126076
28 1 0.756004 0.746865 0.00159996
36 1 0.251276 0.254863 0.503343
17 1 0.00901718 0.496006 0.997522
4 1 0.250575 0.249428 0.999432
37 1 0.127679 0.124865 0.612773
38 1 0.118861 0.361208 0.873903
39 1 0.376716 0.11997 0.876955
40 1 0.392253 0.373233 0.636938
35 1 0.254465 0.00597654 0.745975
51 1 0.24195 0.496343 0.749077
44 1 0.739037 0.248954 0.501847
34 1 0.991695 0.239192 0.747693
12 1 0.752203 0.254278 0.999601
42 1 0.512057 0.242708 0.754378
45 1 0.623208 0.116803 0.619035
46 1 0.633488 0.373779 0.871166
47 1 0.861921 0.128898 0.872456
48 1 0.868904 0.374558 0.622825
1 1 0.994569 0.00379339 0.994967
49 1 0.000305389 0.503337 0.503812
52 1 0.243833 0.74838 0.501205
53 1 0.118657 0.633733 0.621473
54 1 0.129917 0.894131 0.869899
55 1 0.364786 0.618775 0.872427
56 1 0.376637 0.869505 0.627308
50 1 0.0111825 0.768791 0.754653
58 1 0.493847 0.743278 0.749265
57 1 0.507668 0.502273 0.502604
59 1 0.750355 0.512412 0.756666
25 1 0.507738 0.501234 0.987247
60 1 0.744967 0.752878 0.50999
43 1 0.734887 0.992805 0.753711
61 1 0.632416 0.623347 0.626421
62 1 0.618093 0.862428 0.881121
63 1 0.880726 0.628154 0.87592
64 1 0.870379 0.886908 0.6308
ITEM: TIMESTEP
6000
ITEM: NUMBER OF ATOMS
64
ITEM: BOX BOUNDS pp pp pp
-1.2618983929341354e-02 1.0992618983929848e+01
-1.2618983929341354e-02 1.0992618983929848e+01
-1.2618983929341354e-02 1.0992618983929848e+01
ITEM: ATOMS id type xs ys zs
5 1 0.12437 0.123112 0.129833
6 1 0.131924 0.381216 0.389271
7 1 0.374073 0.129122 0.379928
8 1 0.374273 0.376828 0.119217
2 1 0.0151814 0.252099 0.264106
10 1 0.496845 0.261263 0.252701
33 1 0.00489962 0.0128405 0.4873
19 1 0.247815 0.499803 0.248504
36 1 0.254481 0.255671 0.499119
4 1 0.244446 0.23447 0.00693026
13 1 0.618178 0.130834 0.128775
14 1 0.628601 0.380769 0.377207
15 1 0.866563 0.128431 0.364327
16 1 0.879147 0.377081 0.12168
44 1 0.748725 0.245924 0.492999
12 1 0.748853 0.249999 0.00616197
1 1 0.989825 0.00642557 0.00515491
3 1 0.249578 0.990908 0.254823
9 1 0.499958 0.999382 0.00969521
21 1 0.132966 0.623203 0.122924
22 1 0.121963 0.878872 0.383791
23 1 0.373289 0.615402 0.366923
24 1 0.381597 0.865025 0.131053
18 1 0.0013495 0.742143 0.247422
52 1 0.251392 0.738724 0.491869
27 1 0.751334 0.508776 0.255805
11 1 0.739566 0.993996 0.243411
26 1 0.506042 0.741832 0.243933
29 1 0.62575 0.622759 0.113596
30 1 0.616091 0.873758 0.371951
31 1 0.879338 0.623285 0.389084
32 1 0.876348 0.869515 0.136319
60 1 0.752932 0.756679 0.492138
17 1 0.00311769 0.49448 0.994818
37 1 0.130174 0.133613 0.620642
38 1 0.118657 0.360125 0.876567
39 1 0.375803 0.124326 0.877971
40 1 0.369983 0.378729 0.630758
35 1 0.251169 0.00146699 0.748199
51 1 0.239537 0.492028 0.753654
25 1 0.498807 0.495864 0.985675
34 1 0.990745 0.24422 0.74439
42 1 0.508215 0.247153 0.749895
45 1 0.625781 0.12556 0.61963
46 1 0.636183 0.385503 0.871235
47 1 0.868673 0.115178 0.875413
48 1 0.870874 0.372675 0.620857
20 1 0.251058 0.745648 0.997313
41 1 0.497046 0.999884 0.500231
49 1 0.00562425 0.504507 0.50854
53 1 0.127067 0.634191 0.629421
54 1 0.122972 0.885006 0.886382
55 1 0.361283 0.627742 0.866605
56 1 0.376983 0.871483 0.618897
50 1 0.00174492 0.759678 0.750414
58 1 0.496796 0.74396 0.752442
28 1 0.749435 0.749854 0.994002
57 1 0.501923 0.501684 0.509885
59 1 0.76064 0.507244 0.74485
43 1 0.739924 0.996712 0.747639
61 1 0.63447 0.632227 0.617389
62 1 0.616253 0.873378 0.875156
63 1 0.881728 0.628029 0.880785
64 1 0.879643 0.877706 0.622394
ITEM: TIMESTEP
7000
ITEM: NUMBER OF ATOMS
64
ITEM: BOX BOUNDS pp pp pp
-1.3538792434161451e-02 1.0993538792434610e+01
-1.3538792434161451e-02 1.0993538792434610e+01
-1.3538792434161451e-02 1.0993538792434610e+01
ITEM: ATOMS id type xs ys zs
5 1 0.113664 0.11641 0.127778
6 1 0.125177 0.376519 0.383728
7 1 0.372872 0.122116 0.383329
8 1 0.367112 0.364544 0.11651
2 1 0.00100122 0.251602 0.253972
10 1 0.487987 0.26238 0.254256
33 1 0.0184138 0.00263529 0.486411
19 1 0.249679 0.495157 0.251096
3 1 0.247918 0.00695386 0.258266
13 1 0.620518 0.137338 0.129904
14 1 0.62999 0.383146 0.373773
15 1 0.87998 0.123147 0.367897
16 1 0.865282 0.373838 0.124608
44 1 0.747254 0.24629 0.489885
9 1 0.507864 0.0036801 0.0030364
11 1 0.744889 0.00485774 0.247948
21 1 0.125206 0.622246 0.114793
22 1 0.130397 0.861723 0.368385
23 1 0.382293 0.617341 0.367488
24 1 0.369797 0.881597 0.119923
18 1 0.000717087 0.736952 0.242203
52 1 0.253935 0.7408 0.498482
1 1 0.998879 0.991993 0.00570821
27 1 0.74948 0.506551 0.243917
26 1 0.503013 0.751233 0.249015
29 1 0.623393 0.616602 0.113156
30 1 0.626966 0.875745 0.373162
31 1 0.880974 0.622706 0.377813
32 1 0.868726 0.86057 0.123881
60 1 0.760165 0.749684 0.494799
28 1 0.740194 0.751435 0.00194559
57 1 0.504917 0.501531 0.49605
36 1 0.250644 0.245173 0.504831
4 1 0.242524 0.234892 0.996426
37 1 0.13218 0.122424 0.633158
38 1 0.112829 0.356128 0.88471
39 1 0.378355 0.128708 0.877078
40 1 0.378447 0.379135 0.630785
35 1 0.252364 0.000811246 0.762201
51 1 0.235458 0.499585 0.764989
42 1 0.499498 0.255086 0.754864
12 1 0.748531 0.252206 0.999187
17 1 0.990124 0.492413 0.999539
34 1 0.994594 0.242146 0.749735
45 1 0.619708 0.129222 0.627096
46 1 0.630249 0.379069 0.880655
47 1 0.875487 0.119476 0.881149
48 1 0.872885 0.373001 0.62031
41 1 0.507008 0.00260363 0.507822
43 1 0.757164 0.000605092 0.743563
20 1 0.251551 0.748102 0.99352
49 1 0.00302234 0.503585 0.519201
53 1 0.134072 0.629879 0.635087
54 1 0.126607 0.877912 0.881433
55 1 0.374783 0.629152 0.867947
56 1 0.362947 0.878733 0.621184
25 1 0.500252 0.500802 0.991682
50 1 0.999775 0.766236 0.760073
58 1 0.501423 0.759707 0.734979
59 1 0.75394 0.5032 0.74668
61 1 0.629689 0.632234 0.62309
62 1 0.626534 0.88529 0.869401
63 1 0.87144 0.631755 0.880481
64 1 0.887262 0.881404 0.614023
ITEM: TIMESTEP
8000
ITEM: NUMBER OF ATOMS
64
ITEM: BOX BOUNDS pp pp pp
7.2422093924915387e-03 1.0972757790607954e+01
7.2422093924915387e-03 1.0972757790607954e+01
7.2422093924915387e-03 1.0972757790607954e+01
ITEM: ATOMS id type xs ys zs
5 1 0.121037 0.114545 0.123404
6 1 0.121943 0.379605 0.382117
7 1 0.363798 0.130362 0.391884
8 1 0.371679 0.368867 0.117954
10 1 0.495246 0.246698 0.262784
19 1 0.250585 0.4905 0.251118
3 1 0.250769 0.00961746 0.252941
4 1 0.242931 0.24507 0.000522311
2 1 0.998858 0.253794 0.252637
13 1 0.629029 0.127134 0.131265
14 1 0.620201 0.367965 0.377842
15 1 0.876685 0.123556 0.381156
16 1 0.8699 0.376827 0.132241
44 1 0.747564 0.252733 0.495952
9 1 0.516511 0.00752844 0.000335094
11 1 0.746899 0.00187065 0.260498
33 1 0.0194208 0.993337 0.475991
21 1 0.131925 0.612183 0.108917
22 1 0.134768 0.854943 0.360346
23 1 0.372691 0.629707 0.367042
24 1 0.381478 0.888903 0.127884
18 1 0.0016525 0.730856 0.244884
26 1 0.492958 0.764192 0.251952
20 1 0.25963 0.750285 0.00371501
27 1 0.747292 0.50822 0.254786
29 1 0.61203 0.631821 0.127299
30 1 0.629226 0.873486 0.385939
31 1 0.874699 0.620417 0.383076
32 1 0.86212 0.863792 0.128502
57 1 0.500276 0.500501 0.497207
36 1 0.250859 0.267019 0.514909
37 1 0.125918 0.116073 0.616856
38 1 0.116585 0.370194 0.871523
39 1 0.382518 0.130675 0.883012
40 1 0.379296 0.382628 0.630567
35 1 0.256237 0.00276452 0.753167
34 1 0.00578728 0.236596 0.749555
49 1 0.00187805 0.498633 0.506661
42 1 0.502418 0.251232 0.750296
12 1 0.746751 0.251725 0.993742
45 1 0.628628 0.120388 0.618877
46 1 0.619272 0.383942 0.87709
47 1 0.874926 0.123275 0.876636
48 1 0.870136 0.371213 0.621361
41 1 0.506025 0.000364775 0.503992
43 1 0.762137 0.000760172 0.737914
52 1 0.253711 0.738895 0.500116
51 1 0.242989 0.502232 0.75623
53 1 0.127316 0.623249 0.633468
54 1 0.12675 0.869531 0.884191
55 1 0.380193 0.63552 0.862214
56 1 0.376315 0.870946 0.625196
25 1 0.492146 0.506843 0.997306
1 1 0.986225 0.986093 0.995603
60 1 0.761117 0.752373 0.504201
28 1 0.735889 0.751047 0.996041
17 1 0.994477 0.507606 0.993445
50 1 0.995005 0.746901 0.752652
58 1 0.506919 0.752218 0.739286
59 1 0.736032 0.500867 0.74761
61 1 0.627727 0.628834 0.615804
62 1 0.635197 0.888815 0.863194
63 1 0.856183 0.628353 0.876015
64 1 0.892634 0.882878 0.61908
ITEM: TIMESTEP
9000
ITEM: NUMBER OF ATOMS
64
ITEM: BOX BOUNDS pp pp pp
8.2950671731429892e-03 1.0971704932827315e+01
8.2950671731429892e-03 1.0971704932827315e+01
8.2950671731429892e-03 1.0971704932827315e+01
ITEM: ATOMS id type xs ys zs
5 1 0.121468 0.125214 0.114642
6 1 0.12225 0.375515 0.371915
7 1 0.364957 0.133689 0.380467
8 1 0.381217 0.366256 0.118197
10 1 0.495758 0.232087 0.253833
19 1 0.254181 0.496876 0.23981
3 1 0.240344 0.00384263 0.241849
57 1 0.494643 0.498566 0.488665
2 1 0.998167 0.257783 0.241019
13 1 0.639336 0.131321 0.12522
14 1 0.628775 0.374481 0.37273
15 1 0.878396 0.127504 0.36582
16 1 0.873878 0.382456 0.127182
44 1 0.754314 0.248871 0.489693
27 1 0.748954 0.499219 0.253624
12 1 0.759182 0.256487 0.00184058
33 1 0.00748754 0.999727 0.483608
21 1 0.133678 0.621446 0.116436
22 1 0.126635 0.870467 0.362882
23 1 0.369153 0.630308 0.368011
24 1 0.378945 0.888396 0.120306
18 1 0.00406575 0.737114 0.2467
26 1 0.497408 0.755008 0.250182
52 1 0.246322 0.745036 0.49408
17 1 0.00274554 0.501385 5.79246e-05
11 1 0.74924 0.991945 0.258919
29 1 0.622714 0.629725 0.137365
30 1 0.625387 0.878751 0.397598
31 1 0.881448 0.619506 0.371928
32 1 0.871046 0.866653 0.128711
25 1 0.502451 0.506004 0.00747112
28 1 0.741512 0.744165 0.00265907
4 1 0.243122 0.245954 0.997169
36 1 0.242613 0.263205 0.502603
37 1 0.126336 0.121493 0.620921
38 1 0.125809 0.378485 0.874594
39 1 0.371219 0.119465 0.878524
40 1 0.379416 0.379016 0.629093
35 1 0.242814 0.00252454 0.756335
34 1 0.0101107 0.247706 0.743848
42 1 0.498507 0.244656 0.755533
9 1 0.514862 0.0180609 0.999661
49 1 0.995314 0.498596 0.508264
45 1 0.625323 0.12586 0.624756
46 1 0.618029 0.371076 0.886244
47 1 0.87801 0.129337 0.873588
48 1 0.869178 0.371164 0.631343
43 1 0.756452 0.000972028 0.745176
59 1 0.739544 0.492909 0.747714
20 1 0.254376 0.757012 0.997459
41 1 0.484698 0.999994 0.505424
51 1 0.250183 0.50306 0.755737
53 1 0.122032 0.629913 0.628909
54 1 0.124444 0.880027 0.875981
55 1 0.371376 0.632047 0.87774
56 1 0.366991 0.867579 0.626107
50 1 0.00484129 0.744308 0.769107
1 1 0.99548 0.995041 0.997204
60 1 0.758112 0.750868 0.505763
58 1 0.505823 0.745959 0.759495
61 1 0.625969 0.613469 0.609514
62 1 0.630605 0.883136 0.878458
63 1 0.862394 0.620986 0.882693
64 1 0.889963 0.870318 0.621627
ITEM: TIMESTEP
10000
ITEM: NUMBER OF ATOMS
64
ITEM: BOX BOUNDS pp pp pp
7.5966870228185712e-03 1.0972403312977619e+01
7.5966870228185712e-03 1.0972403312977619e+01
7.5966870228185712e-03 1.0972403312977619e+01
ITEM: ATOMS id type xs ys zs
5 1 0.121908 0.128772 0.116888
6 1 0.125382 0.381113 0.378907
7 1 0.369095 0.120884 0.375534
8 1 0.377654 0.367308 0.124401
10 1 0.499898 0.238996 0.251541
3 1 0.244601 0.000432676 0.246591
2 1 0.00604414 0.253765 0.252289
36 1 0.246293 0.251926 0.492493
57 1 0.506538 0.496333 0.487008
13 1 0.639656 0.124468 0.120421
14 1 0.628095 0.372355 0.37491
15 1 0.876566 0.122302 0.366427
16 1 0.883275 0.383915 0.116001
44 1 0.743718 0.238604 0.493004
19 1 0.259843 0.507173 0.243436
21 1 0.139377 0.624617 0.124472
22 1 0.121711 0.885204 0.375915
23 1 0.382542 0.626278 0.370948
24 1 0.374863 0.881128 0.124669
26 1 0.495957 0.765931 0.255359
52 1 0.240887 0.750438 0.492435
27 1 0.752482 0.504109 0.258656
18 1 0.997544 0.754605 0.253444
11 1 0.74958 0.990781 0.258905
29 1 0.624742 0.630434 0.133638
30 1 0.617818 0.877521 0.396823
31 1 0.879904 0.629306 0.388871
32 1 0.867049 0.868958 0.127538
25 1 0.506972 0.502851 0.00730732
28 1 0.747584 0.745327 0.00138436
4 1 0.256912 0.247799 0.991957
37 1 0.124618 0.132399 0.618206
38 1 0.139416 0.37956 0.870852
39 1 0.383644 0.115013 0.871426
40 1 0.368426 0.374418 0.618198
34 1 0.00299522 0.261166 0.746164
42 1 0.494542 0.248706 0.748202
49 1 0.00356151 0.498847 0.506384
12 1 0.75512 0.247387 0.993877
9 1 0.510193 0.00364221 0.995668
45 1 0.623247 0.120145 0.629642
46 1 0.623371 0.365284 0.873343
47 1 0.878771 0.130431 0.859018
48 1 0.859094 0.375465 0.618458
43 1 0.751697 0.00315292 0.750033
59 1 0.737101 0.499062 0.756969
1 1 0.991106 0.0110164 0.999407
17 1 0.0145233 0.501213 0.997685
35 1 0.242546 0.996295 0.746484
20 1 0.256995 0.756235 0.999748
41 1 0.491331 0.999936 0.516023
51 1 0.256361 0.509129 0.746605
53 1 0.120878 0.632073 0.629471
54 1 0.118974 0.876896 0.871329
55 1 0.382368 0.626785 0.884651
56 1 0.366156 0.852162 0.631133
33 1 0.987962 0.996669 0.503581
50 1 0.986101 0.738079 0.759519
60 1 0.744492 0.746541 0.507115
58 1 0.503298 0.749683 0.748417
61 1 0.617939 0.61609 0.625736
62 1 0.633149 0.874719 0.871852
63 1 0.873914 0.611617 0.880239
64 1 0.871621 0.876549 0.622391
ITEM: TIMESTEP
11000
ITEM: NUMBER OF ATOMS
64
ITEM: BOX BOUNDS pp pp pp
2.5592707777342127e-03 1.0977440729222696e+01
2.5592707777342127e-03 1.0977440729222696e+01
2.5592707777342127e-03 1.0977440729222696e+01
ITEM: ATOMS id type xs ys zs
5 1 0.121984 0.128794 0.117068
6 1 0.128716 0.380747 0.380593
7 1 0.379377 0.120374 0.373246
8 1 0.372106 0.376128 0.128615
3 1 0.245264 0.00672403 0.249415
2 1 0.000848302 0.24569 0.252266
36 1 0.248757 0.24837 0.498464
25 1 0.494864 0.498734 0.0110857
10 1 0.508249 0.238306 0.248822
57 1 0.505249 0.489226 0.485238
13 1 0.624224 0.122957 0.113965
14 1 0.637943 0.368259 0.360001
15 1 0.871774 0.122348 0.370082
16 1 0.888915 0.376255 0.128542
44 1 0.747313 0.244386 0.499865
12 1 0.756385 0.253035 0.000811657
19 1 0.254944 0.504755 0.255461
21 1 0.129793 0.629875 0.130563
22 1 0.112092 0.880848 0.37613
23 1 0.384366 0.632111 0.370586
24 1 0.365061 0.877355 0.122084
52 1 0.244088 0.749996 0.493075
17 1 0.0186188 0.502165 0.00334592
20 1 0.243243 0.754956 0.000208616
26 1 0.500489 0.748421 0.250957
27 1 0.773775 0.503338 0.24463
18 1 0.994977 0.757115 0.256932
11 1 0.744381 0.999703 0.248553
29 1 0.630764 0.615753 0.125839
30 1 0.619739 0.883971 0.379004
31 1 0.869873 0.628663 0.37898
32 1 0.87138 0.876734 0.123431
28 1 0.74829 0.743014 0.00348756
49 1 0.999732 0.500334 0.499665
60 1 0.743636 0.747797 0.499151
4 1 0.259518 0.239457 0.999183
37 1 0.126708 0.130355 0.632378
38 1 0.14095 0.37944 0.876239
39 1 0.374474 0.121627 0.875622
40 1 0.368625 0.379919 0.609856
34 1 0.0116799 0.272932 0.737247
42 1 0.48675 0.251778 0.750922
41 1 0.496686 0.000391958 0.504131
45 1 0.62026 0.12293 0.62664
46 1 0.618195 0.371621 0.87844
47 1 0.886422 0.140983 0.870081
48 1 0.865891 0.371505 0.61691
43 1 0.750797 0.00382722 0.759862
59 1 0.751295 0.494428 0.75714
1 1 0.998215 0.0083168 0.986593
33 1 0.994109 0.0137862 0.505299
35 1 0.239589 0.9942 0.754406
51 1 0.256563 0.506847 0.744807
53 1 0.124735 0.631894 0.630945
54 1 0.11685 0.87235 0.872381
55 1 0.370363 0.623586 0.885211
56 1 0.364344 0.867385 0.634089
58 1 0.499525 0.740597 0.752
9 1 0.507606 0.988699 0.998206
50 1 0.99456 0.744537 0.753021
61 1 0.620054 0.613152 0.619574
62 1 0.628181 0.866541 0.883996
63 1 0.87828 0.612132 0.881571
64 1 0.867564 0.877546 0.623083
ITEM: TIMESTEP
12000
ITEM: NUMBER OF ATOMS
64
ITEM: BOX BOUNDS pp pp pp
-3.5794366020303059e-03 1.0983579436602490e+01
-3.5794366020303059e-03 1.0983579436602490e+01
-3.5794366020303059e-03 1.0983579436602490e+01
ITEM: ATOMS id type xs ys zs
5 1 0.12843 0.110702 0.118327
6 1 0.122842 0.379862 0.386556
7 1 0.379382 0.122326 0.376524
8 1 0.374243 0.37228 0.139934
2 1 0.00270731 0.229167 0.263193
19 1 0.243598 0.495437 0.255025
4 1 0.254744 0.248993 0.00480636
10 1 0.504337 0.242112 0.251368
13 1 0.625918 0.124209 0.104102
14 1 0.629731 0.367381 0.36761
15 1 0.865476 0.1186 0.376117
16 1 0.893607 0.361549 0.124272
27 1 0.768871 0.49642 0.237812
11 1 0.737436 0.00167083 0.240945
41 1 0.501258 0.000684324 0.497587
3 1 0.244878 0.996798 0.250277
21 1 0.122824 0.632097 0.138583
22 1 0.126855 0.874647 0.378839
23 1 0.377721 0.637829 0.376905
24 1 0.368921 0.877394 0.135007
20 1 0.242164 0.746486 0.00379834
57 1 0.511685 0.502059 0.483685
26 1 0.50098 0.743871 0.243992
18 1 0.99251 0.753728 0.253582
29 1 0.626746 0.622504 0.120558
30 1 0.625044 0.87766 0.377474
31 1 0.870162 0.632219 0.373156
32 1 0.871318 0.884967 0.118671
28 1 0.756746 0.742962 0.00151544
49 1 0.99681 0.504663 0.497235
36 1 0.254242 0.25031 0.50167
37 1 0.130696 0.124687 0.626594
38 1 0.134016 0.380153 0.885086
39 1 0.372157 0.120002 0.878215
40 1 0.391924 0.374451 0.61766
34 1 0.0165451 0.255951 0.75283
42 1 0.498691 0.245947 0.752806
51 1 0.250052 0.499797 0.741149
44 1 0.740333 0.244836 0.506402
12 1 0.74924 0.267351 0.994658
45 1 0.621807 0.124695 0.634017
46 1 0.611748 0.379906 0.885397
47 1 0.870556 0.144057 0.870354
48 1 0.878798 0.386259 0.628034
43 1 0.758518 0.00556118 0.758493
59 1 0.738198 0.494721 0.747396
1 1 0.991217 0.00173524 0.988161
25 1 0.489882 0.506299 0.995312
52 1 0.258313 0.758831 0.506585
17 1 0.00808534 0.511295 0.998512
35 1 0.254453 0.995915 0.7532
53 1 0.128029 0.630564 0.613809
54 1 0.114798 0.868284 0.869694
55 1 0.367292 0.629007 0.871832
56 1 0.381645 0.871401 0.6238
9 1 0.495748 0.992219 0.997281
60 1 0.741682 0.760236 0.509274
33 1 0.996812 0.999918 0.502876
58 1 0.502465 0.734493 0.74793
50 1 0.988087 0.745933 0.744083
61 1 0.627698 0.620903 0.619638
62 1 0.63686 0.869753 0.872286
63 1 0.864634 0.619555 0.875951
64 1 0.866832 0.883699 0.631558
ITEM: TIMESTEP
13000
ITEM: NUMBER OF ATOMS
64
ITEM: BOX BOUNDS pp pp pp
-1.6347564656633118e-02 1.0996347564657128e+01
-1.6347564656633118e-02 1.0996347564657128e+01
-1.6347564656633118e-02 1.0996347564657128e+01
ITEM: ATOMS id type xs ys zs
5 1 0.120355 0.116544 0.123616