LAMMPS (23 Jun 2022)
OMP_NUM_THREADS environment is not set. Defaulting to 1 thread. (src/comm.cpp:98)
  using 1 OpenMP thread(s) per MPI task
echo both

# Define some variables
variable	temperature equal 1700.
variable	tempDamp equal 0.1 # approx 0.1 ps
variable	pressure equal 1.
variable	pressureDamp equal 1.0
variable	seed equal 74581

# Setup
units		metal
atom_style	full

# Initial configuration
# Cubic diamond lattice
lattice 	diamond 5.4307
Lattice spacing in x,y,z = 5.4307 5.4307 5.4307
region          myreg block 0 2 0 2 0 2
create_box      1 myreg
Created orthogonal box = (0 0 0) to (10.8614 10.8614 10.8614)
  1 by 1 by 1 MPI processor grid
create_atoms 	1 random 64 12345 myreg overlap 0.4 maxtry 500
Created 64 atoms
  using lattice units in orthogonal box = (0 0 0) to (10.8614 10.8614 10.8614)
  create_atoms CPU = 0.001 seconds
variable 	mass equal 28.0855
mass            1 ${mass}
mass            1 28.0855

# More setup options
variable	out_freq equal 500
variable	out_freq2 equal 5000
neigh_modify    delay 10 every 1
pair_style 	sw
pair_coeff 	* * Si.sw Si
Reading sw potential file Si.sw with DATE: 2007-06-11
timestep	0.002
thermo          ${out_freq}
thermo          500
thermo_style 	custom step temp pe press lx
restart 	${out_freq} Restart.lmp Restart2.lmp
restart 	500 Restart.lmp Restart2.lmp

# Perform minimization
minimize 1.0e-2 1.0e-3 100 1000
WARNING: Using 'neigh_modify every 1 delay 0 check yes' setting during minimization (src/min.cpp:187)
Neighbor list info ...
  update every 1 steps, delay 0 steps, check yes
  max neighbors/atom: 2000, page size: 100000
  master list distance cutoff = 5.77118
  ghost atom cutoff = 5.77118
  binsize = 2.88559, bins = 4 4 4
  1 neighbor lists, perpetual/occasional/extra = 1 0 0
  (1) pair sw, perpetual
      attributes: full, newton on
      pair build: full/bin
      stencil: full/bin/3d
      bin: standard
Per MPI rank memory allocation (min/avg/max) = 7.141 | 7.141 | 7.141 Mbytes
   Step          Temp          PotEng         Press            Lx      
         0   0             -169.1764       198360.21      10.8614      
        10   0             -236.97934     -75937.196      10.8614      
Loop time of 0.00369608 on 1 procs for 10 steps with 64 atoms

82.5% CPU use with 1 MPI tasks x 1 OpenMP threads

Minimization stats:
  Stopping criterion = energy tolerance
  Energy initial, next-to-last, final = 
     -169.176402825968  -234.742633325965  -236.979344783917
  Force two-norm initial, final = 47.138491 4.5033468
  Force max component initial, final = 13.139347 0.9964586
  Final line search alpha, max atom move = 0.082494863 0.082202715
  Iterations, force evaluations = 10 10

MPI task timing breakdown:
Section |  min time  |  avg time  |  max time  |%varavg| %total
---------------------------------------------------------------
Pair    | 0.0027523  | 0.0027523  | 0.0027523  |   0.0 | 74.47
Bond    | 2.214e-06  | 2.214e-06  | 2.214e-06  |   0.0 |  0.06
Neigh   | 0.00015372 | 0.00015372 | 0.00015372 |   0.0 |  4.16
Comm    | 3.3724e-05 | 3.3724e-05 | 3.3724e-05 |   0.0 |  0.91
Output  | 0          | 0          | 0          |   0.0 |  0.00
Modify  | 0          | 0          | 0          |   0.0 |  0.00
Other   |            | 0.0007541  |            |       | 20.40

Nlocal:             64 ave          64 max          64 min
Histogram: 1 0 0 0 0 0 0 0 0 0
Nghost:            494 ave         494 max         494 min
Histogram: 1 0 0 0 0 0 0 0 0 0
Neighs:              0 ave           0 max           0 min
Histogram: 1 0 0 0 0 0 0 0 0 0
FullNghs:         2532 ave        2532 max        2532 min
Histogram: 1 0 0 0 0 0 0 0 0 0

Total # of neighbors = 2532
Ave neighs/atom = 39.5625
Ave special neighs/atom = 0
Neighbor list builds = 1
Dangerous builds = 0

# NVT equilibration

fix             1 all nve
fix             2 all temp/csvr ${temperature} ${temperature} ${tempDamp} ${seed}
fix             2 all temp/csvr 1700 ${temperature} ${tempDamp} ${seed}
fix             2 all temp/csvr 1700 1700 ${tempDamp} ${seed}
fix             2 all temp/csvr 1700 1700 0.1 ${seed}
fix             2 all temp/csvr 1700 1700 0.1 74581

velocity        all create ${temperature} ${seed} dist gaussian
velocity        all create 1700 ${seed} dist gaussian
velocity        all create 1700 74581 dist gaussian
run             25000
Per MPI rank memory allocation (min/avg/max) = 6.016 | 6.016 | 6.016 Mbytes
   Step          Temp          PotEng         Press            Lx      
        10   1700          -236.97934     -64396.931      10.8614      
       500   1563.2258     -237.72582     -29023.992      10.8614      
      1000   1682.6216     -241.70513     -45626.899      10.8614      
      1500   1618.5236     -240.06598     -46060.603      10.8614      
      2000   1871.7581     -240.73674     -26076.773      10.8614      
      2500   1673.3531     -240.84089     -24231.881      10.8614      
      3000   1746.9668     -242.30663     -22637.152      10.8614      
      3500   1759.0315     -241.7117      -61052.437      10.8614      
      4000   1715.6063     -239.14661     -29866.447      10.8614      
      4500   1447.8119     -237.07018     -29489.995      10.8614      
      5000   1752.2307     -241.44257     -42032.992      10.8614      
      5500   1842.5387     -239.60668     -14964.115      10.8614      
      6000   1558.0228     -240.38847     -32695.258      10.8614      
      6500   1892.8537     -238.34455     -35134.628      10.8614      
      7000   1416.9723     -240.31484     -52812.254      10.8614      
      7500   1658.0838     -241.34654     -51576.763      10.8614      
      8000   2023.6467     -240.20645     -38948.895      10.8614      
      8500   1705.1548     -240.52747     -31443.421      10.8614      
      9000   1588.6549     -241.87912     -8387.8941      10.8614      
      9500   1695.8957     -240.68859     -41192.976      10.8614      
     10000   2062.5668     -240.53515     -32003.503      10.8614      
     10500   1707.2779     -240.22584     -52516.262      10.8614      
     11000   1542.7659     -240.99764     -23098.732      10.8614      
     11500   1470.7088     -241.46183     -39024.255      10.8614      
     12000   1535.1085     -238.41121     -40422.858      10.8614      
     12500   1579.5482     -241.88714     -14871.738      10.8614      
     13000   1825.184      -239.33104     -17460.994      10.8614      
     13500   2291.5241     -237.53736     -42898.132      10.8614      
     14000   1716.7655     -238.62837     -47303.138      10.8614      
     14500   1595.2061     -238.82862     -17046.879      10.8614      
     15000   1762.7015     -239.72951     -33438.401      10.8614      
     15500   1476.4561     -241.8364      -20458.627      10.8614      
     16000   1874.0812     -243.41307     -21821.135      10.8614      
     16500   1537.6697     -241.88033     -12960.064      10.8614      
     17000   1789.1552     -237.67883     -16437.756      10.8614      
     17500   1829.382      -237.1744      -4238.5617      10.8614      
     18000   1765.0943     -242.43931     -38727.554      10.8614      
     18500   1689.0801     -245.14606     -52749.888      10.8614      
     19000   1438.0306     -239.72017     -35871.055      10.8614      
     19500   1889.8157     -240.71226     -22633.231      10.8614      
     20000   1738.8746     -241.66928     -21237.705      10.8614      
     20500   1487.8913     -238.51389     -36571.399      10.8614      
     21000   1984.4009     -238.49601     -30060.268      10.8614      
     21500   1753.541      -237.6583      -58039.323      10.8614      
     22000   1865.6256     -236.57075     -50888.404      10.8614      
     22500   1945.9405     -236.77094     -16192.71       10.8614      
     23000   1494.4142     -242.55287     -44995.465      10.8614      
     23500   1727.8919     -241.28064     -39767.672      10.8614      
     24000   1720.4556     -242.44948     -9600.2697      10.8614      
     24500   1883.8172     -241.84065     -27023.194      10.8614      
     25000   1709.6379     -239.71228     -30437.399      10.8614      
     25010   1799.9026     -239.46699     -23019.736      10.8614      
Loop time of 5.8188 on 1 procs for 25000 steps with 64 atoms

Performance: 742.421 ns/day, 0.032 hours/ns, 4296.421 timesteps/s
98.5% CPU use with 1 MPI tasks x 1 OpenMP threads

MPI task timing breakdown:
Section |  min time  |  avg time  |  max time  |%varavg| %total
---------------------------------------------------------------
Pair    | 5.5447     | 5.5447     | 5.5447     |   0.0 | 95.29
Bond    | 0.0058517  | 0.0058517  | 0.0058517  |   0.0 |  0.10
Neigh   | 0.11599    | 0.11599    | 0.11599    |   0.0 |  1.99
Comm    | 0.062614   | 0.062614   | 0.062614   |   0.0 |  1.08
Output  | 0.027594   | 0.027594   | 0.027594   |   0.0 |  0.47
Modify  | 0.039804   | 0.039804   | 0.039804   |   0.0 |  0.68
Other   |            | 0.02223    |            |       |  0.38

Nlocal:             64 ave          64 max          64 min
Histogram: 1 0 0 0 0 0 0 0 0 0
Nghost:            496 ave         496 max         496 min
Histogram: 1 0 0 0 0 0 0 0 0 0
Neighs:              0 ave           0 max           0 min
Histogram: 1 0 0 0 0 0 0 0 0 0
FullNghs:         2514 ave        2514 max        2514 min
Histogram: 1 0 0 0 0 0 0 0 0 0

Total # of neighbors = 2514
Ave neighs/atom = 39.28125
Ave special neighs/atom = 0
Neighbor list builds = 780
Dangerous builds = 0

unfix           1
unfix           2

# NPT equilibration
fix             1 all nph iso ${pressure} ${pressure} ${pressureDamp}
fix             1 all nph iso 1 ${pressure} ${pressureDamp}
fix             1 all nph iso 1 1 ${pressureDamp}
fix             1 all nph iso 1 1 1
fix             2 all temp/csvr ${temperature} ${temperature} ${tempDamp} ${seed}
fix             2 all temp/csvr 1700 ${temperature} ${tempDamp} ${seed}
fix             2 all temp/csvr 1700 1700 ${tempDamp} ${seed}
fix             2 all temp/csvr 1700 1700 0.1 ${seed}
fix             2 all temp/csvr 1700 1700 0.1 74581

velocity        all create ${temperature} ${seed} dist gaussian
velocity        all create 1700 ${seed} dist gaussian
velocity        all create 1700 74581 dist gaussian
run             50000
Per MPI rank memory allocation (min/avg/max) = 6.017 | 6.017 | 6.017 Mbytes
   Step          Temp          PotEng         Press            Lx      
     25010   1700          -239.46699     -23697.914      10.8614      
     25500   1598.2263     -240.40784      5746.8891      10.709941    
     26000   1657.1        -240.67563     -21492.372      10.706511    
     26500   1623.8065     -241.85663      38373.183      10.56122     
     27000   1814.1497     -243.07598     -16486.166      10.658322    
     27500   1554.5798     -240.40647      11715.601      10.695196    
     28000   1701.7016     -239.91763      24027.229      10.664344    
     28500   1756.0492     -241.69481     -6912.4436      10.734519    
     29000   1616.0631     -240.74342      2215.0028      10.601285    
     29500   1575.2664     -239.46498     -5360.6041      10.723744    
     30000   1666.9533     -240.84397      35262.439      10.686856    
     30500   1831.9323     -238.89266      27760.676      10.616522    
     31000   1505.5923     -239.9369      -38327.193      10.748646    
     31500   2038.645      -242.3315       27913.11       10.656797    
     32000   1471.7349     -240.29339      14313.853      10.658998    
     32500   1505.5519     -240.17326      19393.586      10.636903    
     33000   2042.447      -240.09068     -19473.117      10.707414    
     33500   1591.246      -241.04066      39371.879      10.612817    
     34000   1830.3157     -244.48372     -10931.723      10.572753    
     34500   1755.9203     -240.89702     -22722.141      10.765375    
     35000   2042.8657     -241.55894      7428.1901      10.673989    
     35500   1717.975      -242.71342      4381.1711      10.683668    
     36000   1601.9339     -244.55006     -6229.0221      10.673688    
     36500   1713.4455     -242.4748      -9995.9861      10.70055     
     37000   1690.5531     -240.32516     -12239.586      10.73379     
     37500   1651.171      -242.8515      -20491.319      10.728532    
     38000   1706.4237     -240.34418     -33418.417      10.758992    
     38500   2240.5368     -239.25859     -1833.3866      10.66109     
     39000   2021.1164     -243.67897      827.51477      10.639069    
     39500   1550.5972     -240.56744      22417.661      10.570192    
     40000   1716.0322     -240.79532     -4032.0681      10.649705    
     40500   1369.3641     -242.39556      1781.6288      10.577545    
     41000   1776.8999     -241.48354     -22098.987      10.632536    
     41500   1518.1242     -242.32744      51053.009      10.530683    
     42000   1955.31       -237.90829      15909.3        10.697774    
     42500   1835.6647     -239.15299     -15101.038      10.746211    
     43000   1746.5616     -241.97021     -25946.483      10.752512    
     43500   1602.5903     -243.86622      71.874404      10.566181    
     44000   1899.0818     -242.90441     -14980.622      10.664821    
     44500   1925.4937     -242.87701      11049.412      10.657829    
     45000   1732.0123     -242.85373      431.30408      10.681855    
     45500   1832.6719     -243.42883     -29771.985      10.715302    
     46000   1713.6878     -239.26596     -6623.9295      10.586932    
     46500   1631.9652     -238.31164     -23102.401      10.643342    
     47000   1762.9343     -237.85199     -68221.412      10.763012    
     47500   1965.9936     -239.08587     -34941.745      10.744432    
     48000   1617.0914     -241.79367     -27357.634      10.657087    
     48500   1681.5801     -241.12553     -13662.527      10.699411    
     49000   1691.0789     -242.28696      22416.315      10.640218    
     49500   1766.8708     -239.4342       5820.0872      10.638572    
     50000   1626.8365     -241.79886     -27346.821      10.709441    
     50500   1618.8118     -239.89002     -1977.3039      10.62325     
     51000   1745.6792     -241.63531     -7875.5911      10.575628    
     51500   1693.7964     -240.87074     -22251.746      10.652555    
     52000   1604.4863     -241.92925      21790.921      10.653296    
     52500   1621.3604     -243.80498     -19301.412      10.708118    
     53000   1755.5761     -240.60353     -39110.04       10.683593    
     53500   1750.2349     -240.27891     -37880.963      10.716754    
     54000   1803.2853     -240.90321     -10758.203      10.614872    
     54500   1517.439      -239.64317     -48949.878      10.701838    
     55000   1314.9802     -241.08005      2612.0317      10.629308    
     55500   1846.5339     -241.73332     -13128.391      10.694228    
     56000   1748.5553     -241.42609     -18651.677      10.707886    
     56500   1586.0766     -239.58226     -10673.793      10.642825    
     57000   1917.6144     -239.48847     -28969.523      10.666132    
     57500   1649.7418     -240.07739      33799.401      10.58896     
     58000   1598.5718     -239.89236      18607.305      10.624809    
     58500   1403.5265     -243.21857     -5551.0736      10.723982    
     59000   1762.0561     -240.70671     -7232.627       10.672886    
     59500   1689.6645     -241.93111     -14813.068      10.638938    
     60000   1721.4431     -241.17141      1766.3675      10.641634    
     60500   1800.8682     -245.29264     -35823.613      10.618996    
     61000   1692.7039     -242.98876      15791.928      10.674979    
     61500   1656.6402     -241.18075      10097.336      10.639117    
     62000   1889.7898     -244.448       -4190.2674      10.69613     
     62500   1833.8978     -244.04542     -24371.169      10.707802    
     63000   1913.5797     -238.27527     -26620.759      10.67668     
     63500   1765.6575     -239.60281      31405.125      10.729136    
     64000   1582.2627     -239.99794     -4573.379       10.656283    
     64500   1854.3651     -243.54187      2038.9349      10.629001    
     65000   1699.7088     -241.91781     -5200.6838      10.637983    
     65500   1519.0581     -240.83074      61649.434      10.528511    
     66000   1567.6902     -241.52376      1256.7855      10.683535    
     66500   1890.2969     -240.01845     -8615.9732      10.706152    
     67000   1718.3051     -241.34391      2955.6767      10.665918    
     67500   1605.0046     -242.06996      33984.452      10.657066    
     68000   1821.9757     -241.3566       38832.683      10.574104    
     68500   1866.3345     -243.06874      14548.777      10.7411      
     69000   1855.7229     -239.31164      32965.817      10.632752    
     69500   1598.2013     -240.62737      14607.095      10.58621     
     70000   1560.0075     -241.00813     -6253.0859      10.644508    
     70500   1711.554      -240.76451      22693.385      10.654286    
     71000   1666.1635     -238.84901      3403.1699      10.670771    
     71500   1577.111      -239.40193      12923.839      10.634668    
     72000   1839.7946     -242.06162      14883.914      10.634924    
     72500   1824.5827     -241.56909     -26209.389      10.722831    
     73000   1730.9008     -238.55485      7277.9092      10.702728    
     73500   1687.0537     -241.69411      7968.5511      10.599101    
     74000   1729.8511     -240.85447     -17318.522      10.683478    
     74500   1706.3038     -239.60005      16023.203      10.572978    
     75000   1949.4758     -243.05109      8547.4251      10.652423    
     75010   1719.0563     -241.57556      8334.2629      10.647444    
Loop time of 14.1902 on 1 procs for 50000 steps with 64 atoms

Performance: 608.871 ns/day, 0.039 hours/ns, 3523.558 timesteps/s
98.9% CPU use with 1 MPI tasks x 1 OpenMP threads

MPI task timing breakdown:
Section |  min time  |  avg time  |  max time  |%varavg| %total
---------------------------------------------------------------
Pair    | 13.516     | 13.516     | 13.516     |   0.0 | 95.25
Bond    | 0.010823   | 0.010823   | 0.010823   |   0.0 |  0.08
Neigh   | 0.2509     | 0.2509     | 0.2509     |   0.0 |  1.77
Comm    | 0.12903    | 0.12903    | 0.12903    |   0.0 |  0.91
Output  | 0.056889   | 0.056889   | 0.056889   |   0.0 |  0.40
Modify  | 0.17843    | 0.17843    | 0.17843    |   0.0 |  1.26
Other   |            | 0.0479     |            |       |  0.34

Nlocal:             64 ave          64 max          64 min
Histogram: 1 0 0 0 0 0 0 0 0 0
Nghost:            502 ave         502 max         502 min
Histogram: 1 0 0 0 0 0 0 0 0 0
Neighs:              0 ave           0 max           0 min
Histogram: 1 0 0 0 0 0 0 0 0 0
FullNghs:         2654 ave        2654 max        2654 min
Histogram: 1 0 0 0 0 0 0 0 0 0

Total # of neighbors = 2654
Ave neighs/atom = 41.46875
Ave special neighs/atom = 0
Neighbor list builds = 1647
Dangerous builds = 0

unfix           1
unfix           2

reset_timestep 	0

# Dump trajectories in dump and dcd format
dump            myDump all atom ${out_freq2} si.lammps-dump-text
dump            myDump all atom 5000 si.lammps-dump-text

# NPT production

fix             1 all nph iso ${pressure} ${pressure} ${pressureDamp}
fix             1 all nph iso 1 ${pressure} ${pressureDamp}
fix             1 all nph iso 1 1 ${pressureDamp}
fix             1 all nph iso 1 1 1
fix             2 all temp/csvr ${temperature} ${temperature} ${tempDamp} ${seed}
fix             2 all temp/csvr 1700 ${temperature} ${tempDamp} ${seed}
fix             2 all temp/csvr 1700 1700 ${tempDamp} ${seed}
fix             2 all temp/csvr 1700 1700 0.1 ${seed}
fix             2 all temp/csvr 1700 1700 0.1 74581

velocity        all create ${temperature} ${seed} dist gaussian
velocity        all create 1700 ${seed} dist gaussian
velocity        all create 1700 74581 dist gaussian
run             500000
Per MPI rank memory allocation (min/avg/max) = 7.019 | 7.019 | 7.019 Mbytes
   Step          Temp          PotEng         Press            Lx      
         0   1700          -241.57556      8196.9452      10.647444    
       500   1639.0052     -243.25864     -18054.78       10.6192      
      1000   1629.0511     -239.08214     -40885.119      10.660004    
      1500   1651.3823     -242.61849      705.74709      10.614126    
      2000   1700.9838     -240.71493     -13559.194      10.68662     
      2500   1624.5232     -242.16504      8462.394       10.646419    
      3000   1528.3188     -241.73446     -2910.3366      10.676769    
      3500   1552.2879     -241.1855       16588.569      10.616479    
      4000   1643.7867     -240.11371     -30194.461      10.710623    
      4500   1516.3874     -240.39655      12814.753      10.637277    
      5000   1341.0835     -240.86729      17574.891      10.644135    
      5500   1676.0402     -237.08054     -23095.593      10.716506    
      6000   1515.1272     -241.48077     -1013.866       10.639275    
      6500   2047.005      -240.873       -27870.788      10.61396     
      7000   1406.189      -242.3371       15023.685      10.590285    
      7500   1603.6392     -239.90177      16544.52       10.670336    
      8000   1743.71       -238.44626     -1612.1521      10.676843    
      8500   1840.1401     -242.50592      24056.695      10.624103    
      9000   1779.3141     -245.23373      3294.7159      10.658847    
      9500   1864.0306     -243.31292     -16730.131      10.659563    
     10000   1653.0762     -239.93424      4965.5905      10.645446    
     10500   1489.4356     -240.46973     -24698.607      10.637547    
     11000   1437.1148     -241.40599     -4465.649       10.635229    
     11500   1692.472      -244.03879      9372.1947      10.602482    
     12000   2003.3786     -241.68684      8122.321       10.661206    
     12500   1632.8034     -240.1232      -5162.871       10.643718    
     13000   1547.3125     -237.39587     -13342.029      10.765669    
     13500   1877.8714     -236.98415      5477.8902      10.668975    
     14000   1441.8768     -238.61221      48699.827      10.54029     
     14500   1607.549      -240.07056     -11006.721      10.671966    
     15000   1531.7008     -239.07089     -20366.088      10.687868    
     15500   1338.2297     -242.77557      15730.989      10.616159    
     16000   1889.25       -241.8999       2361.3327      10.682861    
     16500   1467.9309     -241.17515      23304.874      10.623806    
     17000   1720.6701     -237.64213     -3887.1411      10.722514    
     17500   1878.8237     -240.78958     -22482.205      10.716298    
     18000   1679.9521     -241.04025      36486.693      10.681559    
     18500   1826.0481     -243.18737      4007.8575      10.681675    
     19000   1519.5918     -241.57034     -5894.1092      10.660643    
     19500   1595.8677     -239.98148     -12965.272      10.665308    
     20000   1730.546      -242.47739      5498.1654      10.591224    
     20500   1541.051      -240.26449     -3351.0765      10.609086    
     21000   1953.2469     -240.87957      10212.293      10.691978    
     21500   1842.5761     -239.77008      11240.815      10.795404    
     22000   1726.3793     -238.72894      20100.231      10.584306    
     22500   1758.5093     -239.23761     -12050.746      10.632904    
     23000   1486.4003     -243.18047      25761.02       10.592506    
     23500   1706.9043     -240.74293     -5420.9937      10.633795    
     24000   1618.7372     -241.2925       11406.914      10.61566     
     24500   1503.3823     -238.93923     -34801.405      10.682728    
     25000   1387.0486     -238.36644     -18243.84       10.643373    
     25500   1714.2209     -240.7373      -33903.402      10.61568     
     26000   1748.3541     -241.42119      5059.9399      10.635888    
     26500   1452.139      -241.67036      23811.061      10.629166    
     27000   1494.6343     -239.44956      24327.936      10.595527    
     27500   1490.9392     -242.79197     -11446.842      10.617767    
     28000   1750.7237     -240.22177      18570.096      10.628422    
     28500   1913.9457     -240.14786      21498.749      10.679676    
     29000   1679.628      -239.18304      26899.91       10.607171    
     29500   1513.1597     -239.57346     -23445.492      10.674302    
     30000   1473.5228     -241.68172      11782.941      10.625086    
     30500   1743.7155     -240.10035      16960.008      10.65157     
     31000   1700.8765     -241.59208     -42338.697      10.680236    
     31500   1704.8448     -240.60395      17380.368      10.637195    
     32000   1748.2801     -238.92558      22848.701      10.602807    
     32500   1822.0228     -239.95788     -17694.026      10.696199    
     33000   1592.3212     -240.27139      30308.808      10.627496    
     33500   1587.2358     -243.25949     -7787.2725      10.630224    
     34000   1729.6173     -240.29973     -19863.708      10.644023    
     34500   1885.6982     -242.43567     -31758.161      10.603702    
     35000   1659.0182     -240.92976     -19255.407      10.717488    
     35500   1495.8071     -243.2748      -3753.3535      10.709912    
     36000   1686.078      -242.45665      11842.851      10.6557      
     36500   1429.4788     -239.87592      21049.221      10.603105    
     37000   1755.9412     -243.35082     -18376.611      10.680944    
     37500   1740.1894     -244.04591      13136.649      10.634773    
     38000   1467.6523     -237.07015      39837.441      10.60228     
     38500   1635.9028     -240.38015      31458.838      10.636562    
     39000   1754.8423     -241.7939       35863.794      10.634636    
     39500   1772.2395     -242.85824      18844.856      10.6052      
     40000   1768.1168     -241.85257     -12242.454      10.621353    
     40500   1653.9822     -242.39417      15707.934      10.644044    
     41000   1596.9048     -240.63138     -30222.388      10.803028    
     41500   1866.5172     -241.00675     -17909.1        10.747322    
     42000   1861.9477     -242.16995      17936.298      10.592031    
     42500   1328.192      -238.34251      28630.334      10.609553    
     43000   1830.3771     -241.24104      21256.782      10.583503    
     43500   1631.5897     -243.20227     -30383.291      10.722451    
     44000   1646.5411     -239.94675     -25535.14       10.715605    
     44500   1812.1977     -243.24374     -14216.947      10.670493    
     45000   1423.1272     -242.78407      7914.7534      10.668009    
     45500   1914.2155     -243.23652     -15188.853      10.733984    
     46000   1756.2956     -240.06188     -1183.0835      10.599527    
     46500   2003.3108     -241.65929      23647.623      10.631163    
     47000   2050.1719     -242.16286      28859.269      10.630673    
     47500   1973.9998     -241.65714     -35080.376      10.78305     
     48000   1654.4645     -237.58164      50453.766      10.622268    
     48500   1745.2778     -241.31808     -37229.142      10.65008     
     49000   1565.6266     -240.00169      25713.137      10.614709    
     49500   1992.7505     -241.31407      22947.198      10.664247    
     50000   1785.4307     -241.66856      1770.9406      10.649509    
     50500   1892.668      -241.19636      3223.4427      10.643547    
     51000   1730.7625     -241.60934      7921.8021      10.624024    
     51500   1649.4352     -241.86564     -517.65218      10.664503    
     52000   2040.728      -242.90694      34058.464      10.60734     
     52500   2029.669      -241.45386     -16405.966      10.677439    
     53000   1695.7399     -243.80631     -12446.167      10.6251      
     53500   1634.6863     -240.90091      12890.77       10.649005    
     54000   1634.4914     -243.06908      608.62174      10.568782    
     54500   1518.2486     -242.33712      5076.687       10.620919    
     55000   1831.5668     -239.86561      17363.379      10.627533    
     55500   1659.3201     -241.25085      5098.5519      10.636739    
     56000   1614.2327     -241.00134     -446.56457      10.724418    
     56500   2220.4123     -241.93897      23415.981      10.623605    
     57000   1685.3309     -241.8899       5269.8206      10.642704    
     57500   1488.274      -240.88913      1054.2369      10.607307    
     58000   1985.9661     -242.55762     -13645.955      10.631048    
     58500   1712.0057     -237.25714     -19264.773      10.722741    
     59000   1730.9219     -242.59599     -298.7601       10.667827    
     59500   1707.4015     -239.52122      33101.318      10.639251    
     60000   1614.872      -240.11242      4930.7942      10.660394    
     60500   1521.7671     -243.38349     -15360.55       10.646274    
     61000   1732.5243     -241.5111       23448.371      10.600509    
     61500   1574.1415     -241.34996     -35944.188      10.718991    
     62000   2005.4477     -243.18721     -10991.667      10.671749    
     62500   1749.4885     -243.49476      30678.821      10.598868    
     63000   1560.1505     -244.49036     -17207.554      10.64438     
     63500   1483.8646     -240.55687     -34950.811      10.692953    
     64000   1442.3938     -241.50211     -14256.449      10.661786    
     64500   1514.2828     -242.18971      23552.052      10.605917    
     65000   1724.6845     -241.06683      384.62164      10.633374    
     65500   1883.9421     -241.6858       9628.9699      10.668626    
     66000   1708.7111     -238.27124     -27924.926      10.747269    
     66500   1553.7853     -242.85798      30203.022      10.556588    
     67000   1477.9783     -241.13503     -10811.078      10.678019    
     67500   1567.8536     -241.83596      32589.51       10.635584    
     68000   1855.4238     -237.82654     -16484.173      10.75464     
     68500   1944.3005     -241.15305      29140.973      10.567623    
     69000   1920.0602     -241.44954      6354.8442      10.681521    
     69500   2022.9646     -239.34245      47995.434      10.572781    
     70000   1715.8149     -243.37386     -3540.6088      10.614847    
     70500   1525.7561     -240.08332      21208.12       10.709846    
     71000   1571.9037     -243.76386     -1621.0008      10.674361    
     71500   1997.1895     -241.344        5893.7213      10.64899     
     72000   1390.7427     -241.49504     -3996.0578      10.646506    
     72500   1647.8621     -240.50286      14331.641      10.668027    
     73000   1761.3059     -240.65776     -10403.038      10.676351    
     73500   1808.671      -239.59826     -10115.488      10.681927    
     74000   1587.2071     -242.87675      2179.8805      10.602636    
     74500   1949.4868     -239.07763      16570.649      10.634082    
     75000   1683.4169     -241.45175      1898.0661      10.71959     
     75500   1631.7475     -241.99308      4404.3131      10.620822    
     76000   1580.7545     -241.78842     -14495.93       10.739784    
     76500   1842.1728     -240.96365     -19327.859      10.762792    
     77000   1821.9495     -242.50218      39631.308      10.608556    
     77500   1664.2544     -240.18576     -30636.194      10.677521    
     78000   1517.3624     -243.58467     -13254.982      10.698524    
     78500   1676.0552     -242.19987     -30252.898      10.720145    
     79000   1819.8224     -242.5088      -4606.1283      10.702099    
     79500   1748.4376     -241.89429     -32699.323      10.617902    
     80000   1835.4174     -238.15378      24324.85       10.70442     
     80500   1484.6898     -241.89636      24479.28       10.574605    
     81000   2018.0137     -241.37244      27473.804      10.583103    
     81500   1718.9009     -239.97709     -11951.519      10.692521    
     82000   1266.0416     -240.50348      350.95584      10.606982    
     82500   1758.0304     -239.93274      27641.747      10.617639    
     83000   1707.067      -241.19443      6406.2837      10.600163    
     83500   1802.6358     -240.51778      20818.507      10.685216    
     84000   1743.6167     -238.93975      14419.963      10.722515    
     84500   1534.4681     -243.17358     -7399.6106      10.701948    
     85000   1447.1225     -241.77138     -16555.042      10.692155    
     85500   1607.6244     -241.00515     -18357.81       10.611548    
     86000   1681.1326     -242.60394      7320.5714      10.605307    
     86500   1385.78       -242.95349     -23758.209      10.727838    
     87000   1483.249      -239.59253      737.3139       10.783332    
     87500   1651.4055     -243.08279     -26968.963      10.648548    
     88000   1875.2544     -242.47106     -3838.8755      10.634265    
     88500   1747.3673     -239.56349      2848.6779      10.641244    
     89000   1878.4656     -243.23777      13134.646      10.653842    
     89500   1616.6254     -243.2094       9797.9222      10.615774    
     90000   1778.7172     -240.26069      22626.51       10.613434    
     90500   1777.5904     -238.10237      27343.346      10.632796    
     91000   1572.0035     -237.37992     -12091.062      10.687246    
     91500   1337.7697     -243.61713     -20939.474      10.644485    
     92000   1544.5638     -242.45236     -17259.756      10.559148    
     92500   1633.3663     -241.04221     -13019.106      10.660379    
     93000   1738.3293     -237.47303      2854.9352      10.696601    
     93500   1675.1698     -240.37923      9825.3604      10.631994    
     94000   2003.7858     -241.20058      11774.437      10.623266    
     94500   1631.3533     -241.93475     -14105.472      10.790855    
     95000   1923.9326     -241.30034     -10573.178      10.728666    
     95500   1648.2641     -240.25047      7133.7678      10.674353    
     96000   1662.2439     -242.64516      33671.301      10.553309    
     96500   1704.634      -239.85326     -15529.346      10.713918    
     97000   1712.5762     -241.28987      19595.988      10.679576    
     97500   1897.4235     -243.72809     -23708.082      10.6545      
     98000   1657.2364     -241.63349     -32290.898      10.657152    
     98500   1730.3342     -241.08668     -660.65721      10.621203    
     99000   1691.4793     -243.16192     -8320.417       10.636914    
     99500   1797.1113     -240.58424      15638.622      10.582204    
    100000   1895.8651     -239.10246      4506.8604      10.635712    
    100500   1684.0657     -242.02654     -21070.638      10.641879    
    101000   1544.6021     -244.85524      709.27584      10.747348    
    101500   1740.0507     -243.76652      29403.884      10.57967     
    102000   1488.3242     -244.98286      23337.272      10.623199    
    102500   1605.4339     -240.74044      32757.362      10.56469     
    103000   1568.694      -240.46484     -37181.391      10.648819    
    103500   1665.4663     -241.56097     -6466.0448      10.645633    
    104000   1577.799      -241.02401     -20121.462      10.681109    
    104500   1425.5228     -240.33367      26343.34       10.591734    
    105000   1564.1853     -239.66535      15435.49       10.68475     
    105500   1820.7107     -242.84684      200.50737      10.647915    
    106000   1477.2567     -241.41541     -2105.454       10.633929    
    106500   1386.8914     -241.37925      25708.055      10.661255    
    107000   1850.994      -239.01795      9760.3416      10.716626    
    107500   1672.4665     -241.47704     -17233.997      10.604074    
    108000   1729.2761     -240.60845      37640.406      10.615989    
    108500   1612.4876     -239.09609     -36062.54       10.629472    
    109000   1877.1788     -240.05729      59191.425      10.565073    
    109500   1386.8922     -245.23272      25490.253      10.541121    
    110000   1645.6882     -242.3933       13213.438      10.612463    
    110500   1719.9943     -240.75694      41687.493      10.595446    
    111000   1631.1841     -242.20033      20958.689      10.571633    
    111500   1741.0883     -240.48353      14318.75       10.639341    
    112000   1885.7498     -238.16251      27749.573      10.585425    
    112500   1982.7664     -239.3527      -15990.07       10.631838    
    113000   1489.3475     -242.06299     -8033.984       10.633617    
    113500   1812.7945     -241.32501     -12226.721      10.701062    
    114000   2108.9472     -239.5474       583.32152      10.623228    
    114500   1735.354      -241.03235     -7002.0009      10.65524     
    115000   1667.8307     -242.34534      38548.663      10.557021    
    115500   1872.2323     -240.39424      15653.123      10.612714    
    116000   1555.9493     -240.89242     -19984.042      10.633456    
    116500   1582.6671     -241.57729      28103.622      10.632117    
    117000   1777.2004     -241.90751      35604.498      10.668216    
    117500   1262.9789     -242.31128      4319.4208      10.642786    
    118000   1555.6881     -242.10983      36492.284      10.580658    
    118500   1512.8224     -240.90594     -29811.008      10.680097    
    119000   1977.8894     -240.88683      7479.0791      10.609185    
    119500   1608.6101     -241.73844      4865.3141      10.595178    
    120000   1634.8607     -239.71751      299.94721      10.682638    
    120500   1582.7265     -239.75363      19141.418      10.617539    
    121000   1597.1931     -239.41049      2208.6859      10.622774    
    121500   1728.6469     -238.79776     -59822.998      10.755757    
    122000   1715.357      -241.61687     -9777.5302      10.774042    
    122500   2031.8454     -242.6065       2435.3816      10.724882    
    123000   1706.6783     -242.27861      23963.219      10.730053    
    123500   1619.7237     -242.91798      31963.425      10.624799    
    124000   1682.8484     -241.79732     -10664.944      10.66091     
    124500   1762.2339     -241.70572      43559.587      10.57035     
    125000   1657.7412     -241.89479     -27005.448      10.702969    
    125500   1497.9119     -241.79549      4479.6932      10.729993    
    126000   1521.1023     -238.37998      18944.358      10.644925    
    126500   1658.1297     -238.14144      30225.951      10.677608    
    127000   1761.9409     -240.34296      334.36996      10.675792    
    127500   1481.8803     -242.89138      32214.259      10.592899    
    128000   1549.2075     -242.38882      53949.596      10.636807    
    128500   1846.5364     -242.20839     -11406.187      10.713055    
    129000   2160.5308     -243.06751      16348.237      10.666806    
    129500   1840.7131     -243.6705      -29022.708      10.784052    
    130000   1758.8588     -242.17562     -23445.864      10.720855    
    130500   1717.0618     -245.14449      4781.1505      10.560606    
    131000   1844.208      -240.3614       265.4737       10.691415    
    131500   1677.946      -240.73546      5011.6539      10.631417    
    132000   1687.8919     -242.79361      58649.462      10.53195     
    132500   1763.8753     -244.19907      29516.879      10.543753    
    133000   1630.1692     -241.31999     -2194.1723      10.656413    
    133500   1503.2451     -239.69828     -1057.2163      10.610284    
    134000   2099.8685     -242.67717      13598.067      10.628937    
    134500   1487.1756     -242.28746      7687.4289      10.659521    
    135000   1704.1422     -242.56297     -583.49856      10.617397    
    135500   1362.8927     -241.49138     -13937.789      10.64651     
    136000   1535.197      -243.49227      5755.7562      10.650197    
    136500   2060.2002     -242.58522      49712.274      10.577234    
    137000   1627.7046     -243.82274     -11353.077      10.648936    
    137500   2010.0498     -242.51224     -5298.8349      10.617139    
    138000   1566.489      -240.3103       4038.2474      10.646665    
    138500   1676.6278     -242.22463     -18093.819      10.627271    
    139000   1648.8928     -237.57817     -7770.9887      10.709413    
    139500   1699.3732     -240.73555      22462.458      10.595952    
    140000   1710.192      -242.05972     -11597.601      10.729132    
    140500   2044.1398     -240.82247     -31928.277      10.803317    
    141000   1747.1646     -242.5413       52851.853      10.664109    
    141500   1519.9054     -241.52669     -7847.2944      10.693619    
    142000   1508.7994     -240.29713     -14916.259      10.715968    
    142500   1866.5306     -242.6384      -21193.295      10.711879    
    143000   1643.3634     -240.27149     -1389.6459      10.701995    
    143500   1745.504      -242.56447     -18644.126      10.7286      
    144000   1982.4633     -242.2554      -30320.672      10.704835    
    144500   1790.7147     -240.423        5371.1176      10.648916    
    145000   1863.8566     -241.44119      29690.306      10.598098    
    145500   1679.8364     -240.3233       4065.2019      10.633769    
    146000   1760.0285     -239.75574     -26691.842      10.704886    
    146500   1548.6226     -238.2127      -29363.302      10.683736    
    147000   1724.647      -241.63309      12670.649      10.608095    
    147500   1576.5642     -241.03897      2727.0407      10.664599    
    148000   1818.1395     -240.71883     -1338.0028      10.66733     
    148500   1405.0612     -241.24444     -37650.757      10.708487    
    149000   1458.8443     -238.16908      5827.6503      10.657084    
    149500   1668.7151     -244.42319      3507.5012      10.592838    
    150000   1866.9785     -240.72679     -33804.67       10.626912    
    150500   1637.371      -243.98229      7949.2365      10.640598    
    151000   1742.3377     -243.95607     -10712.346      10.580792    
    151500   1888.1189     -244.92214     -25256.585      10.593107    
    152000   1800.7391     -238.69785      11291.657      10.641901    
    152500   1738.3202     -238.56        -14203.635      10.585245    
    153000   1862.8506     -242.4789       1003.3459      10.637484    
    153500   1603.9997     -238.69086      3295.9147      10.669973    
    154000   1573.1667     -241.33812      38844.055      10.671935    
    154500   1428.0733     -241.68804     -4575.3713      10.674975    
    155000   1432.4817     -244.3207      -9852.2798      10.675951    
    155500   1693.3983     -242.12154     -4647.4561      10.684051    
    156000   1670.4277     -239.51971      6594.1069      10.672632    
    156500   1898.3314     -241.98132      13712.256      10.547622    
    157000   1833.6903     -241.65243     -25719.985      10.713671    
    157500   1917.1514     -244.47239     -2602.5986      10.677334    
    158000   1610.435      -236.20445      26132.126      10.698539    
    158500   1560.5382     -242.8916       8915.4073      10.649854    
    159000   1540.5721     -243.68098     -39688.286      10.706286    
    159500   1663.2682     -241.99641      40475.707      10.568298    
    160000   1727.124      -244.4876      -19365.908      10.677392    
    160500   1650.2315     -243.51329     -15322.415      10.620332    
    161000   2117.5045     -243.00175      17294.697      10.664047    
    161500   1630.5954     -242.39443     -9672.0784      10.713695    
    162000   1718.5583     -240.41411      19842.059      10.592519    
    162500   1480.947      -237.74329     -36937.331      10.689271    
    163000   1655.0701     -239.86854     -23720.435      10.718008    
    163500   1934.0262     -241.66676      11142.226      10.652863    
    164000   1652.9644     -240.66203     -26441.048      10.629081    
    164500   1372.4451     -239.79263      3422.4638      10.689152    
    165000   1650.5751     -241.63066      29275.362      10.608842    
    165500   1856.2505     -242.34636      8460.526       10.582073    
    166000   1676.3941     -242.08959      28059.103      10.577217    
    166500   1811.9395     -241.07075      60689.856      10.504558    
    167000   1942.0302     -242.69223     -468.18059      10.613191    
    167500   1639.0114     -238.92497     -20588.699      10.701214    
    168000   1770.2609     -239.34026     -29543.588      10.800273    
    168500   2232.1579     -243.97285      16212.404      10.598916    
    169000   1668.0577     -242.3464       26874.019      10.667996    
    169500   1715.402      -240.93945     -16098.584      10.608737    
    170000   1897.6007     -241.52978     -22730.697      10.664125    
    170500   1751.6678     -240.95129     -1860.2724      10.634352    
    171000   1904.2832     -242.58858      55105.832      10.545228    
    171500   1783.2651     -239.57935      10759.281      10.666356    
    172000   1646.309      -239.71036      37822.724      10.633221    
    172500   1879.159      -240.56552     -1127.8181      10.695773    
    173000   1593.5064     -244.91637     -27658.779      10.641297    
    173500   1747.3068     -240.70902     -14968.252      10.705395    
    174000   1807.3006     -238.27064      17693.005      10.658063    
    174500   1712.6409     -239.97509      15391.493      10.773473    
    175000   1673.5206     -242.26074      16595.384      10.690762    
    175500   1502.8297     -238.75363      68558.896      10.52941     
    176000   1915.0659     -241.399       -35900.312      10.76251     
    176500   1761.0435     -241.95879      7139.6133      10.607144    
    177000   1487.806      -241.74387      1404.6134      10.675602    
    177500   1631.5887     -243.49658      44554.603      10.591508    
    178000   1789.0454     -242.29366      9747.0381      10.628707    
    178500   1685.9126     -240.59075     -18805.638      10.649462    
    179000   2071.1993     -238.29584     -56446.928      10.78505     
    179500   1658.9346     -239.47576     -26017.824      10.766915    
    180000   1658.3761     -239.17999     -21168.091      10.702735    
    180500   1663.4428     -239.9628      -20520.504      10.664844    
    181000   1546.376      -242.38641      4799.3944      10.64346     
    181500   1692.4345     -240.58276      6248.8117      10.672608    
    182000   1514.7775     -239.7503      -5193.3012      10.777266    
    182500   1529.0407     -239.51328      10143.216      10.682318    
    183000   1373.154      -239.99308     -1194.537       10.716883    
    183500   1479.8824     -240.62471     -10888.255      10.659738    
    184000   1641.548      -242.26258      4935.1497      10.646309    
    184500   1564.3262     -237.41831     -16666.639      10.726202    
    185000   1652.3687     -243.18988      643.75776      10.632346    
    185500   1718.4837     -240.95402     -3987.4618      10.612861    
    186000   1798.5235     -238.49993     -4838.8433      10.643461    
    186500   1717.9973     -242.22666      6012.5708      10.633338    
    187000   1607.9157     -239.31545      43868.405      10.579227    
    187500   2014.5689     -242.01264      4571.4138      10.679292    
    188000   1584.865      -238.11073     -12662.746      10.67809     
    188500   1581.344      -241.25093     -27313.874      10.67184     
    189000   1957.0693     -244.48078     -11264.88       10.753416    
    189500   1704.6868     -240.73545     -16073.654      10.640701    
    190000   1854.1076     -243.64588     -11068.711      10.732994    
    190500   1931.4881     -239.60106      35010.752      10.598522    
    191000   1623.903      -241.48386     -32347.154      10.699826    
    191500   1547.0927     -236.37899      36649.006      10.649214    
    192000   1551.6406     -241.46968      678.52445      10.616972    
    192500   1655.1419     -239.59842     -13430.432      10.639088    
    193000   1845.4944     -241.15328      13670.862      10.657438    
    193500   1852.3755     -241.9182      -26475.231      10.699821    
    194000   1669.5188     -242.54097      3256.0987      10.688569    
    194500   1466.2007     -242.34112     -20403.568      10.614841    
    195000   1630.1596     -240.71857      12468.032      10.615473    
    195500   1680.5444     -238.04212     -47456.905      10.634079    
    196000   1378.0626     -245.96417      46826.837      10.561177    
    196500   1601.061      -241.99514     -16835.99       10.71093     
    197000   1572.1236     -243.86267     -6364.3218      10.671377    
    197500   1991.417      -240.63192     -22847.113      10.742417    
    198000   1744.275      -238.84536      4140.349       10.673503    
    198500   1533.6521     -242.41987     -18815.383      10.628085    
    199000   1638.4387     -239.66748      12522.694      10.676626    
    199500   1602.8321     -241.61041      10033.048      10.728494    
    200000   2025.4385     -241.25855      9483.8096      10.641306    
    200500   1674.0907     -239.22355      20516.291      10.677836    
    201000   1613.2277     -241.7301       21539.824      10.625077    
    201500   1834.7648     -241.19282      285.39348      10.752078    
    202000   1812.1037     -242.52664      1413.8487      10.630124    
    202500   1724.2285     -241.36677     -6535.0208      10.674464    
    203000   1341.3106     -240.36999     -17754.335      10.810774    
    203500   1899.2956     -241.52971     -7362.899       10.675755    
    204000   1971.628      -242.06646      24869.466      10.645707    
    204500   1689.3111     -241.33693     -15593.119      10.75042     
    205000   1705.2543     -241.41367      13652.748      10.631245    
    205500   1555.1752     -239.91405     -3556.2197      10.68725     
    206000   1706.3949     -238.11625      11794.127      10.636608    
    206500   1898.2224     -243.09886      4624.941       10.625775    
    207000   1465.1361     -239.00347     -11554.31       10.731283    
    207500   1660.5551     -239.9126      -5624.2748      10.646167    
    208000   1160.03       -238.15293      12072          10.687948    
    208500   1757.8609     -242.47279      44875.546      10.637628    
    209000   1572.6747     -242.29248      9644.7497      10.634376    
    209500   1849.3827     -242.74451      737.80514      10.689187    
    210000   1896.2429     -240.51948      47189.837      10.597773    
    210500   1860.2659     -240.69413     -18632.489      10.72233     
    211000   1711.327      -239.10406      57477.571      10.615356    
    211500   1353.5222     -240.32949     -9092.1071      10.654227    
    212000   1779.6669     -241.13438     -24936.966      10.661675    
    212500   1714.3795     -241.50757      31622.242      10.631881    
    213000   1703.9916     -241.06715      28110.436      10.666836    
    213500   1884.8948     -245.20487     -8280.3353      10.603181    
    214000   1530.1827     -242.02434     -21228.161      10.620053    
    214500   1553.0785     -238.71937      21432.649      10.60509     
    215000   1738.9942     -241.14907     -8431.3275      10.69237     
    215500   1600.4322     -241.38831     -5048.7162      10.661858    
    216000   1770.0102     -240.96604      22963.566      10.682166    
    216500   1743.3821     -239.86193     -5396.5468      10.643148    
    217000   1689.4332     -241.92807      31410.245      10.601974    
    217500   1681.0206     -239.4205      -23238.283      10.683893    
    218000   1685.1278     -243.30337     -15904.334      10.679956    
    218500   1883.3803     -241.62769      46.259343      10.67634     
    219000   1831.0194     -241.80628      3784.8211      10.542447    
    219500   1880.2494     -242.24709      20087.728      10.687915    
    220000   1289.4142     -238.25813     -15311.343      10.683145    
    220500   1792.5585     -240.61697     -23993.045      10.73109     
    221000   1804.5292     -237.7695       22461.78       10.644897    
    221500   1807.4251     -237.68683     -35922.579      10.733625    
    222000   1523.1971     -240.7029      -3072.2142      10.638108    
    222500   1866.7043     -241.27319     -25349.893      10.649614    
    223000   1897.1805     -238.79916      33788.545      10.77438     
    223500   1803.9207     -240.29047     -2669.0423      10.670249    
    224000   1680.4404     -241.52266     -2325.6962      10.653761    
    224500   1773.7355     -240.34639      10827.181      10.651904    
    225000   1366.4952     -243.07421     -10401.196      10.636138    
    225500   1728.2679     -240.53299      11464.047      10.623034    
    226000   1803.9712     -240.35874      627.82188      10.671298    
    226500   1709.9277     -237.52598     -49854.085      10.787041    
    227000   1562.6742     -240.0044       19491.833      10.640219    
    227500   2160.3747     -242.34349      4491.5379      10.624657    
    228000   1701.7171     -241.25542     -7086.9466      10.664013    
    228500   1830.7244     -238.4534       7391.1983      10.707521    
    229000   1722.4167     -240.65433      17819.109      10.635125    
    229500   1611.7731     -241.37084     -18967.56       10.715437    
    230000   1777.3462     -240.56823      5610.9887      10.684966    
    230500   1891.8455     -240.13578      7685.3022      10.674593    
    231000   1598.8937     -244.69868     -38417.544      10.705275    
    231500   1773.8245     -238.34384     -25751.1        10.665674    
    232000   1657.3122     -242.54175     -9022.1722      10.682737    
    232500   1486.5388     -242.19743      58784.156      10.592172    
    233000   1739.0308     -239.38895     -10098.93       10.730839    
    233500   1587.0806     -239.45797      2185.202       10.691506    
    234000   1563.0529     -245.25272      27069.274      10.667403    
    234500   1698.3671     -239.84734     -12946.292      10.624733    
    235000   1741.3224     -241.03597      35558.814      10.532578    
    235500   1491.404      -243.30943     -8788.6902      10.641123    
    236000   1598.6441     -239.67959     -13776.205      10.687149    
    236500   1514.2552     -239.61952      42987.976      10.575198    
    237000   1565.7303     -238.65771     -22450.823      10.658695    
    237500   1409.3267     -241.44886      29661.416      10.60201     
    238000   1291.0619     -238.68827     -31480.244      10.704136    
    238500   1445.4293     -244.09718      812.70691      10.669074    
    239000   1719.278      -241.59473     -24742.972      10.674316    
    239500   1844.5392     -240.39687      41396.425      10.593568    
    240000   1756.2415     -241.29992     -8890.1061      10.61576     
    240500   1698.9196     -245.18024      52763.136      10.622849    
    241000   1544.4673     -239.75         15736.663      10.686144    
    241500   1379.8563     -239.52675     -39044.343      10.711974    
    242000   1437.9752     -239.91854     -27304.95       10.730338    
    242500   1620.6334     -241.29651      24769.107      10.611556    
    243000   1561.2397     -242.78336     -32539.024      10.66925     
    243500   1838.7767     -243.21831     -13544.169      10.609613    
    244000   1903.7469     -241.04197      14240.896      10.666739    
    244500   1494.9713     -244.44166      14034.077      10.614419    
    245000   1806.2039     -242.78465      34028.572      10.613006    
    245500   1584.7583     -241.00678      336.32055      10.679933    
    246000   1479.2938     -240.94262     -3451.0395      10.598347    
    246500   1568.871      -238.45475     -25709.121      10.664502    
    247000   1813.1944     -241.43177     -11750.36       10.651562    
    247500   1710.9448     -239.0953      -14128.3        10.671866    
    248000   1820.4615     -246.33439      25139.1        10.571686    
    248500   1618.9857     -240.48816      23080.97       10.614566    
    249000   1730.6887     -238.27017      19243.005      10.670477    
    249500   1580.1832     -238.92759      15100.643      10.573364    
    250000   1569.9669     -239.21006     -5269.6638      10.613992    
    250500   1773.5433     -241.11953      10749.911      10.65366     
    251000   1988.344      -242.10368      17607.61       10.639204    
    251500   1567.9475     -241.70284      19782.868      10.617259    
    252000   1698.0546     -242.00387      1346.9073      10.628638    
    252500   1931.3741     -243.03059     -6308.703       10.626102    
    253000   1642.138      -241.2876       68879.203      10.515068    
    253500   1404.8472     -242.39781     -45568.029      10.651622    
    254000   1969.7578     -240.96784      49834.552      10.539781    
    254500   1821.773      -239.47773     -21138.314      10.699692    
    255000   1821.3068     -243.94123     -8923.4769      10.657422    
    255500   1385.7654     -241.64356      18982.434      10.63246     
    256000   1839.6369     -242.8064       37487.889      10.55113     
    256500   1925.8621     -240.96558      8308.6523      10.677217    
    257000   1679.7767     -239.91657      9556.9725      10.65319     
    257500   1779.2851     -240.81107      5628.9865      10.695495    
    258000   1492.1754     -241.62325     -15840.506      10.643535    
    258500   1543.5259     -239.88535     -26651.802      10.603739    
    259000   1610.3433     -239.18783      15796.539      10.565385    
    259500   1765.7204     -243.91186      11289.857      10.633125    
    260000   1463.9105     -240.40638     -17664.919      10.652707    
    260500   1862.0905     -243.14303      3062.2337      10.684883    
    261000   1732.7874     -240.5746       15823.693      10.609394    
    261500   1822.4169     -238.6944       15306.955      10.528396    
    262000   1971.2226     -243.05062      10961.121      10.620681    
    262500   1825.7299     -244.37702     -10197.039      10.62992     
    263000   1544.8571     -241.48557      20967.422      10.579637    
    263500   1578.1644     -239.47159     -6141.1792      10.669603    
    264000   1431.3527     -243.5294      -15788.745      10.725872    
    264500   1830.0213     -241.48999      2740.137       10.644001    
    265000   1507.3196     -247.81561     -2395.7612      10.663471    
    265500   1588.4017     -242.21336      5174.1462      10.656152    
    266000   2052.2979     -244.19447      11407.778      10.596805    
    266500   1566.6043     -239.43512     -10889.941      10.650393    
    267000   1394.3296     -240.31164      8772.4962      10.657524    
    267500   1486.7167     -240.79911     -16256.896      10.665878    
    268000   1826.0769     -241.93569     -15603.655      10.629722    
    268500   1753.7756     -239.97771      7498.3405      10.639943    
    269000   1641.9343     -242.30072      4261.0099      10.640869    
    269500   1707.3561     -242.93278      5875.083       10.61318     
    270000   2020.8346     -243.76767      2836.583       10.583953    
    270500   1640.3741     -239.14732      4225.904       10.671857    
    271000   1571.657      -243.15023      18164.943      10.610744    
    271500   1681.169      -239.02924     -9255.7182      10.605989    
    272000   1736.7449     -242.60503     -9310.5145      10.59268     
    272500   1737.4014     -240.43901      3409.7548      10.597184    
    273000   1873.3207     -240.10104     -13834.848      10.664761    
    273500   1885.917      -244.58625      10118.575      10.69543     
    274000   1768.8634     -239.22537     -15595.238      10.698164    
    274500   1821.6065     -242.41242      52960.199      10.543889    
    275000   2129.2421     -242.27215     -9854.3692      10.662415    
    275500   1849.5054     -243.2855       22996.208      10.564516    
    276000   2007.798      -237.62698      24439.865      10.587514    
    276500   1731.8888     -240.86111      13789.45       10.731332    
    277000   1809.7566     -242.15737     -3058.0112      10.694532    
    277500   1605.3948     -242.99741      951.4437       10.691028    
    278000   1627.5596     -240.24648      47712.763      10.613547    
    278500   1516.6217     -239.57343     -1185.9414      10.692258    
    279000   1712.7933     -244.03458     -9844.0141      10.672072    
    279500   1945.9618     -242.7281       43166.753      10.563063    
    280000   1825.5323     -241.7675       4364.0671      10.582819    
    280500   1532.6388     -242.52928     -3280.7292      10.562092    
    281000   1930.9014     -242.55982     -6890.489       10.711649    
    281500   1789.2503     -242.76218     -5361.9052      10.682213    
    282000   1594.8571     -244.19977     -14186.613      10.674472    
    282500   1548.631      -243.77226      12436.894      10.677018    
    283000   2085.2191     -243.93828     -6487.8685      10.612321    
    283500   2279.1068     -238.20288      12269.757      10.580874    
    284000   1558.8995     -238.05797     -23854.082      10.683722    
    284500   1677.9568     -241.95249     -60703.183      10.7017      
    285000   1717.4479     -240.11877     -10369.628      10.700838    
    285500   1873.5253     -239.07545     -29241.665      10.699611    
    286000   1188.3256     -240.53773     -27614.086      10.697591    
    286500   1625.3562     -239.61293      10458.188      10.645274    
    287000   1427.5834     -242.12497     -26134.998      10.759798    
    287500   1645.3976     -241.68892      6072.4078      10.600517    
    288000   2010.32       -241.21412      5982.6163      10.666689    
    288500   1855.0677     -239.62795      7851.5664      10.73975     
    289000   1720.0162     -244.55128     -35968.314      10.760818    
    289500   1545.3272     -242.04261      32680.51       10.575709    
    290000   1675.5405     -238.04179      2949.3827      10.68634     
    290500   1840.0123     -241.05153     -2139.3338      10.619116    
    291000   1725.3823     -238.59036     -45376.64       10.773432    
    291500   1833.0703     -241.61629      11132.069      10.723353    
    292000   1601.5522     -240.41352      7040.7188      10.665265    
    292500   1711.2471     -245.43658     -8395.1619      10.624212    
    293000   1484.2564     -239.68963      24373.119      10.666006    
    293500   1918.842      -244.36697     -22313.121      10.639684    
    294000   1764.5522     -238.21507     -22574.958      10.702093    
    294500   1781.801      -241.61096      5584.4467      10.690861    
    295000   1712.749      -241.76071     -11924.793      10.596879    
    295500   1622.9343     -241.31388     -22720.233      10.679294    
    296000   1921.3901     -242.25703      46622.95       10.594157    
    296500   1514.5282     -240.56038     -15751.991      10.82039     
    297000   1525.5688     -240.45939     -14905.536      10.69853     
    297500   1757.6407     -238.9862       25745.706      10.605411    
    298000   1740.093      -240.4835       936.81218      10.676951    
    298500   1288.1715     -241.98358     -29085.061      10.722456    
    299000   1380.2198     -241.70085     -2532.5033      10.761507    
    299500   1573.13       -244.69095      33078.473      10.608052    
    300000   1628.7066     -238.08333      18371.925      10.651477    
    300500   1560.0041     -241.29346     -16643.57       10.700268    
    301000   1600.7023     -238.83856     -29007.457      10.608551    
    301500   1797.9103     -239.67324     -9532.8105      10.67572     
    302000   1381.4035     -237.59038     -7736.7296      10.670532    
    302500   1697.2845     -239.05504      38744.955      10.628657    
    303000   1419.0638     -240.54384     -2849.0564      10.630618    
    303500   1772.69       -239.74565     -23105.661      10.664138    
    304000   1821.1773     -243.1122       5377.5673      10.721384    
    304500   1331.2088     -238.43539      42076.81       10.606385    
    305000   1964.0451     -240.3091      -42398.902      10.733448    
    305500   1836.6087     -242.13003      10479.3        10.626189    
    306000   1417.6779     -242.18277     -44104.042      10.682071    
    306500   1850.771      -242.4072      -2013.7813      10.634878    
    307000   1957.4041     -244.53447     -7068.9585      10.684191    
    307500   1564.5587     -239.17704     -7740.3779      10.687868    
    308000   1661.1243     -240.60667      51709.999      10.552154    
    308500   1885.6286     -237.45941     -21962.73       10.784583    
    309000   1645.9998     -242.28952      3743.7576      10.650475    
    309500   1633.0616     -243.8605       4946.4474      10.638449    
    310000   1599.4603     -239.90891      2766.0686      10.63779     
    310500   1697.7415     -243.54351      11994.992      10.622815    
    311000   1793.1017     -239.42965     -19679.696      10.69656     
    311500   1521.2424     -239.94753     -22931.496      10.680015    
    312000   1651.3501     -237.98068      3551.9822      10.628005    
    312500   1890.3053     -238.02371     -53706.282      10.738608    
    313000   1754.2787     -238.32106      44517.133      10.688235    
    313500   1562.8264     -244.20009      8424.6236      10.636923    
    314000   1591.7903     -239.62536      21735.656      10.586974    
    314500   1852.5064     -241.30616      4167.5089      10.641374    
    315000   1533.1084     -241.43637     -36795.502      10.664177    
    315500   1475.3117     -241.64335      18058.458      10.6077      
    316000   1596.4567     -244.26355     -35121.927      10.765041    
    316500   1392.0016     -241.59847      11330.218      10.587788    
    317000   1628.1652     -240.70019      29586.993      10.637238    
    317500   1913.1936     -242.00535     -15513.766      10.632922    
    318000   1629.754      -238.14029      18415.988      10.579087    
    318500   1333.7492     -241.47761      15703.195      10.617814    
    319000   1685.7648     -237.94527      12892.485      10.625943    
    319500   1613.5003     -240.29937      5104.1582      10.570256    
    320000   1911.4904     -239.8338       25912.031      10.588113    
    320500   2008.6544     -240.66725      25230.909      10.600107    
    321000   1988.7755     -240.04496     -7411.8969      10.638826    
    321500   1728.8198     -241.97647     -28445.302      10.629623    
    322000   2092.3726     -238.33904      12905.121      10.640607    
    322500   1737.6834     -241.44171      18610.355      10.557568    
    323000   1667.4289     -239.68396      3693.8187      10.62862     
    323500   2253.5204     -239.35083     -6394.5918      10.651742    
    324000   1588.6752     -242.55959      22008.205      10.594014    
    324500   1609.4847     -241.98109      3857.4654      10.667272    
    325000   1754.5613     -240.91278      1772.9781      10.679635    
    325500   1739.0183     -243.3888      -29637.326      10.664154    
    326000   1746.5993     -238.40208     -14811.188      10.760225    
    326500   1700.9181     -239.60229     -596.17296      10.732849    
    327000   1661.5617     -237.17514     -33294.414      10.836856    
    327500   1527.1127     -242.70053     -3350.5109      10.596252    
    328000   1952.1669     -240.91883     -7468.7571      10.688198    
    328500   1467.1786     -241.9977       7050.5994      10.609714    
    329000   1682.7209     -237.2614      -31422.982      10.665079    
    329500   1664.4813     -239.74289     -7866.1419      10.635977    
    330000   1942.3512     -239.17938      30945.326      10.654221    
    330500   1479.4825     -239.94706     -16609.624      10.733586    
    331000   1845.0503     -241.64209     -20358.252      10.609526    
    331500   2058.6533     -242.9934       32659.941      10.637498    
    332000   1541.7148     -239.5934       25984.637      10.61456     
    332500   1809.178      -240.71505      27658.923      10.721439    
    333000   1934.0782     -244.77249      859.62627      10.619048    
    333500   1669.0741     -241.80472      20867.75       10.640545    
    334000   1938.3745     -240.84841     -22108.147      10.680454    
    334500   1648.777      -239.99255     -24397.279      10.708303    
    335000   1327.972      -241.1863      -21383.976      10.645227    
    335500   1976.4026     -239.52506     -7533.9809      10.72873     
    336000   1869.3647     -241.55133      26338.835      10.582189    
    336500   1483.591      -242.68418      12255.54       10.613971    
    337000   1584.0098     -242.61581     -22297.676      10.753963    
    337500   1530.8522     -240.84227     -26262.648      10.74036     
    338000   2024.0225     -240.48014      11881.85       10.629443    
    338500   1862.9051     -239.90081     -1876.2139      10.631965    
    339000   1542.289      -244.13248     -32069.78       10.666206    
    339500   1857.2571     -241.8402      -29583.468      10.741041    
    340000   1970.2128     -239.10766      34143.47       10.632336    
    340500   1565.3484     -240.63174      6173.4017      10.649379    
    341000   1678.4535     -242.05656     -16243.876      10.723173    
    341500   1935.9619     -242.35694      7745.3231      10.679999    
    342000   1693.2159     -242.56034      22777.078      10.657857    
    342500   1509.121      -243.38785     -701.50797      10.682467    
    343000   1801.7258     -238.75739     -11169.02       10.664842    
    343500   1645.6618     -244.6493      -22196.027      10.690753    
    344000   1678.191      -245.03661      18728.481      10.603155    
    344500   1937.6406     -238.42865      6927.7568      10.662503    
    345000   1594.3206     -239.31548     -5222.4976      10.665311    
    345500   1988.4647     -242.65433      39407.706      10.559062    
    346000   1705.6406     -241.59259      12006.403      10.662438    
    346500   1938.6801     -242.91221     -19588.5        10.671605    
    347000   1675.5142     -240.85868     -4860.9225      10.724479    
    347500   1767.8028     -242.28999     -7638.5581      10.682865    
    348000   1566.9214     -241.24489      26540.466      10.703631    
    348500   1975.5343     -239.64251      5280.2922      10.69914     
    349000   1910.7493     -243.18506      31603.12       10.566304    
    349500   1776.3478     -241.8278      -34490.697      10.624047    
    350000   1786.0848     -238.45547      46041.674      10.570249    
    350500   1831.5384     -241.17209     -33722.186      10.709534    
    351000   1999.0754     -237.9157      -7438.8176      10.622306    
    351500   1631.1253     -242.80765     -12798.631      10.649134    
    352000   2151.9642     -242.90641     -15855.474      10.731581    
    352500   1768.4346     -243.79386     -13227.252      10.677554    
    353000   1347.952      -242.53116     -4795.6098      10.648193    
    353500   1533.0321     -240.49165     -21199.086      10.738354    
    354000   1793.6875     -240.16384     -12961.849      10.629043    
    354500   1573.5073     -238.20647      1675.1117      10.726124    
    355000   1826.5527     -244.86937      9982.4549      10.592999    
    355500   1768.9656     -238.19922     -7229.4942      10.696657    
    356000   1813.5525     -240.08199     -1058.297       10.688938    
    356500   1572.6562     -240.95099     -4657.421       10.637525    
    357000   1554.8761     -239.66101     -13736.941      10.690423    
    357500   1775.0919     -239.83796      8209.9285      10.645508    
    358000   1680.0612     -240.06595      10460.749      10.57335     
    358500   1591.4697     -238.66014      21791.89       10.612655    
    359000   1715.44       -242.75783      2947.002       10.657578    
    359500   1904.2886     -241.03361      23211.441      10.638614    
    360000   1542.333      -242.65705     -43444.491      10.713492    
    360500   1579.5897     -244.73424      5097.2101      10.646337    
    361000   1725.892      -241.41449      11138.536      10.727527    
    361500   1993.7156     -242.25295     -28836.286      10.715241    
    362000   1521.524      -239.85686      202.37684      10.598373    
    362500   1616.3535     -244.03456     -765.96317      10.673968    
    363000   1627.8624     -239.47664      4798.3433      10.666038    
    363500   1599.6159     -242.76502      3289.7786      10.600533    
    364000   2042.3892     -240.68679     -19219.428      10.662466    
    364500   1337.7837     -239.77275     -690.75033      10.713893    
    365000   1773.3355     -243.3662       44455.903      10.575766    
    365500   1653.3398     -238.89109      21279.089      10.61606     
    366000   1544.5495     -240.01185     -30395.919      10.709266    
    366500   1679.1374     -240.99739     -40704.492      10.675623    
    367000   1586.4061     -240.18513      907.39628      10.674191    
    367500   1763.033      -241.27049     -23704.37       10.779791    
    368000   1895.4188     -238.32846     -22231.123      10.692521    
    368500   1839.8496     -239.62985     -279.05918      10.651053    
    369000   1961.6623     -244.86621     -21760.981      10.708143    
    369500   1811.2084     -242.00454     -4263.5739      10.651456    
    370000   1764.1166     -241.54878     -939.51632      10.613012    
    370500   1580.3725     -242.59191     -15241.818      10.708204    
    371000   1734.0407     -238.68179      6170.12        10.680223    
    371500   1622.6821     -241.00605     -7560.5218      10.635337    
    372000   1565.1039     -241.09059     -3938.1255      10.655714    
    372500   1514.0396     -243.26552      48339.529      10.559691    
    373000   1643.4627     -240.37952     -7946.2447      10.708643    
    373500   1578.0106     -239.51381      26531.695      10.613536    
    374000   1593.9951     -241.17109     -12581.321      10.68873     
    374500   1801.6303     -242.74963      7847.3562      10.557151    
    375000   1558.6092     -240.12698     -17505.426      10.659373    
    375500   1396.031      -240.48037      1774.4724      10.64802     
    376000   1784.5396     -239.87758     -2722.8962      10.725772    
    376500   1606.5346     -238.63198     -19952.636      10.866231    
    377000   1670.1013     -242.93154      10618.73       10.632212    
    377500   1903.7893     -241.37756      43947.652      10.557129    
    378000   1446.4916     -240.42966      4948.7335      10.697853    
    378500   1445.0861     -240.3582      -6239.4681      10.656706    
    379000   1773.9048     -243.46682     -3702.1783      10.580986    
    379500   1592.9787     -239.23725      16023.853      10.639565    
    380000   1511.9613     -244.48953     -21585.534      10.66453     
    380500   1935.886      -240.60943     -23134.106      10.692434    
    381000   1793.9399     -244.19735     -11807.7        10.663272    
    381500   1615.0261     -242.03199      37280.904      10.567282    
    382000   1646.5343     -243.42215     -9796.7276      10.582756    
    382500   1631.5707     -238.24537     -34430.607      10.778471    
    383000   1954.4421     -240.71891     -19734.777      10.69158     
    383500   1548.5935     -244.35389     -39035.752      10.780192    
    384000   1969.2008     -243.50729     -27302.743      10.717326    
    384500   1784.4861     -242.95692      13584.715      10.593365    
    385000   1778.6062     -240.83766     -13236.387      10.745724    
    385500   1865.2253     -239.4215       29531.239      10.640965    
    386000   1747.8693     -240.45051      21199.193      10.687189    
    386500   1868.0125     -242.78695      30902.49       10.601108    
    387000   1924.0444     -238.17437     -6213.8835      10.66644     
    387500   2128.0778     -241.89456      6000.0999      10.634662    
    388000   1742.8007     -241.15702     -13845.304      10.611033    
    388500   1749.0277     -240.81996     -19994.776      10.690409    
    389000   1753.2811     -241.33901     -34943.717      10.680147    
    389500   1756.1888     -243.01316      8297.8057      10.70131     
    390000   1588.5235     -242.87908      5490.3984      10.705352    
    390500   1575.9857     -241.34739      41276.121      10.591461    
    391000   1627.188      -242.80743     -7504.1825      10.694529    
    391500   1686.1412     -239.95063      49430.431      10.665366    
    392000   1765.0399     -241.30925     -16218.794      10.652964    
    392500   1512.2701     -239.41165      37034.225      10.590672    
    393000   1781.1817     -240.33284      1855.8894      10.654732    
    393500   1501.3943     -243.05697     -2169.2574      10.67899     
    394000   1888.7139     -245.13135     -20653.079      10.719795    
    394500   1679.0172     -241.1653      -19807.142      10.668088    
    395000   1498.9284     -238.93829     -3337.5841      10.701923    
    395500   1374.091      -239.48498     -7487.0937      10.676699    
    396000   1727.5295     -240.65238      1891.2919      10.726623    
    396500   1745.2055     -240.37759      20515.717      10.594744    
    397000   1595.773      -239.48871     -10649.345      10.661635    
    397500   1600.8665     -241.68879      3129.7744      10.673804    
    398000   1726.1135     -240.32914      25088.62       10.615013    
    398500   1734.816      -242.79647      14994.629      10.65027     
    399000   1792.7288     -241.26215     -20539.379      10.644571    
    399500   1624.4961     -242.2168      -14077.308      10.613763    
    400000   1716.5863     -240.34394     -4497.5505      10.655368    
    400500   1457.5828     -242.1812      -1301.3737      10.634892    
    401000   1982.9642     -240.82389     -13152.058      10.669252    
    401500   1745.2124     -239.8136       34082.215      10.629291    
    402000   1409.2129     -239.87143     -18473.498      10.737781    
    402500   1755.8585     -240.07752      12860.969      10.635371    
    403000   1949.4872     -240.89512      38481.766      10.673794    
    403500   1777.1093     -240.81247     -6107.1413      10.630932    
    404000   1572.5388     -239.4162      -30630.941      10.723898    
    404500   1721.507      -243.26963     -7598.1159      10.63544     
    405000   1658.944      -241.15105     -7312.0382      10.582251    
    405500   1764.5861     -243.53964     -11084.216      10.650317    
    406000   1611.5777     -242.68304      22704.698      10.557517    
    406500   1861.7929     -243.69461     -22225.494      10.650176    
    407000   1508.1457     -240.39683     -20105.147      10.62437     
    407500   1810.1963     -242.50913     -22165.601      10.718418    
    408000   1514.2538     -239.19497     -12984.28       10.657549    
    408500   1581.6501     -239.96581     -28113.163      10.732692    
    409000   1259.1209     -239.9349      -34748.456      10.765192    
    409500   1483.7724     -244.21794      20325.004      10.629767    
    410000   1692.8354     -240.65944      2689.6245      10.701804    
    410500   1483.0499     -240.63288      5463.3825      10.709873    
    411000   1842.4572     -240.57881     -69226.23       10.76472     
    411500   1655.6381     -240.11736      37233.402      10.629415    
    412000   1553.0308     -239.69973     -13408.572      10.761604    
    412500   1609.7471     -240.71083      10560.236      10.677895    
    413000   1538.0384     -240.62506     -4917.8694      10.730054    
    413500   1700.7636     -240.22969     -367.81045      10.630689    
    414000   1482.155      -242.72304     -39165.637      10.7183      
    414500   1446.9691     -242.12537     -44414.658      10.69479     
    415000   1704.6841     -240.32117     -1998.5261      10.602235    
    415500   1529.7173     -241.32616      30706.113      10.655133    
    416000   1524.9171     -240.42785      21126.865      10.637158    
    416500   1282.8391     -239.3947      -3365.5502      10.713955    
    417000   1495.0006     -238.16764      21712.84       10.624666    
    417500   1856.5077     -243.16819      15923.909      10.656088    
    418000   2052.4797     -241.2791       51496.031      10.577032    
    418500   1853.0957     -241.15961     -13453.351      10.626372    
    419000   1274.582      -241.45518     -8716.9319      10.626389    
    419500   1629.267      -239.80271      9060.421       10.694966    
    420000   1613.5045     -238.38754      3619.2489      10.617852    
    420500   1687.8946     -239.47707      49015.813      10.614726    
    421000   1327.132      -241.07967      26094.456      10.627564    
    421500   1399.9724     -242.08298     -11659.236      10.674204    
    422000   1829.2712     -240.82227     -14341.022      10.648929    
    422500   1962.4812     -240.65708      6675.5404      10.583303    
    423000   1987.5092     -235.38315      23488.666      10.669156    
    423500   1989.2305     -243.82381     -17979.977      10.705778    
    424000   1856.3737     -236.96569      31427.359      10.599753    
    424500   1619.3766     -239.17417     -29147.092      10.748577    
    425000   1463.6417     -241.49374      16747.378      10.58385     
    425500   1447.9346     -236.99712      31005.056      10.638854    
    426000   1553.6279     -241.28187      25815.668      10.659233    
    426500   1765.3526     -240.86829     -27166.174      10.683119    
    427000   1903.5589     -240.2638      -18399.522      10.712625    
    427500   2220.3706     -242.72845      20580.459      10.645088    
    428000   1944.2144     -240.89577      37618.345      10.643742    
    428500   1412.2744     -242.62606      34097.756      10.590003    
    429000   1793.5131     -242.11476      16782.99       10.591794    
    429500   1567.5179     -242.1009       8551.0556      10.636288    
    430000   1793.6588     -240.76552      5508.5581      10.628596    
    430500   1618.6044     -239.90541      3592.7147      10.593194    
    431000   1779.9162     -242.45754      15392.242      10.646928    
    431500   1797.7251     -241.17759      23035.883      10.619439    
    432000   1886.9236     -241.49991     -34743.263      10.679073    
    432500   2106.7904     -239.51421      25040.146      10.609191    
    433000   1663.7773     -242.78385      16063.094      10.633692    
    433500   1880.3091     -238.20944     -35370.498      10.767618    
    434000   1587.3765     -240.60113      50380.995      10.640297    
    434500   1941.1878     -242.65308      22136.093      10.615401    
    435000   1745.6332     -239.11053     -12794.74       10.695629    
    435500   1781.1633     -245.35791     -5939.6307      10.666059    
    436000   1600.0916     -241.8662      -8321.5085      10.707131    
    436500   1932.534      -242.14732     -12386.869      10.730658    
    437000   1379.7644     -239.5821       11631.747      10.659138    
    437500   1820.5941     -242.03705     -702.59946      10.650629    
    438000   1731.196      -239.66768      12266.23       10.662964    
    438500   1695.8058     -241.55553      16447.352      10.615512    
    439000   1540.1791     -239.36063      9527.1919      10.624474    
    439500   1528.3705     -243.80849     -641.30683      10.64206     
    440000   1461.017      -241.59242      28168.472      10.679285    
    440500   1542.5436     -240.75436     -30052.007      10.692806    
    441000   1374.6228     -238.04839     -9154.4611      10.625886    
    441500   1844.3545     -241.666        11893.213      10.68763     
    442000   1678.526      -239.71948      24544.116      10.674001    
    442500   1521.69       -241.65972      2580.9876      10.652447    
    443000   1786.2861     -239.27455      12404.542      10.636788    
    443500   1664.7697     -240.09505     -23838.395      10.739025    
    444000   1527.9245     -241.31883      23104.622      10.609131    
    444500   1694.2285     -243.3536       25643.968      10.697137    
    445000   1873.8574     -239.55685     -32424.416      10.782581    
    445500   1720.8474     -243.96692      8162.0136      10.670569    
    446000   1695.2952     -241.81571     -12520.962      10.655228    
    446500   1846.8584     -241.87365      13758.133      10.66466     
    447000   1861.035      -238.37758     -1004.3145      10.655609    
    447500   1919.3559     -243.56685      2765.7905      10.588506    
    448000   1752.3185     -243.24789      2354.3434      10.590129    
    448500   1864.8722     -239.65033      3052.6207      10.702073    
    449000   1749.143      -241.9068       17763.506      10.652169    
    449500   1649.2696     -241.79771      69472.593      10.547863    
    450000   1690.1004     -239.61811      17436.444      10.662315    
    450500   1938.5815     -240.6075      -11377.49       10.703257    
    451000   1859.5464     -242.03576      12929.729      10.633366    
    451500   1757.5936     -239.36861     -22043.059      10.631136    
    452000   1633.0301     -243.27647     -8794.3002      10.710284    
    452500   1386.2093     -238.50112     -5340.9974      10.706584    
    453000   1587.9186     -239.47922     -45072.223      10.684641    
    453500   1653.0705     -238.96977     -21154.167      10.693914    
    454000   1413.0706     -243.83461     -35553.966      10.783886    
    454500   1639.4018     -240.87574      46792.009      10.584505    
    455000   1969.2358     -243.3456       18900.023      10.648039    
    455500   1807.402      -243.26471      2579.0474      10.660853    
    456000   1717.5891     -242.13949      36790.283      10.597558    
    456500   1816.9693     -238.45176      11286.816      10.672047    
    457000   1375.752      -239.96312     -23377.612      10.61964     
    457500   1834.721      -240.34168     -1713.7136      10.621856    
    458000   1850.0674     -239.90642     -729.93416      10.693728    
    458500   1707.2453     -242.47204      33109.828      10.660509    
    459000   1841.3044     -242.70166      5572.1425      10.619939    
    459500   1737.9593     -243.07731      23400.767      10.58846     
    460000   1389.9184     -239.69442     -19444.236      10.751996    
    460500   1890.9672     -240.67864      11741.344      10.686203    
    461000   1634.8844     -241.7235       7341.3951      10.673857    
    461500   1614.6047     -238.12918     -41596.746      10.717329    
    462000   1591.4453     -239.98302     -2351.4195      10.635792    
    462500   1686.1323     -237.86322      33031.96       10.635348    
    463000   1641.0805     -236.86757     -23977.838      10.659878    
    463500   1826.3104     -239.92024      25943.883      10.635623    
    464000   1472.2765     -240.65459      24801.74       10.725212    
    464500   2008.5131     -242.80248      19239.379      10.635831    
    465000   1986.7877     -240.85528     -13398.286      10.70489     
    465500   1549.9065     -240.99946      26704.071      10.640767    
    466000   1977.0566     -240.39175      32984.686      10.60237     
    466500   1814.6673     -239.16001     -15584.421      10.684933    
    467000   1775.7366     -243.68732      4138.1056      10.639028    
    467500   1819.4803     -239.18267     -1057.878       10.693205    
    468000   1550.6485     -239.28376     -2563.6357      10.655072    
    468500   1591.7514     -240.3002       9163.8962      10.707233    
    469000   1710.9857     -243.96774     -4421.1181      10.684783    
    469500   1760.0693     -240.33933     -10669.866      10.589774    
    470000   1621.1966     -240.68168      20930.697      10.547006    
    470500   1805.3297     -241.95184     -159.34213      10.611358    
    471000   1399.8544     -240.65075     -21067.855      10.739347    
    471500   1765.728      -243.46285      9873.2975      10.607062    
    472000   1621.0862     -239.76585      6786.9073      10.723219    
    472500   1642.6613     -242.90283     -21748.181      10.712341    
    473000   1786.7422     -242.77224      19432.903      10.627022    
    473500   1730.2763     -236.50952      7367.883       10.72226     
    474000   1704.8673     -238.54191     -26490.503      10.72076     
    474500   1845.6831     -239.25768     -6488.5228      10.666886    
    475000   1820.0388     -238.22732      18393.275      10.691508    
    475500   1439.7437     -240.38772     -6022.179       10.699676    
    476000   1722.0935     -240.68221      22223.179      10.672616    
    476500   1718.9568     -243.79518     -38288.622      10.672653    
    477000   1843.9924     -242.55497      22859.987      10.559091    
    477500   1686.1699     -241.30365      12192.102      10.612518    
    478000   1617.3581     -240.02345      44589.068      10.570332    
    478500   1970.8309     -243.54799     -26295.426      10.671596    
    479000   1775.7972     -240.81281      25367.66       10.581178    
    479500   1950.0094     -239.95889      39630.713      10.582451    
    480000   1585.7793     -241.82959     -5111.4555      10.628292    
    480500   1687.1828     -242.36199     -27416.27       10.718811    
    481000   1450.258      -240.75828      796.23038      10.607268    
    481500   1662.6225     -240.09815     -38278.316      10.665917    
    482000   1916.5281     -243.45591      18583.132      10.57891     
    482500   1592.7933     -241.59682     -12804.428      10.608102    
    483000   1471.1826     -240.57633     -24802.079      10.760083    
    483500   1810.827      -241.23059     -32072.342      10.599771    
    484000   1451.4669     -241.02751     -31411.761      10.658075    
    484500   1525.3508     -241.16242     -7516.3037      10.679789    
    485000   1772.5757     -236.74906     -19531.896      10.655172    
    485500   1661.8626     -243.79442     -9221.3797      10.580562    
    486000   1862.2428     -242.77723     -3529.3378      10.591563    
    486500   1496.1315     -240.53399      25524.105      10.628145    
    487000   1869.77       -242.93774     -13301.992      10.675747    
    487500   1587.132      -241.36957      17347.992      10.658017    
    488000   1935.305      -238.8473       27973.276      10.578142    
    488500   1658.791      -240.09542      35199.136      10.642828    
    489000   1687.0098     -241.11659      37291.888      10.612857    
    489500   1580.1089     -240.61405      14596.061      10.624709    
    490000   1731.2957     -239.98238      14997.107      10.616109    
    490500   1490.8231     -241.92397      6671.1115      10.685013    
    491000   1505.7411     -239.04866      24762.388      10.647517    
    491500   1423.1012     -238.87952      39030.911      10.643174    
    492000   1780.4747     -242.03058     -4940.4506      10.693651    
    492500   1754.0774     -241.69932     -8548.0534      10.735729    
    493000   1449.3228     -243.33613      45919.853      10.565312    
    493500   1684.4288     -241.70024     -28543.711      10.646513    
    494000   1863.8415     -243.33682     -15701.527      10.665688    
    494500   1848.545      -239.83034     -23023.392      10.80705     
    495000   1540.6784     -240.63078     -6112.1951      10.656512    
    495500   1729.1565     -241.58023     -51591.416      10.785678    
    496000   1992.36       -241.24237      16020.101      10.635308    
    496500   1630.269      -240.85664     -31582.876      10.723458    
    497000   1809.1559     -243.16326     -1104.5102      10.618359    
    497500   1640.6325     -241.65834      8578.3899      10.70496     
    498000   1577.7004     -240.61092      813.05044      10.764438    
    498500   1707.7949     -241.23232      26330.279      10.609576    
    499000   1469.8354     -241.94271      12554.279      10.607685    
    499500   1614.9171     -236.32394     -8404.9683      10.702346    
    500000   1866.3627     -241.61595      23063.783      10.617113    
Loop time of 142.28 on 1 procs for 500000 steps with 64 atoms

Performance: 607.252 ns/day, 0.040 hours/ns, 3514.190 timesteps/s
98.8% CPU use with 1 MPI tasks x 1 OpenMP threads

MPI task timing breakdown:
Section |  min time  |  avg time  |  max time  |%varavg| %total
---------------------------------------------------------------
Pair    | 135.54     | 135.54     | 135.54     |   0.0 | 95.26
Bond    | 0.11073    | 0.11073    | 0.11073    |   0.0 |  0.08
Neigh   | 2.5052     | 2.5052     | 2.5052     |   0.0 |  1.76
Comm    | 1.2871     | 1.2871     | 1.2871     |   0.0 |  0.90
Output  | 0.57556    | 0.57556    | 0.57556    |   0.0 |  0.40
Modify  | 1.7848     | 1.7848     | 1.7848     |   0.0 |  1.25
Other   |            | 0.4782     |            |       |  0.34

Nlocal:             64 ave          64 max          64 min
Histogram: 1 0 0 0 0 0 0 0 0 0
Nghost:            506 ave         506 max         506 min
Histogram: 1 0 0 0 0 0 0 0 0 0
Neighs:              0 ave           0 max           0 min
Histogram: 1 0 0 0 0 0 0 0 0 0
FullNghs:         2698 ave        2698 max        2698 min
Histogram: 1 0 0 0 0 0 0 0 0 0

Total # of neighbors = 2698
Ave neighs/atom = 42.15625
Ave special neighs/atom = 0
Neighbor list builds = 16424
Dangerous builds = 0

unfix           1
unfix           2

write_data	data.final
System init for write_data ...
Total wall time: 0:02:42
