
     Program PWSCF v.7.0 starts on 22Jun2023 at 14:17:37 

     This program is part of the open-source Quantum ESPRESSO suite
     for quantum simulation of materials; please cite
         "P. Giannozzi et al., J. Phys.:Condens. Matter 21 395502 (2009);
         "P. Giannozzi et al., J. Phys.:Condens. Matter 29 465901 (2017);
         "P. Giannozzi et al., J. Chem. Phys. 152 154105 (2020);
          URL http://www.quantum-espresso.org", 
     in publications or presentations arising from this work. More details at
     http://www.quantum-espresso.org/quote

     Parallel version (MPI & OpenMP), running on       4 processor cores
     Number of MPI processes:                 4
     Threads/MPI process:                     1

     MPI processes distributed on     1 nodes
     K-points division:     npool     =       2
     R & G space division:  proc/nbgrp/npool/nimage =       2
     501842 MiB available memory on the printing compute node when the environment starts
 
     Reading input from pw-si-30.in
Warning: card &CELL ignored
Warning: card / ignored

     Current dimensions of program PWSCF are:
     Max number of different atomic species (ntypx) = 10
     Max number of k-points (npk) =  40000
     Max angular momentum in pseudopotentials (lmaxx) =  4

     IMPORTANT: XC functional enforced from input :
     Exchange-correlation= PBE
                           (   1   4   3   4   0   0   0)
     Any further DFT definition will be discarded
     Please, verify this is what you really want

     Found identity + (  0.0000  0.5000 -0.5000) symmetry
     This is a supercell, fractional translations are disabled
     Message from routine setup:
     using ibrav=0 with symmetry is DISCOURAGED, use correct ibrav instead

     Subspace diagonalization in iterative solution of the eigenvalue problem:
     a serial algorithm will be used

 
     Parallelization info
     --------------------
     sticks:   dense  smooth     PW     G-vecs:    dense   smooth      PW
     Min         502     502    146                12054    12054    1870
     Max         503     503    147                12057    12057    1873
     Sum        1005    1005    293                24111    24111    3743
 
     Using Slab Decomposition
 


     bravais-lattice index     =            0
     lattice parameter (alat)  =      10.2871  a.u.
     unit-cell volume          =    1088.6285 (a.u.)^3
     number of atoms/cell      =            8
     number of atomic types    =            1
     number of electrons       =        32.00
     number of Kohn-Sham states=           16
     kinetic-energy cutoff     =      30.0000  Ry
     charge density cutoff     =     120.0000  Ry
     scf convergence threshold =      1.0E-06
     mixing beta               =       0.5000
     number of iterations used =            8  plain     mixing
     Exchange-correlation= PBE
                           (   1   4   3   4   0   0   0)

     GPU acceleration is ACTIVE.
     GPU-aware MPI enabled

     Message from routine print_cuda_info:
     High GPU oversubscription detected. Are you sure this is what you want?

     celldm(1)=  10.287107  celldm(2)=   0.000000  celldm(3)=   0.000000
     celldm(4)=   0.000000  celldm(5)=   0.000000  celldm(6)=   0.000000

     crystal axes: (cart. coord. in units of alat)
               a(1) = (   1.000000   0.000000   0.000000 )  
               a(2) = (   0.000000   1.000000   0.000000 )  
               a(3) = (   0.000000   0.000000   1.000000 )  

     reciprocal axes: (cart. coord. in units 2 pi/alat)
               b(1) = (  1.000000  0.000000  0.000000 )  
               b(2) = (  0.000000  1.000000  0.000000 )  
               b(3) = (  0.000000  0.000000  1.000000 )  


     PseudoPot. # 1 for Si read from file:
     ./Si_ONCV_PBE-1.0.upf
     MD5 check sum: 2de5a83d12544a9ea852f39b88f19b1f
     Pseudo is Norm-conserving, Zval =  4.0
     Generated using ONCVPSP code by D. R. Hamann
     Using radial grid of  602 points,  4 beta functions with: 
                l(1) =   0
                l(2) =   0
                l(3) =   1
                l(4) =   1

     atomic species   valence    mass     pseudopotential
        Si             4.00    28.08500     Si( 1.00)

     24 Sym. Ops. (no inversion) found



   Cartesian axes

     site n.     atom                  positions (alat units)
         1           Si  tau(   1) = (   0.7500000   0.7500000   0.2500000  )
         2           Si  tau(   2) = (   0.0000000   0.5000000   0.5000000  )
         3           Si  tau(   3) = (   0.7500000   0.2500000   0.7500000  )
         4           Si  tau(   4) = (   0.0000000   0.0000000   0.0000000  )
         5           Si  tau(   5) = (   0.2500000   0.7500000   0.7500000  )
         6           Si  tau(   6) = (   0.5000000   0.5000000   0.0000000  )
         7           Si  tau(   7) = (   0.2500000   0.2500000   0.2500000  )
         8           Si  tau(   8) = (   0.5000000   0.0000000   0.5000000  )

     number of k points=     4
                       cart. coord. in units 2pi/alat
        k(    1) = (   0.1250000   0.1250000   0.1250000), wk =   0.2500000
        k(    2) = (   0.1250000   0.1250000   0.3750000), wk =   0.7500000
        k(    3) = (   0.1250000   0.3750000   0.3750000), wk =   0.7500000
        k(    4) = (   0.3750000   0.3750000   0.3750000), wk =   0.2500000

     Dense  grid:    24111 G-vectors     FFT dimensions: (  36,  36,  36)

     Estimated max dynamical RAM per process >      10.98 MB

     Estimated total dynamical RAM >      38.05 MB

     Initial potential from superposition of free atoms

     starting charge      31.6302, renormalised to      32.0000
     Starting wfcs are random

     total cpu time spent up to now is        4.2 secs

     Self-consistent Calculation

     iteration #  1     ecut=    30.00 Ry     beta= 0.50
     Davidson diagonalization with overlap
     ethr =  1.00E-02,  avg # of iterations =  9.8

     Threshold (ethr) on eigenvalues was too large:
     Diagonalizing with lowered threshold

     Davidson diagonalization with overlap
     ethr =  6.01E-04,  avg # of iterations =  3.8

     total cpu time spent up to now is        5.2 secs

     total energy              =     -63.04755728 Ry
     estimated scf accuracy    <       0.20792251 Ry

     iteration #  2     ecut=    30.00 Ry     beta= 0.50
     Davidson diagonalization with overlap
     ethr =  6.50E-04,  avg # of iterations =  1.0

     total cpu time spent up to now is        5.4 secs

     total energy              =     -63.04763265 Ry
     estimated scf accuracy    <       0.03842503 Ry

     iteration #  3     ecut=    30.00 Ry     beta= 0.50
     Davidson diagonalization with overlap
     ethr =  1.20E-04,  avg # of iterations =  2.0

     total cpu time spent up to now is        5.6 secs

     total energy              =     -63.05137224 Ry
     estimated scf accuracy    <       0.00055090 Ry

     iteration #  4     ecut=    30.00 Ry     beta= 0.50
     Davidson diagonalization with overlap
     ethr =  1.72E-06,  avg # of iterations =  6.0

     total cpu time spent up to now is        6.1 secs

     total energy              =     -63.05234051 Ry
     estimated scf accuracy    <       0.00000332 Ry

     iteration #  5     ecut=    30.00 Ry     beta= 0.50
     Davidson diagonalization with overlap
     ethr =  1.04E-08,  avg # of iterations =  5.8

     total cpu time spent up to now is        6.5 secs

     End of self-consistent calculation

          k = 0.1250 0.1250 0.1250 (  3017 PWs)   bands (ev):

    -5.5564  -2.4908  -2.4903  -2.4903  -0.6635  -0.6632  -0.6632   2.7479
     2.7481   2.7481   3.4945   3.4945   3.4947   4.5562   5.8697   5.8697

          k = 0.1250 0.1250 0.3750 (  3012 PWs)   bands (ev):

    -5.0227  -3.9797  -2.3177  -2.3173  -0.7634  -0.7632   1.2173   2.1274
     2.1276   2.9331   3.2207   3.2208   3.5049   3.9659   4.8489   4.9182

          k = 0.1250 0.3750 0.3750 (  3026 PWs)   bands (ev):

    -4.5180  -3.5580  -3.5577  -2.8598  -0.4674   0.3274   0.3275   1.5407
     2.1910   2.8564   2.8565   3.8597   4.2421   4.2425   4.2846   5.3876

          k = 0.3750 0.3750 0.3750 (  3028 PWs)   bands (ev):

    -4.0786  -3.3613  -3.3607  -3.3607  -0.5656  -0.5656  -0.5655   0.2308
     3.8863   3.8868   3.8868   4.6061   4.6061   4.6063   5.0772   5.0772

     highest occupied level (ev):     5.8697

!    total energy              =     -63.05234697 Ry
     estimated scf accuracy    <       0.00000035 Ry

     The total energy is the sum of the following terms:
     one-electron contribution =      18.78334395 Ry
     hartree contribution      =       4.42573467 Ry
     xc contribution           =     -19.23478945 Ry
     ewald contribution        =     -67.02663613 Ry

     convergence has been achieved in   5 iterations

     Forces acting on atoms (cartesian axes, Ry/au):

     atom    1 type  1   force =    -0.00000192   -0.00000192    0.00000192
     atom    2 type  1   force =     0.00000000    0.00000000    0.00000000
     atom    3 type  1   force =    -0.00000192    0.00000192   -0.00000192
     atom    4 type  1   force =     0.00000000    0.00000000    0.00000000
     atom    5 type  1   force =     0.00000192   -0.00000192   -0.00000192
     atom    6 type  1   force =     0.00000000    0.00000000    0.00000000
     atom    7 type  1   force =     0.00000192    0.00000192    0.00000192
     atom    8 type  1   force =     0.00000000    0.00000000    0.00000000

     Total force =     0.000007     Total SCF correction =     0.000479
     SCF correction compared to forces is large: reduce conv_thr to get better values


     Computing stress (Cartesian axis) and pressure

          total   stress  (Ry/bohr**3)                   (kbar)     P=       15.69
   0.00010665   0.00000000   0.00000000           15.69        0.00        0.00
   0.00000000   0.00010665   0.00000000            0.00       15.69        0.00
   0.00000000   0.00000000   0.00010665            0.00        0.00       15.69

 
     init_run     :      0.82s CPU      4.15s WALL (       1 calls)
     electrons    :      2.26s CPU      2.30s WALL (       1 calls)
     forces       :      0.05s CPU      0.05s WALL (       1 calls)
     stress       :      0.18s CPU      0.18s WALL (       1 calls)

     Called by init_run:
     wfcinit      :      0.46s CPU      3.66s WALL (       1 calls)
                                        3.66s GPU  (       1 calls)
     potinit      :      0.09s CPU      0.16s WALL (       1 calls)
     hinit0       :      0.21s CPU      0.23s WALL (       1 calls)

     Called by electrons:
     c_bands      :      1.88s CPU      1.91s WALL (       6 calls)
     sum_band     :      0.09s CPU      0.10s WALL (       6 calls)
     v_of_rho     :      0.36s CPU      0.43s WALL (       6 calls)
     mix_rho      :      0.00s CPU      0.01s WALL (       6 calls)

     Called by c_bands:
     init_us_2    :      0.01s CPU      0.01s WALL (      30 calls)
     init_us_2:gp :      0.01s CPU      0.01s WALL (      30 calls)
     cegterg      :      1.72s CPU      1.74s WALL (      12 calls)

     Called by *egterg:
     cdiaghg      :      0.33s CPU      0.96s WALL (      70 calls)
                                        0.93s GPU  (      70 calls)
     h_psi        :      1.12s CPU      3.77s WALL (      74 calls)
                                        3.73s GPU  (      74 calls)
     g_psi        :      0.00s CPU      0.03s WALL (      60 calls)
                                        0.00s GPU  (      60 calls)

     Called by h_psi:
     h_psi:calbec :      0.52s CPU      3.15s WALL (      74 calls)
                                        3.10s GPU  (      74 calls)
     vloc_psi     :      0.41s CPU      0.48s WALL (      74 calls)
                                        0.43s GPU  (      74 calls)
     add_vuspsi   :      0.00s CPU      0.05s WALL (      74 calls)
                                        0.01s GPU  (      74 calls)

     General routines
     calbec       :      0.54s CPU      3.13s WALL (      84 calls)
     fft          :      0.34s CPU      0.46s WALL (      68 calls)
                                        0.21s GPU  (      46 calls)
     ffts         :      0.00s CPU      0.00s WALL (       6 calls)
     fftw         :      0.38s CPU      0.47s WALL (     160 calls)
                                        0.37s GPU  (     160 calls)
 
     Parallel routines
 
     PWSCF        :      3.39s CPU      6.78s WALL

 
   This run was terminated on:  14:17:44  22Jun2023            

=------------------------------------------------------------------------------=
   JOB DONE.
=------------------------------------------------------------------------------=
