
     Program PWSCF v.7.0 starts on 22Jun2023 at 14:17:29 

     This program is part of the open-source Quantum ESPRESSO suite
     for quantum simulation of materials; please cite
         "P. Giannozzi et al., J. Phys.:Condens. Matter 21 395502 (2009);
         "P. Giannozzi et al., J. Phys.:Condens. Matter 29 465901 (2017);
         "P. Giannozzi et al., J. Chem. Phys. 152 154105 (2020);
          URL http://www.quantum-espresso.org", 
     in publications or presentations arising from this work. More details at
     http://www.quantum-espresso.org/quote

     Parallel version (MPI & OpenMP), running on       4 processor cores
     Number of MPI processes:                 4
     Threads/MPI process:                     1

     MPI processes distributed on     1 nodes
     K-points division:     npool     =       2
     R & G space division:  proc/nbgrp/npool/nimage =       2
     501871 MiB available memory on the printing compute node when the environment starts
 
     Reading input from pw-si-20.in
Warning: card &CELL ignored
Warning: card / ignored

     Current dimensions of program PWSCF are:
     Max number of different atomic species (ntypx) = 10
     Max number of k-points (npk) =  40000
     Max angular momentum in pseudopotentials (lmaxx) =  4

     IMPORTANT: XC functional enforced from input :
     Exchange-correlation= PBE
                           (   1   4   3   4   0   0   0)
     Any further DFT definition will be discarded
     Please, verify this is what you really want

     Found identity + (  0.0000  0.5000 -0.5000) symmetry
     This is a supercell, fractional translations are disabled
     Message from routine setup:
     using ibrav=0 with symmetry is DISCOURAGED, use correct ibrav instead

     Subspace diagonalization in iterative solution of the eigenvalue problem:
     a serial algorithm will be used

 
     Parallelization info
     --------------------
     sticks:   dense  smooth     PW     G-vecs:    dense   smooth      PW
     Min         336     336     96                 6602     6602    1050
     Max         337     337     97                 6603     6603    1053
     Sum         673     673    193                13205    13205    2103
 
     Using Slab Decomposition
 


     bravais-lattice index     =            0
     lattice parameter (alat)  =      10.2871  a.u.
     unit-cell volume          =    1088.6285 (a.u.)^3
     number of atoms/cell      =            8
     number of atomic types    =            1
     number of electrons       =        32.00
     number of Kohn-Sham states=           16
     kinetic-energy cutoff     =      20.0000  Ry
     charge density cutoff     =      80.0000  Ry
     scf convergence threshold =      1.0E-06
     mixing beta               =       0.5000
     number of iterations used =            8  plain     mixing
     Exchange-correlation= PBE
                           (   1   4   3   4   0   0   0)

     GPU acceleration is ACTIVE.
     GPU-aware MPI enabled

     Message from routine print_cuda_info:
     High GPU oversubscription detected. Are you sure this is what you want?

     celldm(1)=  10.287107  celldm(2)=   0.000000  celldm(3)=   0.000000
     celldm(4)=   0.000000  celldm(5)=   0.000000  celldm(6)=   0.000000

     crystal axes: (cart. coord. in units of alat)
               a(1) = (   1.000000   0.000000   0.000000 )  
               a(2) = (   0.000000   1.000000   0.000000 )  
               a(3) = (   0.000000   0.000000   1.000000 )  

     reciprocal axes: (cart. coord. in units 2 pi/alat)
               b(1) = (  1.000000  0.000000  0.000000 )  
               b(2) = (  0.000000  1.000000  0.000000 )  
               b(3) = (  0.000000  0.000000  1.000000 )  


     PseudoPot. # 1 for Si read from file:
     ./Si_ONCV_PBE-1.0.upf
     MD5 check sum: 2de5a83d12544a9ea852f39b88f19b1f
     Pseudo is Norm-conserving, Zval =  4.0
     Generated using ONCVPSP code by D. R. Hamann
     Using radial grid of  602 points,  4 beta functions with: 
                l(1) =   0
                l(2) =   0
                l(3) =   1
                l(4) =   1

     atomic species   valence    mass     pseudopotential
        Si             4.00    28.08500     Si( 1.00)

     24 Sym. Ops. (no inversion) found



   Cartesian axes

     site n.     atom                  positions (alat units)
         1           Si  tau(   1) = (   0.7500000   0.7500000   0.2500000  )
         2           Si  tau(   2) = (   0.0000000   0.5000000   0.5000000  )
         3           Si  tau(   3) = (   0.7500000   0.2500000   0.7500000  )
         4           Si  tau(   4) = (   0.0000000   0.0000000   0.0000000  )
         5           Si  tau(   5) = (   0.2500000   0.7500000   0.7500000  )
         6           Si  tau(   6) = (   0.5000000   0.5000000   0.0000000  )
         7           Si  tau(   7) = (   0.2500000   0.2500000   0.2500000  )
         8           Si  tau(   8) = (   0.5000000   0.0000000   0.5000000  )

     number of k points=     4
                       cart. coord. in units 2pi/alat
        k(    1) = (   0.1250000   0.1250000   0.1250000), wk =   0.2500000
        k(    2) = (   0.1250000   0.1250000   0.3750000), wk =   0.7500000
        k(    3) = (   0.1250000   0.3750000   0.3750000), wk =   0.7500000
        k(    4) = (   0.3750000   0.3750000   0.3750000), wk =   0.2500000

     Dense  grid:    13205 G-vectors     FFT dimensions: (  30,  30,  30)

     Estimated max dynamical RAM per process >       6.15 MB

     Estimated total dynamical RAM >      21.37 MB

     Initial potential from superposition of free atoms

     starting charge      31.6302, renormalised to      32.0000
     Starting wfcs are random

     total cpu time spent up to now is        4.1 secs

     Self-consistent Calculation

     iteration #  1     ecut=    20.00 Ry     beta= 0.50
     Davidson diagonalization with overlap
     ethr =  1.00E-02,  avg # of iterations =  9.5

     Threshold (ethr) on eigenvalues was too large:
     Diagonalizing with lowered threshold

     Davidson diagonalization with overlap
     ethr =  6.02E-04,  avg # of iterations =  3.3

     total cpu time spent up to now is        5.0 secs

     total energy              =     -63.03554688 Ry
     estimated scf accuracy    <       0.20476410 Ry

     iteration #  2     ecut=    20.00 Ry     beta= 0.50
     Davidson diagonalization with overlap
     ethr =  6.40E-04,  avg # of iterations =  1.0

     total cpu time spent up to now is        5.2 secs

     total energy              =     -63.03531787 Ry
     estimated scf accuracy    <       0.03802698 Ry

     iteration #  3     ecut=    20.00 Ry     beta= 0.50
     Davidson diagonalization with overlap
     ethr =  1.19E-04,  avg # of iterations =  2.0

     total cpu time spent up to now is        5.4 secs

     total energy              =     -63.03887348 Ry
     estimated scf accuracy    <       0.00052917 Ry

     iteration #  4     ecut=    20.00 Ry     beta= 0.50
     Davidson diagonalization with overlap
     ethr =  1.65E-06,  avg # of iterations =  6.0

     total cpu time spent up to now is        5.9 secs

     total energy              =     -63.03973321 Ry
     estimated scf accuracy    <       0.00000441 Ry

     iteration #  5     ecut=    20.00 Ry     beta= 0.50
     Davidson diagonalization with overlap
     ethr =  1.38E-08,  avg # of iterations =  6.0

     total cpu time spent up to now is        6.3 secs

     End of self-consistent calculation

          k = 0.1250 0.1250 0.1250 (  1659 PWs)   bands (ev):

    -5.5568  -2.4902  -2.4902  -2.4898  -0.6617  -0.6617  -0.6614   2.7487
     2.7487   2.7489   3.4945   3.4948   3.4948   4.5661   5.8852   5.8852

          k = 0.1250 0.1250 0.3750 (  1642 PWs)   bands (ev):

    -5.0231  -3.9801  -2.3164  -2.3161  -0.7614  -0.7612   1.2209   2.1283
     2.1284   2.9392   3.2225   3.2226   3.5081   3.9680   4.8558   4.9277

          k = 0.1250 0.3750 0.3750 (  1641 PWs)   bands (ev):

    -4.5180  -3.5577  -3.5574  -2.8590  -0.4659   0.3292   0.3293   1.5443
     2.1928   2.8591   2.8591   3.8650   4.2465   4.2468   4.2877   5.3967

          k = 0.3750 0.3750 0.3750 (  1646 PWs)   bands (ev):

    -4.0785  -3.3598  -3.3598  -3.3593  -0.5655  -0.5655  -0.5655   0.2319
     3.8915   3.8915   3.8919   4.6106   4.6109   4.6109   5.0834   5.0834

     highest occupied level (ev):     5.8852

!    total energy              =     -63.03973955 Ry
     estimated scf accuracy    <       0.00000040 Ry

     The total energy is the sum of the following terms:
     one-electron contribution =      18.79758658 Ry
     hartree contribution      =       4.41953841 Ry
     xc contribution           =     -19.23022815 Ry
     ewald contribution        =     -67.02663638 Ry

     convergence has been achieved in   5 iterations

     Forces acting on atoms (cartesian axes, Ry/au):

     atom    1 type  1   force =     0.00000350    0.00000350   -0.00000350
     atom    2 type  1   force =     0.00000000    0.00000000    0.00000000
     atom    3 type  1   force =     0.00000350   -0.00000350    0.00000350
     atom    4 type  1   force =     0.00000000    0.00000000    0.00000000
     atom    5 type  1   force =    -0.00000350    0.00000350    0.00000350
     atom    6 type  1   force =     0.00000000    0.00000000    0.00000000
     atom    7 type  1   force =    -0.00000350   -0.00000350   -0.00000350
     atom    8 type  1   force =     0.00000000    0.00000000    0.00000000

     Total force =     0.000012     Total SCF correction =     0.000287
     SCF correction compared to forces is large: reduce conv_thr to get better values


     Computing stress (Cartesian axis) and pressure

          total   stress  (Ry/bohr**3)                   (kbar)     P=       14.53
   0.00009875   0.00000000   0.00000000           14.53        0.00        0.00
   0.00000000   0.00009875   0.00000000            0.00       14.53        0.00
   0.00000000   0.00000000   0.00009875            0.00        0.00       14.53

 
     init_run     :      0.73s CPU      4.05s WALL (       1 calls)
     electrons    :      2.18s CPU      2.22s WALL (       1 calls)
     forces       :      0.04s CPU      0.04s WALL (       1 calls)
     stress       :      0.17s CPU      0.17s WALL (       1 calls)

     Called by init_run:
     wfcinit      :      0.47s CPU      3.66s WALL (       1 calls)
                                        3.66s GPU  (       1 calls)
     potinit      :      0.08s CPU      0.16s WALL (       1 calls)
     hinit0       :      0.14s CPU      0.16s WALL (       1 calls)

     Called by electrons:
     c_bands      :      1.81s CPU      1.84s WALL (       6 calls)
     sum_band     :      0.08s CPU      0.09s WALL (       6 calls)
     v_of_rho     :      0.35s CPU      0.43s WALL (       6 calls)
     mix_rho      :      0.00s CPU      0.01s WALL (       6 calls)

     Called by c_bands:
     init_us_2    :      0.01s CPU      0.01s WALL (      30 calls)
     init_us_2:gp :      0.01s CPU      0.01s WALL (      30 calls)
     cegterg      :      1.63s CPU      1.66s WALL (      12 calls)

     Called by *egterg:
     cdiaghg      :      0.31s CPU      0.94s WALL (      69 calls)
                                        0.91s GPU  (      69 calls)
     h_psi        :      1.08s CPU      3.72s WALL (      73 calls)
                                        3.68s GPU  (      73 calls)
     g_psi        :      0.00s CPU      0.03s WALL (      59 calls)
                                        0.00s GPU  (      59 calls)

     Called by h_psi:
     h_psi:calbec :      0.50s CPU      3.12s WALL (      73 calls)
                                        3.08s GPU  (      73 calls)
     vloc_psi     :      0.40s CPU      0.46s WALL (      73 calls)
                                        0.42s GPU  (      73 calls)
     add_vuspsi   :      0.00s CPU      0.05s WALL (      73 calls)
                                        0.01s GPU  (      73 calls)

     General routines
     calbec       :      0.52s CPU      3.10s WALL (      83 calls)
     fft          :      0.26s CPU      0.39s WALL (      68 calls)
                                        0.21s GPU  (      46 calls)
     ffts         :      0.00s CPU      0.00s WALL (       6 calls)
     fftw         :      0.36s CPU      0.46s WALL (     158 calls)
                                        0.35s GPU  (     158 calls)
 
     Parallel routines
 
     PWSCF        :      3.19s CPU      6.58s WALL

 
   This run was terminated on:  14:17:35  22Jun2023            

=------------------------------------------------------------------------------=
   JOB DONE.
=------------------------------------------------------------------------------=
