
     Program PWSCF v.7.0 starts on 22Jun2023 at 14:17:20 

     This program is part of the open-source Quantum ESPRESSO suite
     for quantum simulation of materials; please cite
         "P. Giannozzi et al., J. Phys.:Condens. Matter 21 395502 (2009);
         "P. Giannozzi et al., J. Phys.:Condens. Matter 29 465901 (2017);
         "P. Giannozzi et al., J. Chem. Phys. 152 154105 (2020);
          URL http://www.quantum-espresso.org", 
     in publications or presentations arising from this work. More details at
     http://www.quantum-espresso.org/quote

     Parallel version (MPI & OpenMP), running on       4 processor cores
     Number of MPI processes:                 4
     Threads/MPI process:                     1

     MPI processes distributed on     1 nodes
     K-points division:     npool     =       2
     R & G space division:  proc/nbgrp/npool/nimage =       2
     501844 MiB available memory on the printing compute node when the environment starts
 
     Reading input from pw-si-10.in
Warning: card &CELL ignored
Warning: card / ignored

     Current dimensions of program PWSCF are:
     Max number of different atomic species (ntypx) = 10
     Max number of k-points (npk) =  40000
     Max angular momentum in pseudopotentials (lmaxx) =  4

     IMPORTANT: XC functional enforced from input :
     Exchange-correlation= PBE
                           (   1   4   3   4   0   0   0)
     Any further DFT definition will be discarded
     Please, verify this is what you really want

     Found identity + (  0.0000  0.5000 -0.5000) symmetry
     This is a supercell, fractional translations are disabled
     Message from routine setup:
     using ibrav=0 with symmetry is DISCOURAGED, use correct ibrav instead

     Subspace diagonalization in iterative solution of the eigenvalue problem:
     a serial algorithm will be used

 
     Parallelization info
     --------------------
     sticks:   dense  smooth     PW     G-vecs:    dense   smooth      PW
     Min         170     170     50                 2348     2348     398
     Max         171     171     51                 2349     2349     401
     Sum         341     341    101                 4697     4697     799
 
     Using Slab Decomposition
 


     bravais-lattice index     =            0
     lattice parameter (alat)  =      10.2871  a.u.
     unit-cell volume          =    1088.6285 (a.u.)^3
     number of atoms/cell      =            8
     number of atomic types    =            1
     number of electrons       =        32.00
     number of Kohn-Sham states=           16
     kinetic-energy cutoff     =      10.0000  Ry
     charge density cutoff     =      40.0000  Ry
     scf convergence threshold =      1.0E-06
     mixing beta               =       0.5000
     number of iterations used =            8  plain     mixing
     Exchange-correlation= PBE
                           (   1   4   3   4   0   0   0)

     GPU acceleration is ACTIVE.
     GPU-aware MPI enabled

     Message from routine print_cuda_info:
     High GPU oversubscription detected. Are you sure this is what you want?

     celldm(1)=  10.287107  celldm(2)=   0.000000  celldm(3)=   0.000000
     celldm(4)=   0.000000  celldm(5)=   0.000000  celldm(6)=   0.000000

     crystal axes: (cart. coord. in units of alat)
               a(1) = (   1.000000   0.000000   0.000000 )  
               a(2) = (   0.000000   1.000000   0.000000 )  
               a(3) = (   0.000000   0.000000   1.000000 )  

     reciprocal axes: (cart. coord. in units 2 pi/alat)
               b(1) = (  1.000000  0.000000  0.000000 )  
               b(2) = (  0.000000  1.000000  0.000000 )  
               b(3) = (  0.000000  0.000000  1.000000 )  


     PseudoPot. # 1 for Si read from file:
     ./Si_ONCV_PBE-1.0.upf
     MD5 check sum: 2de5a83d12544a9ea852f39b88f19b1f
     Pseudo is Norm-conserving, Zval =  4.0
     Generated using ONCVPSP code by D. R. Hamann
     Using radial grid of  602 points,  4 beta functions with: 
                l(1) =   0
                l(2) =   0
                l(3) =   1
                l(4) =   1

     atomic species   valence    mass     pseudopotential
        Si             4.00    28.08500     Si( 1.00)

     24 Sym. Ops. (no inversion) found



   Cartesian axes

     site n.     atom                  positions (alat units)
         1           Si  tau(   1) = (   0.7500000   0.7500000   0.2500000  )
         2           Si  tau(   2) = (   0.0000000   0.5000000   0.5000000  )
         3           Si  tau(   3) = (   0.7500000   0.2500000   0.7500000  )
         4           Si  tau(   4) = (   0.0000000   0.0000000   0.0000000  )
         5           Si  tau(   5) = (   0.2500000   0.7500000   0.7500000  )
         6           Si  tau(   6) = (   0.5000000   0.5000000   0.0000000  )
         7           Si  tau(   7) = (   0.2500000   0.2500000   0.2500000  )
         8           Si  tau(   8) = (   0.5000000   0.0000000   0.5000000  )

     number of k points=     4
                       cart. coord. in units 2pi/alat
        k(    1) = (   0.1250000   0.1250000   0.1250000), wk =   0.2500000
        k(    2) = (   0.1250000   0.1250000   0.3750000), wk =   0.7500000
        k(    3) = (   0.1250000   0.3750000   0.3750000), wk =   0.7500000
        k(    4) = (   0.3750000   0.3750000   0.3750000), wk =   0.2500000

     Dense  grid:     4697 G-vectors     FFT dimensions: (  24,  24,  24)

     Estimated max dynamical RAM per process >       2.44 MB

     Estimated total dynamical RAM >       8.60 MB

     Initial potential from superposition of free atoms

     starting charge      31.6302, renormalised to      32.0000
     Starting wfcs are random

     total cpu time spent up to now is        4.1 secs

     Self-consistent Calculation

     iteration #  1     ecut=    10.00 Ry     beta= 0.50
     Davidson diagonalization with overlap
     ethr =  1.00E-02,  avg # of iterations =  9.0

     Threshold (ethr) on eigenvalues was too large:
     Diagonalizing with lowered threshold

     Davidson diagonalization with overlap
     ethr =  5.83E-04,  avg # of iterations =  3.0

     total cpu time spent up to now is        4.9 secs

     total energy              =     -62.80143784 Ry
     estimated scf accuracy    <       0.19715538 Ry

     iteration #  2     ecut=    10.00 Ry     beta= 0.50
     Davidson diagonalization with overlap
     ethr =  6.16E-04,  avg # of iterations =  1.0

     total cpu time spent up to now is        5.1 secs

     total energy              =     -62.80125689 Ry
     estimated scf accuracy    <       0.03855997 Ry

     iteration #  3     ecut=    10.00 Ry     beta= 0.50
     Davidson diagonalization with overlap
     ethr =  1.20E-04,  avg # of iterations =  1.8

     total cpu time spent up to now is        5.4 secs

     total energy              =     -62.80393893 Ry
     estimated scf accuracy    <       0.00045795 Ry

     iteration #  4     ecut=    10.00 Ry     beta= 0.50
     Davidson diagonalization with overlap
     ethr =  1.43E-06,  avg # of iterations =  6.0

     total cpu time spent up to now is        5.8 secs

     total energy              =     -62.80463147 Ry
     estimated scf accuracy    <       0.00000577 Ry

     iteration #  5     ecut=    10.00 Ry     beta= 0.50
     Davidson diagonalization with overlap
     ethr =  1.80E-08,  avg # of iterations =  5.8

     total cpu time spent up to now is        6.2 secs

     End of self-consistent calculation

          k = 0.1250 0.1250 0.1250 (   585 PWs)   bands (ev):

    -5.4416  -2.3303  -2.3303  -2.3297  -0.4916  -0.4916  -0.4912   2.7392
     2.7392   2.7394   3.4750   3.4753   3.4753   4.6219   5.8877   5.8877

          k = 0.1250 0.1250 0.3750 (   579 PWs)   bands (ev):

    -4.8754  -3.8167  -2.1444  -2.1440  -0.6087  -0.6085   1.3646   2.1264
     2.1266   3.0360   3.2125   3.2126   3.5161   3.9547   4.8529   4.9501

          k = 0.1250 0.3750 0.3750 (   589 PWs)   bands (ev):

    -4.3794  -3.4052  -3.4048  -2.6942  -0.3472   0.4464   0.4464   1.6346
     2.2079   2.8796   2.8796   3.8833   4.2404   4.2409   4.2734   5.3890

          k = 0.3750 0.3750 0.3750 (   591 PWs)   bands (ev):

    -3.9287  -3.2106  -3.2106  -3.2099  -0.4811  -0.4809  -0.4809   0.3057
     3.9261   3.9261   3.9267   4.5970   4.5973   4.5973   5.0743   5.0743

     highest occupied level (ev):     5.8877

!    total energy              =     -62.80463767 Ry
     estimated scf accuracy    <       0.00000043 Ry

     The total energy is the sum of the following terms:
     one-electron contribution =      19.06596501 Ry
     hartree contribution      =       4.33689075 Ry
     xc contribution           =     -19.18085730 Ry
     ewald contribution        =     -67.02663613 Ry

     convergence has been achieved in   5 iterations

     Forces acting on atoms (cartesian axes, Ry/au):

     atom    1 type  1   force =     0.00000495    0.00000495   -0.00000495
     atom    2 type  1   force =     0.00000000    0.00000000    0.00000000
     atom    3 type  1   force =     0.00000495   -0.00000495    0.00000495
     atom    4 type  1   force =     0.00000000    0.00000000    0.00000000
     atom    5 type  1   force =    -0.00000495    0.00000495    0.00000495
     atom    6 type  1   force =     0.00000000    0.00000000    0.00000000
     atom    7 type  1   force =    -0.00000495   -0.00000495   -0.00000495
     atom    8 type  1   force =     0.00000000    0.00000000    0.00000000

     Total force =     0.000017     Total SCF correction =     0.000544
     SCF correction compared to forces is large: reduce conv_thr to get better values


     Computing stress (Cartesian axis) and pressure

          total   stress  (Ry/bohr**3)                   (kbar)     P=      -47.53
  -0.00032313   0.00000000   0.00000000          -47.53        0.00        0.00
   0.00000000  -0.00032313   0.00000000            0.00      -47.53        0.00
   0.00000000   0.00000000  -0.00032313            0.00        0.00      -47.53

 
     init_run     :      0.75s CPU      4.05s WALL (       1 calls)
     electrons    :      2.08s CPU      2.12s WALL (       1 calls)
     forces       :      0.04s CPU      0.04s WALL (       1 calls)
     stress       :      0.17s CPU      0.17s WALL (       1 calls)

     Called by init_run:
     wfcinit      :      0.46s CPU      3.64s WALL (       1 calls)
                                        3.64s GPU  (       1 calls)
     potinit      :      0.09s CPU      0.16s WALL (       1 calls)
     hinit0       :      0.17s CPU      0.19s WALL (       1 calls)

     Called by electrons:
     c_bands      :      1.72s CPU      1.75s WALL (       6 calls)
     sum_band     :      0.08s CPU      0.08s WALL (       6 calls)
     v_of_rho     :      0.36s CPU      0.43s WALL (       6 calls)
     mix_rho      :      0.00s CPU      0.01s WALL (       6 calls)

     Called by c_bands:
     init_us_2    :      0.01s CPU      0.01s WALL (      30 calls)
     init_us_2:gp :      0.01s CPU      0.01s WALL (      30 calls)
     cegterg      :      1.54s CPU      1.57s WALL (      12 calls)

     Called by *egterg:
     cdiaghg      :      0.29s CPU      0.94s WALL (      66 calls)
                                        0.91s GPU  (      66 calls)
     h_psi        :      1.04s CPU      3.66s WALL (      70 calls)
                                        3.61s GPU  (      70 calls)
     g_psi        :      0.00s CPU      0.03s WALL (      56 calls)
                                        0.00s GPU  (      56 calls)

     Called by h_psi:
     h_psi:calbec :      0.51s CPU      3.11s WALL (      70 calls)
                                        3.07s GPU  (      70 calls)
     vloc_psi     :      0.36s CPU      0.41s WALL (      70 calls)
                                        0.36s GPU  (      70 calls)
     add_vuspsi   :      0.01s CPU      0.05s WALL (      70 calls)
                                        0.01s GPU  (      70 calls)

     General routines
     calbec       :      0.53s CPU      3.09s WALL (      80 calls)
     fft          :      0.30s CPU      0.42s WALL (      68 calls)
                                        0.21s GPU  (      46 calls)
     ffts         :      0.00s CPU      0.00s WALL (       6 calls)
     fftw         :      0.38s CPU      0.41s WALL (     152 calls)
                                        0.30s GPU  (     152 calls)
 
     Parallel routines
 
     PWSCF        :      3.12s CPU      6.48s WALL

 
   This run was terminated on:  14:17:26  22Jun2023            

=------------------------------------------------------------------------------=
   JOB DONE.
=------------------------------------------------------------------------------=
