
     Program PWSCF v.7.0 starts on 22Jun2023 at 14:17:55 

     This program is part of the open-source Quantum ESPRESSO suite
     for quantum simulation of materials; please cite
         "P. Giannozzi et al., J. Phys.:Condens. Matter 21 395502 (2009);
         "P. Giannozzi et al., J. Phys.:Condens. Matter 29 465901 (2017);
         "P. Giannozzi et al., J. Chem. Phys. 152 154105 (2020);
          URL http://www.quantum-espresso.org", 
     in publications or presentations arising from this work. More details at
     http://www.quantum-espresso.org/quote

     Parallel version (MPI & OpenMP), running on       4 processor cores
     Number of MPI processes:                 4
     Threads/MPI process:                     1

     MPI processes distributed on     1 nodes
     K-points division:     npool     =       2
     R & G space division:  proc/nbgrp/npool/nimage =       2
     501867 MiB available memory on the printing compute node when the environment starts
 
     Reading input from pw-si-50.in
Warning: card &CELL ignored
Warning: card / ignored

     Current dimensions of program PWSCF are:
     Max number of different atomic species (ntypx) = 10
     Max number of k-points (npk) =  40000
     Max angular momentum in pseudopotentials (lmaxx) =  4

     IMPORTANT: XC functional enforced from input :
     Exchange-correlation= PBE
                           (   1   4   3   4   0   0   0)
     Any further DFT definition will be discarded
     Please, verify this is what you really want

     Found identity + (  0.0000  0.5000 -0.5000) symmetry
     This is a supercell, fractional translations are disabled
     Message from routine setup:
     using ibrav=0 with symmetry is DISCOURAGED, use correct ibrav instead

     Subspace diagonalization in iterative solution of the eigenvalue problem:
     a serial algorithm will be used

 
     Parallelization info
     --------------------
     sticks:   dense  smooth     PW     G-vecs:    dense   smooth      PW
     Min         842     842    240                26016    26016    3844
     Max         843     843    241                26019    26019    3845
     Sum        1685    1685    481                52035    52035    7689
 
     Using Slab Decomposition
 


     bravais-lattice index     =            0
     lattice parameter (alat)  =      10.2871  a.u.
     unit-cell volume          =    1088.6285 (a.u.)^3
     number of atoms/cell      =            8
     number of atomic types    =            1
     number of electrons       =        32.00
     number of Kohn-Sham states=           16
     kinetic-energy cutoff     =      50.0000  Ry
     charge density cutoff     =     200.0000  Ry
     scf convergence threshold =      1.0E-06
     mixing beta               =       0.5000
     number of iterations used =            8  plain     mixing
     Exchange-correlation= PBE
                           (   1   4   3   4   0   0   0)

     GPU acceleration is ACTIVE.
     GPU-aware MPI enabled

     Message from routine print_cuda_info:
     High GPU oversubscription detected. Are you sure this is what you want?

     celldm(1)=  10.287107  celldm(2)=   0.000000  celldm(3)=   0.000000
     celldm(4)=   0.000000  celldm(5)=   0.000000  celldm(6)=   0.000000

     crystal axes: (cart. coord. in units of alat)
               a(1) = (   1.000000   0.000000   0.000000 )  
               a(2) = (   0.000000   1.000000   0.000000 )  
               a(3) = (   0.000000   0.000000   1.000000 )  

     reciprocal axes: (cart. coord. in units 2 pi/alat)
               b(1) = (  1.000000  0.000000  0.000000 )  
               b(2) = (  0.000000  1.000000  0.000000 )  
               b(3) = (  0.000000  0.000000  1.000000 )  


     PseudoPot. # 1 for Si read from file:
     ./Si_ONCV_PBE-1.0.upf
     MD5 check sum: 2de5a83d12544a9ea852f39b88f19b1f
     Pseudo is Norm-conserving, Zval =  4.0
     Generated using ONCVPSP code by D. R. Hamann
     Using radial grid of  602 points,  4 beta functions with: 
                l(1) =   0
                l(2) =   0
                l(3) =   1
                l(4) =   1

     atomic species   valence    mass     pseudopotential
        Si             4.00    28.08500     Si( 1.00)

     24 Sym. Ops. (no inversion) found



   Cartesian axes

     site n.     atom                  positions (alat units)
         1           Si  tau(   1) = (   0.7500000   0.7500000   0.2500000  )
         2           Si  tau(   2) = (   0.0000000   0.5000000   0.5000000  )
         3           Si  tau(   3) = (   0.7500000   0.2500000   0.7500000  )
         4           Si  tau(   4) = (   0.0000000   0.0000000   0.0000000  )
         5           Si  tau(   5) = (   0.2500000   0.7500000   0.7500000  )
         6           Si  tau(   6) = (   0.5000000   0.5000000   0.0000000  )
         7           Si  tau(   7) = (   0.2500000   0.2500000   0.2500000  )
         8           Si  tau(   8) = (   0.5000000   0.0000000   0.5000000  )

     number of k points=     4
                       cart. coord. in units 2pi/alat
        k(    1) = (   0.1250000   0.1250000   0.1250000), wk =   0.2500000
        k(    2) = (   0.1250000   0.1250000   0.3750000), wk =   0.7500000
        k(    3) = (   0.1250000   0.3750000   0.3750000), wk =   0.7500000
        k(    4) = (   0.3750000   0.3750000   0.3750000), wk =   0.2500000

     Dense  grid:    52035 G-vectors     FFT dimensions: (  48,  48,  48)

     Estimated max dynamical RAM per process >      23.73 MB

     Estimated total dynamical RAM >      82.22 MB

     Initial potential from superposition of free atoms

     starting charge      31.6302, renormalised to      32.0000
     Starting wfcs are random

     total cpu time spent up to now is        4.3 secs

     Self-consistent Calculation

     iteration #  1     ecut=    50.00 Ry     beta= 0.50
     Davidson diagonalization with overlap
     ethr =  1.00E-02,  avg # of iterations =  9.5

     Threshold (ethr) on eigenvalues was too large:
     Diagonalizing with lowered threshold

     Davidson diagonalization with overlap
     ethr =  6.11E-04,  avg # of iterations =  3.0

     total cpu time spent up to now is        5.2 secs

     total energy              =     -63.05069946 Ry
     estimated scf accuracy    <       0.20714069 Ry

     iteration #  2     ecut=    50.00 Ry     beta= 0.50
     Davidson diagonalization with overlap
     ethr =  6.47E-04,  avg # of iterations =  1.0

     total cpu time spent up to now is        5.4 secs

     total energy              =     -63.05128185 Ry
     estimated scf accuracy    <       0.03871082 Ry

     iteration #  3     ecut=    50.00 Ry     beta= 0.50
     Davidson diagonalization with overlap
     ethr =  1.21E-04,  avg # of iterations =  2.5

     total cpu time spent up to now is        5.7 secs

     total energy              =     -63.05578619 Ry
     estimated scf accuracy    <       0.00054530 Ry

     iteration #  4     ecut=    50.00 Ry     beta= 0.50
     Davidson diagonalization with overlap
     ethr =  1.70E-06,  avg # of iterations =  6.3

     total cpu time spent up to now is        6.2 secs

     total energy              =     -63.05692472 Ry
     estimated scf accuracy    <       0.00000442 Ry

     iteration #  5     ecut=    50.00 Ry     beta= 0.50
     Davidson diagonalization with overlap
     ethr =  1.38E-08,  avg # of iterations =  5.5

     total cpu time spent up to now is        6.6 secs

     End of self-consistent calculation

          k = 0.1250 0.1250 0.1250 (  6502 PWs)   bands (ev):

    -5.5556  -2.4908  -2.4897  -2.4897  -0.6640  -0.6632  -0.6632   2.7472
     2.7476   2.7476   3.4939   3.4939   3.4944   4.5524   5.8630   5.8630

          k = 0.1250 0.1250 0.3750 (  6512 PWs)   bands (ev):

    -5.0220  -3.9791  -2.3177  -2.3169  -0.7636  -0.7633   1.2163   2.1268
     2.1272   2.9309   3.2196   3.2197   3.5034   3.9644   4.8454   4.9143

          k = 0.1250 0.3750 0.3750 (  6479 PWs)   bands (ev):

    -4.5173  -3.5577  -3.5570  -2.8596  -0.4674   0.3270   0.3270   1.5397
     2.1903   2.8553   2.8554   3.8576   4.2397   4.2406   4.2829   5.3834

          k = 0.3750 0.3750 0.3750 (  6497 PWs)   bands (ev):

    -4.0781  -3.3614  -3.3601  -3.3601  -0.5654  -0.5654  -0.5652   0.2307
     3.8838   3.8848   3.8848   4.6036   4.6036   4.6041   5.0739   5.0739

     highest occupied level (ev):     5.8630

!    total energy              =     -63.05693081 Ry
     estimated scf accuracy    <       0.00000085 Ry

     The total energy is the sum of the following terms:
     one-electron contribution =      18.77616587 Ry
     hartree contribution      =       4.42867399 Ry
     xc contribution           =     -19.23513455 Ry
     ewald contribution        =     -67.02663613 Ry

     convergence has been achieved in   5 iterations

     Forces acting on atoms (cartesian axes, Ry/au):

     atom    1 type  1   force =    -0.00000421   -0.00000421    0.00000421
     atom    2 type  1   force =     0.00000000    0.00000000    0.00000000
     atom    3 type  1   force =    -0.00000421    0.00000421   -0.00000421
     atom    4 type  1   force =     0.00000000    0.00000000    0.00000000
     atom    5 type  1   force =     0.00000421   -0.00000421   -0.00000421
     atom    6 type  1   force =     0.00000000    0.00000000    0.00000000
     atom    7 type  1   force =     0.00000421    0.00000421    0.00000421
     atom    8 type  1   force =     0.00000000    0.00000000    0.00000000

     Total force =     0.000015     Total SCF correction =     0.001045
     SCF correction compared to forces is large: reduce conv_thr to get better values


     Computing stress (Cartesian axis) and pressure

          total   stress  (Ry/bohr**3)                   (kbar)     P=       15.80
   0.00010740   0.00000000   0.00000000           15.80        0.00        0.00
   0.00000000   0.00010740   0.00000000            0.00       15.80        0.00
   0.00000000   0.00000000   0.00010740            0.00        0.00       15.80

 
     init_run     :      0.89s CPU      4.21s WALL (       1 calls)
     electrons    :      2.32s CPU      2.38s WALL (       1 calls)
     forces       :      0.04s CPU      0.05s WALL (       1 calls)
     stress       :      0.19s CPU      0.19s WALL (       1 calls)

     Called by init_run:
     wfcinit      :      0.47s CPU      3.67s WALL (       1 calls)
                                        3.67s GPU  (       1 calls)
     potinit      :      0.09s CPU      0.16s WALL (       1 calls)
     hinit0       :      0.30s CPU      0.32s WALL (       1 calls)

     Called by electrons:
     c_bands      :      1.92s CPU      1.96s WALL (       6 calls)
     sum_band     :      0.10s CPU      0.11s WALL (       6 calls)
     v_of_rho     :      0.37s CPU      0.44s WALL (       6 calls)
     mix_rho      :      0.01s CPU      0.02s WALL (       6 calls)

     Called by c_bands:
     init_us_2    :      0.01s CPU      0.01s WALL (      30 calls)
     init_us_2:gp :      0.01s CPU      0.01s WALL (      30 calls)
     cegterg      :      1.75s CPU      1.78s WALL (      12 calls)

     Called by *egterg:
     cdiaghg      :      0.33s CPU      0.97s WALL (      69 calls)
                                        0.94s GPU  (      69 calls)
     h_psi        :      1.11s CPU      3.77s WALL (      73 calls)
                                        3.73s GPU  (      73 calls)
     g_psi        :      0.00s CPU      0.03s WALL (      59 calls)
                                        0.00s GPU  (      59 calls)

     Called by h_psi:
     h_psi:calbec :      0.50s CPU      3.13s WALL (      73 calls)
                                        3.09s GPU  (      73 calls)
     vloc_psi     :      0.42s CPU      0.49s WALL (      73 calls)
                                        0.45s GPU  (      73 calls)
     add_vuspsi   :      0.01s CPU      0.05s WALL (      73 calls)
                                        0.01s GPU  (      73 calls)

     General routines
     calbec       :      0.52s CPU      3.11s WALL (      83 calls)
     fft          :      0.43s CPU      0.55s WALL (      68 calls)
                                        0.21s GPU  (      46 calls)
     ffts         :      0.00s CPU      0.00s WALL (       6 calls)
     fftw         :      0.39s CPU      0.50s WALL (     158 calls)
                                        0.39s GPU  (     158 calls)
 
     Parallel routines
 
     PWSCF        :      3.52s CPU      6.93s WALL

 
   This run was terminated on:  14:18: 2  22Jun2023            

=------------------------------------------------------------------------------=
   JOB DONE.
=------------------------------------------------------------------------------=
