64
Lattice="10.711291778585037 0.0 0.0 0.0 10.711291778585037 0.0 0.0 0.0 10.711291778585037" Properties=species:S:1:pos:R:3:forces:R:3 energy=-6824.509769509773 stress="0.030886822175309553 0.0057063495784645925 0.0032062063922764852 0.0057063495784645925 0.029059688521062645 -0.00044438828575653463 0.0032062063922764852 -0.00044438828575653463 0.022007319878715657" free_energy=-6824.509769509773 pbc="T T T"
Si       6.83297939       0.36852306       8.30546067      -0.09096717       0.42137630      -2.00236743
Si       8.56428832       8.92890069       5.86403593      -0.01105240      -0.41907490      -0.25942045
Si      10.54378860       8.24651643       4.51560212      -0.16887031       0.36848845       0.65465917
Si       9.07723066       6.02192037       4.78942558       0.05348357      -0.23570717       0.41091602
Si       1.97174530       1.14631173       1.26629963      -0.67027117      -1.39614296       0.63482645
Si       5.24436628       8.72909226      10.25365184      -0.39361867       0.11246802       0.58900271
Si       4.06923046       8.98412811       3.22146385      -0.21745208      -0.05438192       0.48656508
Si       5.12999111       3.46763076       1.31405056      -0.85815967      -0.07457896       0.09261576
Si       3.93761010       1.11972631       9.22890255      -0.17197980      -0.53710782       0.69392943
Si      10.10764622       9.93511944       8.88782289      -0.32646917      -0.15815318       0.78126543
Si      10.67065314       7.65253245       8.34547805      -0.19984645      -0.72300861      -0.31813134
Si      10.00074753       7.74328923       2.20438385       1.52179302      -1.89955544       0.50974357
Si       7.40069927       0.68788558      10.42792455       0.89201339       0.51843570       1.47933691
Si      10.32812745       1.88112777       5.64294416       0.11161647       1.08203411       1.06671111
Si       8.72704640       4.62496441       7.94949231       0.10263664      -0.06715979       0.08110519
Si       2.68138980      10.21729771       5.32038432       0.27524251       0.24368736      -0.04144618
Si       3.91107823       0.77140688       2.72382794       0.04532443      -0.43876313      -0.26580784
Si       9.22189737       5.06922595       2.65933526      -0.68795342       0.35174774      -0.48822241
Si       4.85479660       9.65604745       7.95082051       1.03653998      -0.20851081       0.40316415
Si       7.37373895       3.81659393       0.75143247       0.96982500       0.19055217       0.12049655
Si       5.17603895       0.11432697       5.87877467      -0.65870403       0.48331314      -0.25418132
Si       9.61423056       1.93752272       8.86105537       0.23134015       0.00892199       0.61878611
Si       2.09401470       8.30839556       1.92314817      -0.71017726      -0.30579724      -0.63296755
Si       2.24925345       1.73754291       6.12595915      -0.37235744       0.39815718       0.41053138
Si       4.20983759       5.16649519       3.05773104       0.54458305      -0.12305120      -0.42439580
Si       0.67500204       5.15872950       5.31933461      -0.37528387       0.29342792       1.18798901
Si      10.58703008      10.47978863       0.62761207       0.50130110       0.52111350      -0.37667638
Si       6.80762576      10.02944308       4.40015582       0.46120834      -0.84760092      -0.28547961
Si       5.28609747       0.56365709       0.75201302      -0.36767135       0.14692492      -0.61634228
Si       9.02846215       0.31624125       6.86138573      -0.59324992      -0.23231383       1.40696936
Si       4.97271721       4.37506997       9.50249037      -0.25760191       0.90357718       0.23573262
Si       3.15230104       3.75114794       4.77526526      -0.47431788       0.15058668       0.59329157
Si       2.63762347       9.15598008       7.79728485      -1.09002947      -0.51478062      -0.54697237
Si       6.95699472       3.16111643       8.98477079       0.42303183      -0.46365346      -0.07529681
Si      10.09253259       5.68499669       9.86475697       0.55492968      -0.25339302      -0.65444089
Si       6.28581447       6.63411354       9.93056714      -0.36120888      -0.40581315      -0.50710176
Si       4.79835880       2.26799821       6.97590015       0.09005520       0.14040923       0.12568324
Si       8.04864673       8.87022424      10.07105645       0.33816640       0.30058099      -0.08252264
Si       8.49023045       3.66822112       5.66359553       0.78707690       0.51745225       0.04707253
Si      10.55974842       1.84251357       3.39538309      -0.72245325      -1.81678212      -1.12980084
Si       0.86802916      10.29010236       3.38692117       0.61285921      -0.34848938       0.00465395
Si       9.38610147       2.25545529       0.66884519       0.04110448      -0.57996631      -0.60388914
Si       2.77101118       2.82379643      10.66612226       0.48887213       0.72005724      -1.10749549
Si       0.81645965       4.12941721       0.69039738      -0.49936763       0.51456233       0.09725301
Si       2.38200920       5.76597405       1.64557576      -0.00151489       1.16188229      -0.58246748
Si       3.95734030       6.95891204       4.88273165       0.40257793       0.60954017      -0.13592625
Si       8.28818335       6.17787678       0.50517558      -0.60033948      -0.27731199       1.03176056
Si       0.46998685       3.88507122       7.39360840      -0.38405494      -0.28005793      -0.07951471
Si       8.17133387       0.79251884       2.86292478       0.21848978       0.79990259       0.54755910
Si       6.65382232       7.38706380       4.93775555      -0.05313108       0.51993337       0.45385036
Si       2.04856669       5.72718847       8.25452847       0.42157273       0.32924056      -0.36974186
Si       0.68882068       3.95498382       3.37553507       0.71795870       0.35419749      -1.17225078
Si       5.00765744       2.33679684       4.24866602       0.43859575      -0.53209828       0.01270202
Si       2.22315003       9.70242734      10.25036347      -0.00340954       0.24990326       0.54633731
Si       7.26648679       3.11794992       3.60625629      -0.26282434      -0.54385440      -0.44424317
Si       1.48471358       1.86222234       8.57660631       0.01116424       0.36249469      -0.25199665
Si       6.07811181       8.46321657       1.93294900       0.26271455       0.36599705       0.03106818
Si       5.52838689       7.28922686       7.48258710       0.50414242      -0.79412378      -0.38367415
Si       4.16689602       5.02303886       7.09487047      -0.49172605       0.21042371       0.08003664
Si       8.17619680       7.16396901       7.71417594       0.08659553       0.09396559      -0.16861680
Si       3.23989798       6.70868556      10.24475075       0.57638142       0.07550893       0.01959721
Si       1.60900741       7.25361181       6.18513904       0.14015006       0.34268049       0.23160343
Si       8.60119943       9.40553175       1.80070739      -1.48210573       1.09808165      -1.08144481
Si       6.55866320       6.19883878       2.86609532      -0.30517812      -0.43039470      -0.34398069
64
Lattice="10.710365189293212 0.0 0.0 0.0 10.710365189293212 0.0 0.0 0.0 10.710365189293212" Properties=species:S:1:pos:R:3:forces:R:3 energy=-6823.743406598324 stress="0.027351915356791663 0.008128449367360745 0.0037681188527785496 0.008128449367360745 0.02506294842209943 0.001312965389735216 0.0037681188527785496 0.001312965389735216 0.022246959016282715" free_energy=-6823.743406598324 pbc="T T T"
Si       6.85512640       0.40600210       8.26012281       0.48141618       0.56080774      -1.09814053
Si       8.61957338       9.00178347       5.91781950       0.08897123      -0.79252198      -0.63063376
Si      10.54643234       8.21819173       4.51528647      -0.24272628       0.48889964       0.46640428
Si       9.11977957       6.00415575       4.93427595      -0.56591600      -0.04514703      -0.53420762
Si       1.94559139       1.02035614       1.32015961      -0.63035119      -0.32009823      -0.21239189
Si       5.25288790       8.76979696      10.23965535      -0.50320114       0.42952052       0.72520561
Si       4.10102025       9.09046530       3.31125934      -0.23712847      -0.73359152       0.11446423
Si       5.11486342       3.50694843       1.26261282      -1.42860365      -0.06523969       0.21426828
Si       3.85325737       1.11507754       9.25552273      -0.13576582      -0.61139573       0.63012956
Si      10.17430070       9.82929842       8.80785089      -0.42077980       0.75883719       0.93091726
Si      10.68748785       7.63456251       8.38059300      -0.01767993      -1.71220687      -0.49730303
Si       9.90198967       7.67876419       2.21785958       1.72991174      -1.93554060       0.46254506
Si       7.50318917       0.70558708      10.46126352       0.21198977       0.37287938       0.72068639
Si      10.33010438       1.99554453       5.58394528      -0.43495069       0.88454639       3.29625144
Si       8.59112665       4.57031632       8.00653350       0.59535745      -0.02137050       0.17018415
Si       2.70509552      10.24916615       5.36077341       0.31324855       0.35426408       0.06900044
Si       3.83059424       0.70730181       2.64646698       0.97631472       0.25022464       0.43022912
Si       9.19446294       4.99456460       2.60970900      -0.78598855       0.70268069       0.35265662
Si       4.93434022       9.73239103       8.03103881      -0.15979123      -0.45275893      -0.33036850
Si       7.33704999       3.78202273       0.82167887       1.26119064       0.45111728       0.16287913
Si       5.26074930       0.12400247       5.83412871      -1.09886507       0.83261885       0.32341007
Si       9.65908929       1.90434577       8.76820112       0.20931145       0.12276735       0.67114406
Si       2.18165855       8.30431378       1.91510969      -0.46108750      -0.29740053      -0.50069637
Si       2.24200075       1.80794178       6.23521046      -0.28160110       0.10299634      -0.09646085
Si       4.15298694       5.08554915       3.04547092       0.73101271       0.09567281      -0.28548501
Si       0.60180471       5.19474132       5.45572079       0.11636993       0.07403852       0.31449477
Si      10.64596376      10.49968160       0.58620613      -0.05474239       0.04050619      -0.20831798
Si       6.86164901       9.92677345       4.43143502       0.68547641      -0.61265892      -0.53996457
Si       5.27319475       0.38989906       0.72444268       0.00506379       0.13983253      -0.78876071
Si       9.05543169       0.34935283       6.80765806      -0.18857062       0.43647716       1.55615530
Si       4.90117021       4.41676182       9.48070816       0.21235204       0.51934690       0.17503196
Si       3.04263267       3.66796806       4.69713776      -0.97130904       0.47099627       0.63049697
Si       2.60665655       9.12769453       7.86574575      -0.18998061      -0.19026395      -0.44533898
Si       6.87503697       2.97594994       8.83266681      -0.32588810       0.01051658       0.14916666
Si      10.10969578       5.52307828       9.90190398       0.79361830      -0.09616903      -1.27743075
Si       6.22209026       6.69545627       9.92136472      -0.17729916      -0.96292544      -0.36998920
Si       4.86621158       2.29056154       7.11117910       0.20987787       0.00043683      -0.00850110
Si       8.12449746       8.72869058       9.94476686       0.18179422       0.37735721       0.09953949
Si       8.41373087       3.78095170       5.70973852       0.79137733       0.00223017      -0.19645002
Si      10.56601089       1.82785234       3.49414954      -0.73559750      -1.49626120      -3.10920214
Si       0.83045494      10.38551981       3.36636417       0.80440742      -0.92296201      -0.13130341
Si       9.39155508       2.35468450       0.63502826       0.12115964      -1.07364434      -0.69593849
Si       2.78063572       2.84188830       0.02392696       0.47305161      -0.15161410      -0.74631386
Si       0.95018933       4.19902009       0.66866095      -1.05243300       0.24475565       0.26090604
Si       2.42733290       5.77435416       1.59492332       0.03103039       1.47404430      -0.12924858
Si       3.85715595       6.92852453       4.91555423       0.69387801       0.54767120      -0.13654897
Si       8.35940790       6.27231117       0.41072537      -1.03296666       0.14453431       1.26371006
Si       0.45389992       3.79754205       7.41471085      -0.66900747       0.04770579      -0.09777854
Si       8.23809159       0.82615045       2.80852551       0.34189579       0.27520471       0.50180735
Si       6.63864850       7.41129424       4.80584796      -0.12937354       0.28237449       0.49056905
Si       1.95614110       5.72195905       8.28851599       0.52030592       0.65532817      -0.10902223
Si       0.68675718       3.94631974       3.36230494       0.87748897       0.67830664      -0.52965034
Si       4.92013827       2.39158171       4.25323596       1.07792574      -1.28042840      -0.56933043
Si       2.22854853       9.72714295      10.33089695       0.04515680       0.11128634       0.35507500
Si       7.39907371       3.11102907       3.48942627      -0.79585824      -0.44447303      -0.19534908
Si       1.47394975       1.90104698       8.55116628       0.15064248       0.06516358       0.33682017
Si       6.14719268       8.47079570       1.92759797      -0.05730552       0.03402032       0.46980997
Si       5.56354204       7.28384090       7.53506322       0.43427012      -0.49975972      -0.30599650
Si       4.07746816       5.14652326       7.10316775      -0.30074014       0.12673225       0.13334461
Si       8.27407842       7.27488703       7.63243115      -0.03416045      -0.12324094       0.05812441
Si       3.21436267       6.72637710      10.28011911       0.66989604       0.20256179      -0.46960685
Si       1.59139961       7.41133708       6.19601052      -0.00927808      -0.20448960       0.15582634
Si       8.53613964       9.33394403       1.79346136      -1.46119315       1.73878359      -1.11028128
Si       6.52499010       6.06454079       2.82832898      -0.24562263      -0.06188260      -0.33524203
64
Lattice="10.70783942647774 0.0 0.0 0.0 10.70783942647774 0.0 0.0 0.0 10.70783942647774" Properties=species:S:1:pos:R:3:forces:R:3 energy=-6822.444599491176 stress="0.021299420357396882 0.006210418109209091 0.00034706357854539274 0.006210418109209091 0.014488527167847346 0.002492797925266511 0.00034706357854539274 0.002492797925266511 0.018191456829946738" free_energy=-6822.444599491176 pbc="T T T"
Si       6.89268978       0.46244589       8.18560785       0.91583492       0.03749054      -0.42755749
Si       8.66355226       9.04221359       5.93507699       0.43976148      -0.38734440      -0.85451462
Si      10.54201783       8.20226925       4.51546376      -0.24678605       0.48519751       0.17446863
Si       9.14616529       5.98823071       5.07639393      -1.15140864       0.81845284      -0.85763671
Si       1.89778251       0.86788323       1.37363377      -0.32430096       1.08264449      -0.46695373
Si       5.24942191       8.83055173      10.25823866      -0.50234291      -0.30803513       0.35766410
Si       4.11739983       9.18280752       3.40962235      -0.29613761      -1.28107195      -0.11810028
Si       5.05397172       3.55173680       1.20306859      -1.14893550       0.05040159       0.10210108
Si       3.76289539       1.10680511       9.28682347      -0.05946576      -0.62200642       0.44864593
Si      10.22188555       9.75505587       8.74946126      -0.27928994       1.06084539       0.86341449
Si       0.00260308       7.56512068       8.40794543       0.20669253      -1.85704868      -0.51177217
Si       9.82862944       7.54981918       2.24314245       0.89348457      -0.94541726       0.24776384
Si       7.61823156       0.73109487      10.51246419      -0.52724584       0.12661038       0.03478805
Si      10.31234538       2.13843049       5.63657455      -0.43617762       0.56439340       1.93528478
Si       8.46877666       4.51301167       8.06898877       0.58043091      -0.20923432       0.21057592
Si       2.73453591      10.28268466       5.40089500       0.34722568       0.32279249       0.12242051
Si       3.78139854       0.64928162       2.58141381       1.71109255       0.87501660       0.66883906
Si       9.15154063       4.93305879       2.55948415      -0.45069587       0.83951738       0.57724814
Si       5.01225397       9.78965290       8.09787852      -0.70983710      -0.65151394      -0.89874582
Si       7.33987057       3.75458611       0.89173066       0.60965253       0.47204966       0.44904085
Si       5.31598184       0.16082961       5.79808089      -0.96311390       0.70057882       0.37157197
Si       9.71405556       1.86715808       8.68392928       0.15844655       0.25154876       0.93479449
Si       2.26707447       8.29176537       1.89045834      -0.16349722      -0.12802345      -0.28506823
Si       2.23111755       1.88161367       6.34005819       0.02658906      -0.07168338      -0.87839631
Si       4.11037549       5.00587210       3.03804962       0.81019574       0.22089196      -0.22775295
Si       0.54263475       5.23330661       5.59232976       0.80260970      -0.04836502      -0.10754642
Si       0.00332585      10.52399653       0.53177700      -1.04198481      -0.43720015      -0.33573362
Si       6.94677507       9.80146365       4.44311089       0.22474193       0.24466309      -0.49780697
Si       5.25728146       0.20514935       0.66832444       0.25926079       0.92316102      -0.25743530
Si       9.09200504       0.40873858       6.80058094      -0.17952214       0.25859384       1.31963952
Si       4.83165555       4.46773892       9.47186564       0.40368094       0.35750521       0.11922231
Si       2.89648127       3.58923565       4.62582946      -0.91470055       0.43775577       0.50340297
Si       2.56330685       9.09950053       7.92247340       0.25256846       0.11572947      -0.27397932
Si       6.78999089       2.78660813       8.68618863      -0.13482428       1.05010332       0.62624951
Si      10.16037972       5.34596379       9.90011498      -0.02036057       0.33424161      -1.08949237
Si       6.15455557       6.72763914       9.89971878      -0.07758844      -1.18019729      -0.01968514
Si       4.92605587       2.31517409       7.25175576      -0.43939613      -0.14156494      -0.50510530
Si       8.20629540       8.59428325       9.81315661       0.02589049       0.61146798       0.09743478
Si       8.34157824       3.88772738       5.73883442       0.54798873      -0.60191068      -0.27932542
Si      10.54936340       1.77099098       3.50208455      -0.75810108       0.00924132      -1.94454049
Si       0.81299485      10.44870971       3.34784883       1.05071010      -1.72884396       0.04672260
Si       9.39004704       2.43379553       0.58721042       0.19722572      -1.25621915      -0.67395222
Si       2.80669604       2.85180817       0.07148339       0.32443979      -0.71294557      -0.49617869
Si       1.05412576       4.27282412       0.65374465      -1.23930746      -0.16414360       0.42372166
Si       2.47463523       5.82293379       1.54349222       0.17303884       1.35021688       0.61834337
Si       3.76746764       6.90073137       4.95089805       0.77425609       0.41664213      -0.03640656
Si       8.39765519       6.37406628       0.34844809      -0.43044226       0.01944834       0.74348564
Si       0.43083741       3.71130502       7.44027798      -0.77897741       0.71437150      -0.15351029
Si       8.30911207       0.86557570       2.76698066       0.28450799      -0.14976342       0.32567547
Si       6.62332337       7.44327617       4.68796706      -0.14242497      -0.56641737       0.41541905
Si       1.85956623       5.72624200       8.31993770       0.52096464       0.76880818       0.13162557
Si       0.69638969       3.96677265       3.34187385       0.48810619       0.21868878      -0.27055436
Si       4.86103786       2.41702705       4.24760716       0.95356843      -1.48283233      -0.75925962
Si       2.22656671       9.74980903      10.42267895       0.28267377      -0.30841359      -0.14318191
Si       7.52242852       3.10155781       3.37454347      -0.90674375      -0.33930077       0.13613503
Si       1.47542249       1.94701715       8.52912605       0.30802330      -0.41802409       1.45011787
Si       6.21096447       8.47546906       1.92607262      -0.80946375      -0.37371344       0.79316399
Si       5.60932310       7.26493711       7.57805575       0.36095769      -0.13628518      -0.41034318
Si       3.99360650       5.27941457       7.11384949      -0.08793121       0.07828238       0.25988454
Si       8.37016817       7.38298033       7.55485186      -0.36646730      -0.67046529       0.38039574
Si       3.20285397       6.75194594      10.29876784       0.85104492       0.37977662      -1.11649101
Si       1.57541229       7.56710163       6.20829822      -0.07897400      -0.60722515      -0.03033593
Si       8.42803333       9.30706129       1.75861272       0.00403252       1.26527380      -0.77270392
Si       6.48216192       5.93318170       2.77720665      -0.12325200       0.32280663      -0.18919360
64
Lattice="10.704736331327954 0.0 0.0 0.0 10.704736331327954 0.0 0.0 0.0 10.704736331327954" Properties=species:S:1:pos:R:3:forces:R:3 energy=-6819.356301575658 stress="0.010828750913662333 0.001890486529695671 -0.005881717682967688 0.001890486529695671 -0.0020070925468260014 0.0012248222586760686 -0.005881717682967688 0.0012248222586760686 0.0076060176843122575" free_energy=-6819.356301575658 pbc="T T T"
Si       6.96325971       0.52214385       8.09928915       0.87745272      -1.90493085      -0.38494171
Si       8.71302379       9.06727563       5.91024550       0.96001058       0.47069108      -0.71033795
Si      10.53058098       8.19937843       4.51101871      -0.09102451       0.30821536      -0.12363150
Si       9.14698310       6.00036867       5.21092648      -1.27214379       1.67137595      -0.74651440
Si       1.83860269       0.72385641       1.41533742       0.48989902       2.25020326       0.20164262
Si       5.23654292       8.88465283      10.30467893      -0.48975299      -3.11640380      -1.15932790
Si       4.11736274       9.24401083       3.51858260      -0.38698239      -1.44833352      -0.26243096
Si       4.95207526       3.61004387       1.12911418      -0.30162151       0.09118263       0.03051539
Si       3.66317148       1.09200086       9.32031419       0.15505243      -0.63589500       0.19579645
Si      10.25506247       9.72060710       8.71604253       0.09320532       0.52065996       0.61797262
Si       0.04300093       7.44040192       8.42536612      -0.06921641      -0.73296855      -0.42978689
Si       9.75193986       7.38030553       2.27464942       0.14351435      -0.19032257       0.23856186
Si       7.73038252       0.76241380      10.56649537      -1.01299176      -0.17819339      -0.29619880
Si      10.26850762       2.30722394       5.76262719      -0.43130281      -0.31392013      -0.85841704
Si       8.35865420       4.44595532       8.14271826       0.17261127      -0.46026140       0.07953888
Si       2.77038576      10.32237385       5.44352970       0.31462281       0.23513510       0.06760279
Si       3.78807434       0.61028451       2.53407871       1.77066990       1.27732688       0.50873595
Si       9.09963605       4.88931339       2.51509921       0.16208671       1.03458363       0.49788384
Si       5.06942057       9.82365089       8.14090916      -0.51107309      -0.56778005      -1.12006947
Si       7.36945093       3.73806181       0.97413957      -0.44279333       0.49387986       0.32340338
Si       5.34780795       0.22282765       5.76672710      -0.61221797       0.34066577       0.20913379
Si       9.78002909       1.83118431       8.62177662       0.18262186       0.55094550       1.62507784
Si       2.36722398       8.27183879       1.85032438       0.15131276       0.24580003       0.05994733
Si       2.23133806       1.94943953       6.41379630       0.35151300      -0.12317075      -1.42647323
Si       4.08287207       4.92537764       3.03847518       0.69851731       0.29368966      -0.16627556
Si       0.51530032       5.27123697       5.72607051       1.19935072       0.04818324      -0.33327693
Si       0.05193403      10.54001185       0.45269474      -2.18359446      -0.61858557      -0.81589717
Si       7.04564336       9.67803437       4.43625683      -0.49386212       1.60518238      -0.57425821
Si       5.24824320       0.02954400       0.60398584       0.30536195       3.63579184       1.46229153
Si       9.13946838       0.48794543       6.83222303      -0.51641584      -0.72701516       0.51203545
Si       4.76410009       4.52464584       9.47298514       0.34364002       0.51684496       0.07304067
Si       2.71547047       3.51044700       4.55270295      -0.10373656       0.13128593       0.36720907
Si       2.52405907       9.08311864       7.98011332       0.25444897       0.27775653       0.03145848
Si       6.71082062       2.62038029       8.55397282       1.93259977       3.36845290       2.23951339
Si      10.22148171       5.16003617       9.86225217      -0.81590436       0.59217571      -0.68435053
Si       6.08701281       6.72961813       9.87887663       0.05218851      -0.99526195       0.49889429
Si       4.95860514       2.33391084       7.38835549      -2.85921738      -0.51356706      -1.96157533
Si       8.29775496       8.46273635       9.67630020      -0.08973279       0.94634903      -0.03860511
Si       8.26799579       3.97140366       5.75000630       0.19699535      -1.05761583      -0.11044199
Si      10.50435437       1.71511286       3.45241663      -0.36933537       1.56596612       0.06320491
Si       0.82198138      10.45777806       3.33859317       1.09909544      -2.17091610       0.60394545
Si       9.38878168       2.49368974       0.52016776       0.41131429      -1.08428948      -0.63948375
Si       2.85089608       2.83793265       0.10774959      -0.09393808      -0.67705528      -0.29995929
Si       1.12560303       4.33766621       0.65110167      -0.75784911      -0.41255021       0.71229919
Si       2.52708852       5.91297521       1.51807077       0.13361920       0.58641695       1.08277484
Si       3.68955865       6.87385375       4.99113684       0.62380748       0.33257168       0.13370611
Si       8.41914667       6.48245648       0.30113922       0.18729638      -0.60420667       0.20704682
Si       0.39470718       3.64944801       7.47126368      -0.48368133       1.56542413       0.31792539
Si       8.38799589       0.89841212       2.73038216      -0.25770218      -0.44733775       0.06750868
Si       6.60123623       7.46068740       4.57232473      -0.20734867      -1.68938935       0.26879701
Si       1.75567310       5.73819898       8.35563547       0.78292662       0.45009809       0.23494098
Si       0.70549886       3.99970698       3.32553339      -0.18961166      -0.25199099      -0.45225782
Si       4.82269781       2.40972179       4.22962331       0.35806237      -1.30837038      -0.72531386
Si       2.22204635       9.76243051      10.51514475       0.74508538      -0.96874231      -0.89551549
Si       7.63823615       3.10121564       3.27301595      -0.99081703      -0.53150462       0.87409666
Si       1.49706808       1.98435838       8.54427433       0.37943286      -0.84708310       2.18673841
Si       6.24598885       8.47197454       1.93264380      -1.77130367      -0.83655598       0.94401164
Si       5.66447546       7.24042674       7.60647520       0.33993198       0.17428017      -0.70764678
Si       3.91715205       5.43451631       7.12953638       0.06799797       0.01668954       0.33628924
Si       8.45800486       7.47651970       7.48538322      -0.69188103      -1.31281350       0.45609365
Si       3.21108905       6.79347188      10.28263787       0.97442290       0.46737668      -1.55266709
Si       1.55865243       7.71781516       6.21417437       0.04687224      -0.79841675      -0.36654238
Si       8.31859708       9.31257467       1.70430107       1.56240720       0.85481930      -0.47007865
Si       6.42862236       5.80842205       2.71730098      -0.02289644       0.60542820      -0.01735803
64
Lattice="10.70277414223938 0.0 0.0 0.0 10.70277414223938 0.0 0.0 0.0 10.70277414223938" Properties=species:S:1:pos:R:3:forces:R:3 energy=-6817.525735455457 stress="0.003182334294281299 0.00028646517594222896 -0.008248728014951873 0.00028646517594222896 -0.011542159380672306 2.8462886071183002e-05 -0.008248728014951873 2.8462886071183002e-05 -0.0008079787013755176" free_energy=-6817.525735455457 pbc="T T T"
Si       7.06851875       0.51775098       8.00469040       0.22334170      -2.24203358      -0.14366065
Si       8.78675281       9.10869226       5.85258728       1.12037851       0.85622389      -0.02823020
Si      10.51636393       8.20775414       4.49589293       0.25196117       0.05327891      -0.44576424
Si       9.12222057       6.06412761       5.33699184      -0.91892333       1.40905529      -0.37796553
Si       1.80004607       0.63237876       1.46154943       0.56823848       2.34190937       0.56740493
Si       5.21883321       8.84495450      10.33350703      -0.75566547      -3.87760975      -1.76856159
Si       4.09916250       9.26066095       3.63181516      -0.41565688      -1.16570706      -0.61153020
Si       4.84479266       3.68188274       1.04370564       0.69477018       0.15017711       0.30402986
Si       3.56595029       1.06504055       9.35052144       0.79982906      -0.92381742      -0.00371550
Si      10.28472378       9.71314213       8.70963932       0.41838713       0.08326029       0.24175312