64
Lattice="10.57699930335791 0.0 0.0 0.0 10.57699930335791 0.0 0.0 0.0 10.57699930335791" Properties=species:S:1:pos:R:3:forces:R:3 energy=-6822.922103766794 stress="0.03011373346331162 0.0024882071371905142 -0.006501474073227317 0.0024882071371905142 0.01647817471998456 -0.002617667360933637 -0.006501474073227317 -0.002617667360933637 0.006509737491764113" free_energy=-6822.922103766794 pbc="T T T"
Si       8.33291967       8.89335255       7.38964172      -0.47655551      -0.53792183       0.13135355
Si       0.56846823       8.13186149       0.85872753      -0.31694863       1.20542161       1.77578819
Si       7.39491964       5.46767402       0.78144246       0.42649202       0.14067328       0.11403100
Si       4.90741037       6.45470902       7.19568070      -0.75641007       0.21738703      -0.02589692
Si       0.45128248       6.31940804       2.51239695      -1.66417043       0.27734233       0.09044215
Si       4.40015863       3.08769052       0.57141498      -0.52013366      -0.52605851      -0.12860272
Si      10.20822165       1.14314093       4.26641248       0.98930393       0.57865865      -0.23549479
Si       6.23178818       2.33876493       7.38703978       0.86659932       0.65381405      -0.11400014
Si       0.45826436      10.25986913       6.05485614       0.19086276       0.12848291       0.17176769
Si      10.14280290       1.63878970       7.38854171       0.11927270      -0.48247959      -0.04068334
Si       3.82159677       9.70208050       3.63338965      -0.21660901      -0.36041776       0.21456319
Si       9.85522487       8.16306364       5.69489970       0.06673324       0.31110965      -0.02023330
Si       8.75943717       2.80100096       5.69353526       0.15534708       0.61133454       0.15209901
Si      10.09053137       2.83059540       2.31080992       0.29768978       0.45151683       0.35209227
Si       5.13370527       0.88937545       2.38636143      -0.08533029      -0.05475498       0.14989917
Si       6.00088171       7.67266106       9.30256608       0.69135807      -1.68770914       0.81830963
Si       7.43403338       2.91703064      10.19038882       0.60656000      -0.30964515       0.02764270
Si       8.74447071       8.72407826       0.27334880       0.08298673       0.11679776      -0.51988066
Si       7.14780921       4.84603204       7.52058497       0.01581666      -0.63975834      -0.53071812
Si       2.65994609       5.72884129       2.56142134       0.64019569       0.76241642      -0.07990423
Si       1.34580681       3.19367205       4.86289178      -0.75840370       0.24506547      -1.51282964
Si       3.20703080       1.11467823       6.08166883      -0.34666878       0.30450706      -0.27754004
Si       2.30658970       5.55066116       7.93931779       0.14163410      -0.21960795       0.21619661
Si       3.88137797       2.74902558       3.74898567       0.61862439      -0.12883901       0.43260328
Si       6.44960033       0.63171446       9.03892380       2.00573763       0.63921918      -0.39713851
Si       5.74615583       7.83931227       4.50262860      -0.64887753      -2.01966864      -0.48673991
Si       1.23683199       9.67963611       3.31252580      -0.48811108       0.05387181       0.25645314
Si       2.59849373       9.82568331       7.37345891       0.08464740      -0.35042079      -0.07780158
Si       0.79134147       6.87541974       9.66370714       0.15177890      -0.89730549      -1.79747339
Si       8.97028965       0.19604468       9.04936329      -0.31940120      -0.81120876       0.05039516
Si       7.47864717       0.02615586       1.71691141      -0.58517639      -0.51937235      -0.39434629
Si       0.57529674       6.24002766       6.06973797      -0.10152849       0.01778895       0.13076888
Si       1.75669151       2.92115567       7.10086848       0.43725414       0.09896587       0.77902960
Si       3.28341789       8.44373489       1.55486121       0.02616483      -0.85674120      -0.28484892
Si       5.71143155       8.71071951       1.09140883       0.27503476       0.21485475      -0.55127820
Si       0.44456503       9.17005743       8.75706792       0.28725830      -0.07945300       0.17996205
Si       9.94296108       5.09077323       0.75329283       0.04054913      -0.57316343      -0.07858448
Si       2.64309693      10.40676250      10.06118020      -0.54964581      -0.15039796       0.03146799
Si       6.88021112       5.44528251       4.83107616      -1.29021453       0.56163203       0.80651907
Si       1.10388969       0.33661723       1.28796121      -0.22672219       0.69036074       0.12988262
Si       4.70633103       4.28766167       5.49845309      -0.07619644       0.67909622       0.55016003
Si       3.38093783       8.11866139       5.80598992       0.77706194      -0.95380214      -0.64025508
Si       4.76042181       4.75866603       2.25730088       0.58874534      -0.69216720       0.32423976
Si       7.82511793       4.28262702       2.96464829       0.47524811      -0.54432928      -0.06668105
Si       9.67894860       4.86393890       7.47188846      -0.03058327      -0.46265587       0.32275521
Si       9.31829408       1.21685204       0.70351219       0.37341931       0.20023443      -0.22098529
Si       7.33489517       7.38805517       2.48918044      -0.78326395      -0.35386221      -0.68481821
Si       1.97106613       4.11653640       0.20744457      -0.14253836      -0.22135836       0.13445790
Si       8.63891226       6.63061509       8.95736455      -0.38350446       1.25845652       0.25678199
Si       1.96352473       2.00866736       9.32647010       0.01166098       0.86113804       0.01367107
Si       6.70957239       2.23834690       3.77424355       0.15329508      -0.51750110       0.53544020
Si      10.15182509       3.23614928       9.49929827      -0.26418445       0.30380361       0.03500891
Si       6.79803842       9.50615216       5.51331377       0.90242507       1.61141911       1.44101513
Si       9.93181292       4.83282137       4.47137357       0.52557334      -0.85186716      -0.40884397
Si       2.18059648       2.36675167       2.28021066      -1.30388740       0.14513132      -1.32695071
Si       9.34143655       8.24784886       3.35832420       0.90483419       0.31295159       0.15219954
Si       4.86561007       0.49245240       0.02052467      -0.76352714       0.16863660       1.53063659
Si       4.19918507       3.27912363       7.99773456      -0.71067554       0.72916743      -0.31833060
Si       5.21425969       5.13954377       9.79827831       0.36691493       0.53684634      -0.12159930
Si       5.38040320       9.36253767       8.00900964      -0.63128219       0.88895249      -1.49625117
Si       8.14505101       0.15373563       3.92546291       0.07782498      -0.39015565       0.59684072
Si       3.22420785       6.42178282      10.40830674      -0.45656133       0.03979116       0.23079559
Si       2.72176865       5.73856155       4.99070424       0.15955289       0.46161972       0.31923588
Si       5.49580884       1.01876071       5.57594018       0.36265410      -0.28584317      -0.61579489
64
Lattice="10.655250853865981 0.0 0.0 0.0 10.655250853865981 0.0 0.0 0.0 10.655250853865981" Properties=species:S:1:pos:R:3:forces:R:3 energy=-6824.116476439861 stress="0.024084192404296816 0.00045356986190852916 -0.007965935469470444 0.00045356986190852916 0.027827521001464982 -0.0030464469672317803 -0.007965935469470444 -0.0030464469672317803 0.026717468444688842" free_energy=-6824.116476439861 pbc="T T T"
Si      10.47238544       5.99212949      10.16752806      -0.48600766      -0.03445433       0.83143563
Si       0.87343009       4.76029725       4.56017033      -0.20244146      -0.10457165       0.04593507
Si       1.48657798       6.04083464       8.49934198       0.18800035      -0.32668360      -0.77780601
Si       4.76265206       4.89964662      10.35858736       0.20444821       0.35637444       0.22789539
Si       8.42312497      10.24570563       5.63882268      -0.39623631       0.99905998      -0.71889844
Si       3.24420423       8.47149981       3.63089394      -0.32749015      -0.51225759       0.03403292
Si       6.99487384       0.97546691       3.76724918      -0.62702907      -0.11191395       0.59994815
Si       6.27956554       8.66914406       5.40421537      -0.47455828       0.07640162      -0.40871593
Si       5.25066255       3.42319113       3.44943501       0.32282566      -0.19358890       0.20522288
Si      10.36587555       4.05236238       1.02867710      -1.16885924       0.67883037      -0.06719244
Si       8.93148699       8.11617916      10.19742669      -0.34106866      -0.56484334       0.03247689
Si       5.40353343       0.65046151       8.20614145       0.59210192       0.34840350       0.20022466
Si      10.18725093       2.39899776       3.88389221       1.04884451       0.48905647       0.27093488
Si       0.57863127       1.78901662       6.83719744      -0.27404952      -0.64816996      -0.41096487
Si       5.30022012       3.99498386       7.72408724      -0.32953495       0.24365676       0.14211798
Si       0.04248035      10.28781518       8.02584395      -0.75566393      -0.05681572      -0.75969234
Si       5.72972263       6.31844655       7.30984305      -0.06614651       0.08038323      -0.92933449
Si      10.63278959       0.51235134       0.91199251      -0.43256317      -0.26484908       0.59326483
Si       8.61005004       8.76515853       7.49910162       0.13271057      -0.55117021       1.03806079
Si       0.77306828       7.18988624       1.47466541      -0.38356925       1.47924589      -1.03187137
Si       1.62124969      10.41056367       2.65685483      -0.26223607       0.02558736       0.19726249
Si       1.45985461      10.49008381       9.82373639       1.49121155       0.08695085       0.51507912
Si       4.10740741       1.13542353       3.16355463       0.14704113       0.05663189       0.54814968
Si       3.44181651       7.40241587       9.33423416      -0.10013161      -0.56580725       0.73093558
Si       6.62877007       3.25710774       1.34916786      -0.46799631       0.44035258      -0.45360405
Si       5.86059042       7.08574182      10.63747790      -0.05164729       0.31447857      -0.68067462
Si       2.83934732       2.54256661       6.23483480       0.25922916      -0.43185766      -0.51979864
Si       4.12146169       8.45254412       7.37654492       0.60238736      -0.18491940      -0.57163337
Si      10.57973709       3.67390918       8.23715888       0.01120101      -0.49779951       0.47900372
Si       7.46545234       2.85690717       8.55971463      -0.32714177       0.11067776      -0.06236031
Si       7.96915801      10.31759661       1.28512981       0.88313023       0.45721645      -0.29673282
Si       7.88152923       3.85807454       4.53384120       0.49664329      -0.15358330      -0.27839699
Si       6.65597293       5.81565723       5.05752547       0.09701569       0.93532311       0.37592896
Si       3.82594896       4.79077127       5.61331401       0.03511510      -0.21459764      -0.07583700
Si       2.54182075       8.73815812       0.56530794      -1.53047770      -0.14008398      -0.77802559
Si       8.15441020       0.23074692       9.47896444       0.41328761      -0.52453384       0.47674706
Si       9.17681349       5.48211591       2.99223951      -0.16904695      -0.61189684      -0.04023699
Si       9.54040261       2.16797061      10.24175253       0.12154350       0.80099839      -0.04556920
Si       7.95993056       6.29529269       8.10083560       0.56950398       0.36778679      -0.31682059
Si      10.56795238       7.19928417       6.66261115       0.26825836      -0.23989447      -0.05399908
Si       2.34320687       6.85725062       5.37008660       0.05507997       0.17304887      -0.15363627
Si       7.50507922       7.11282747       1.78751423       1.09635027      -0.30678172      -0.32222685
Si       8.52717350       2.05622900       2.22026659       0.08539816      -0.55857756      -0.82585171
Si       5.52095430       0.22050615       1.44187920      -0.09638783      -0.38443212       0.14810557
Si       2.77001360       2.07095456      10.13779991      -0.82006210       0.47138425       0.05233018
Si      10.52337081       0.10164896       4.49079399       0.40944509      -0.81291751       0.22129331
Si       4.67359547       8.59999148       1.39525182       0.37092354       0.50487879       0.45865292
Si       1.97483354       2.25375604       3.30556782      -0.80286141       0.03182203      -0.30865759
Si       6.38310261       9.17365953       8.74726836       0.66784173      -0.53424593       0.14304075
Si       1.96644786       3.70557659       1.29569981       0.53130870      -0.74311001       0.38032838
Si       9.34525169       4.80484685       6.58659659      -0.21204325       1.16695970       0.05149714
Si       8.97567432       7.24533617       4.74669050      -0.28511066      -0.06939613      -0.52822415
Si       7.82016564       5.03921975      10.18128399      -0.42597317      -0.38176280       0.63718390
Si       2.05277670       5.74280728       2.68724361       0.62417360      -0.78316059       0.53488125
Si       5.07735489       1.88768424      10.24524746       0.85471619       0.10247749       0.50783530
Si       8.31117025       2.09265930       6.26047133      -0.19734785      -0.25529255       0.26037767
Si       5.36458849       1.77526069       5.89686089      -0.37297014       0.08717248       0.02192688
Si       3.19348523       0.19329158       7.79972887      -1.25828220      -0.31283795      -0.87980451
Si       5.52661224       7.13861317       3.24487551       0.64181703       1.06814655       0.92414369
Si       9.75925081       8.72085399       2.56907688      -0.03001223       0.02844771       0.22829313
Si       2.69335972       3.76873026       8.29166049       0.28166487       0.19973306       0.09736819
Si       4.38549880       5.40230808       2.24384666      -0.48149537      -0.48958689      -0.58855225
Si       1.35340865       9.35269971       6.03905522       0.22801340      -0.19350380       0.19062467
Si       4.09540960      10.12940357       5.00457953       0.42521058       0.57841079       0.48257935
64
Lattice="10.667163691180436 0.0 0.0 0.0 10.667163691180436 0.0 0.0 0.0 10.667163691180436" Properties=species:S:1:pos:R:3:forces:R:3 energy=-6822.200553922864 stress="0.018711134040149627 -0.004209752665689486 0.0019033407363084633 -0.004209752665689486 0.030030181120328465 0.0028196620362775163 0.0019033407363084633 0.0028196620362775163 0.028579492088313334" free_energy=-6822.200553922864 pbc="T T T"
Si       7.09016502       2.91418378       9.23778509       0.25090727       1.06877622      -0.46300143
Si      10.20031527       3.68389431       3.17812141      -0.31588728       0.96111693      -0.54693021
Si       1.99770375       9.24239331       3.75851112       0.86938974       0.95703170      -0.41779475
Si      10.17632482       6.19863549      10.34017246      -0.67287827       0.27554101      -0.23073594
Si       9.90344811       4.37841201       6.84899112       0.15168172      -0.17286401       0.32824117
Si       6.14272888       3.84326174       6.92149583       0.61149883      -0.55224751       0.19144254
Si       8.66958795       9.17075263       4.45385019      -0.04256101       0.41625877       1.01615988
Si       6.37348097       9.11949691       8.37556892       0.31255538       0.05816864      -0.11169643
Si       8.37146206       3.92878039       1.33696896      -0.03437231      -0.60499883       0.24819296
Si       9.17300341      10.59076546       2.53876362      -2.82222949      -0.60062461       0.16089038
Si       0.53230640       0.48189339       2.65146221       4.39464754       0.81278947       0.70313707
Si       0.88672078       7.49263711       8.68045779       0.93381516       0.40385706       0.37904463
Si       8.28938890       1.75260433       6.81659494      -0.40396016       0.25477138      -0.09357453
Si       3.30989289       2.92676037       4.20049438      -0.11876285       0.11552481      -0.64596242
Si       1.49982455       2.50611144       8.59156831       0.37508847      -0.52054786      -0.10646990
Si       8.19759796       4.03675342       4.92966969       0.11952339      -0.00524788       0.67852981
Si       8.00991988       7.18762023       3.52300148      -0.46233526      -0.23718298      -0.79686560
Si       0.41764719       9.71972755      10.25934736       0.73016270      -0.09813644      -0.58698157
Si       7.68699283       0.49292643       8.85982615       0.82650759       0.06511987       0.11845638
Si       0.84024182       2.87183514       1.16330754      -0.56521306      -0.27667358       0.14287929
Si       9.94422867      10.05898602       7.92190511       0.07097659       0.38574646       1.00591454
Si       0.02481076       1.69823379       6.81808835       0.47873452       0.31586594      -0.20688176
Si       2.91210369       0.06450327       5.93068700      -0.21405694      -0.75499339      -1.26085382
Si       4.64897395       5.27041090       2.84820738       0.04964800       0.01514508      -0.22574234
Si       5.43436521       0.46249728       0.98155187       0.54894827       0.02918511      -0.31602355
Si       3.36848762       7.58012919       9.69849989      -1.30593837       0.34756841       0.11803806
Si      10.15617455       6.32088118       2.26738031      -0.10483210      -0.02777357       0.00387440
Si       4.98577897       7.18227598       8.08125120      -0.00656660      -0.81993457      -0.65581103
Si       6.29555733       3.29049998       2.32979389      -0.70024869       0.10401809       0.07259793
Si       4.17261042       1.72308829       8.66295297      -0.87779416      -0.29782656      -0.66225087
Si       3.24967675       8.37667830       1.32335766      -0.05135187      -0.07214875       0.61033001
Si       4.75132538       9.00370485       4.54255832      -0.30594482      -0.04847378       0.53146965
Si       8.50624167       6.28703427       7.94234340       1.15778601       0.61323536      -1.22953290
Si       1.32160825       1.60598416       4.78404157       0.12200116      -0.26341312      -0.44006256
Si       4.28784779       5.48210077      10.54456598      -0.06452980      -0.81151112      -0.21425594
Si       6.76410183       8.96751116       0.91855160       0.16067544      -0.08636515      -0.08949470
Si       8.34596754       8.32739601       9.32957603       0.77169913      -0.06957585       0.30585586
Si       2.52602703       0.19482188       0.96109971      -1.08062283      -0.84226768       0.52977426
Si      10.50508681       1.39019811      10.09784650      -0.34530507       1.09041025       0.53884846
Si       1.00568846       7.35219323       4.63869080      -0.57990435      -0.38048804       1.30653333
Si       3.91266231       4.47713661       6.03997209      -0.03917307      -0.36282816      -0.17126298
Si       3.25008210       4.63952284       8.32597727      -1.05576798      -0.16674787       0.16732534
Si       5.25750363       1.11822810       3.50396060       0.23023380       0.51557355      -0.08742522
Si       7.41247338       6.40110892       5.74450233       0.36637809      -0.72450370       0.01579711
Si       1.49999522       5.66225849       6.85794087       0.27117117       0.24707607       0.09317549
Si       3.04346981       7.73871791       6.41114672       0.13939441       0.00822007      -0.25755203
Si       1.53238073       4.92258670      10.50895899       0.78289911      -0.52455595       0.33513327
Si       7.52121444       1.11297986       4.49587881       0.06578193      -0.19026909       0.19956286
Si       4.62920769      10.03112339       9.52060360      -1.07579996       0.68668766       1.03146051
Si       9.56753912       3.93206588       9.29739320      -0.34237221      -0.34846598      -0.00367308
Si       5.14126355       2.87167514      10.62293763       0.01763211       0.08004333       0.95684761
Si       6.69317586       5.65802363       9.18344656      -1.67366295      -1.21018766      -0.21188718
Si       3.12810308       3.06552950       1.49452297       0.60356132       0.15922148       0.71866987
Si       2.07716345       6.22016182       1.89688838       0.52593329      -0.06417396       0.27357258
Si       8.01741890       1.22877192       0.68128294      -0.09353288       0.20105795      -0.96202401
Si       2.06520556      10.51657534       8.05188450      -0.30904763       0.17926863       1.07628127
Si       9.28059242       8.76342699       0.96491536      -0.35103400      -0.46988813       0.11843195
Si       6.55410805       9.81463330       6.18195204      -0.33291929       0.42201907      -1.41127441
Si       5.50225104       7.73509107       2.57676006       0.16097831      -0.31759140      -0.00249346
Si       4.98070140       1.08837071       6.34752776       0.42772692       0.26690930       0.31649354
Si       7.49954943       6.06849609       0.70603823       0.19889308       0.37670312      -0.10359052
Si       5.17438509       6.28272474       5.24603643      -1.03205006       0.66474150      -0.59580045
Si       1.31101575       4.89037186       4.40225312       0.27188696       0.14730904      -0.43113723
Si       9.93300682       8.15928151       6.52275725       0.38193712      -0.32245362      -0.75391918
64
Lattice="10.59072033919331 0.0 0.0 0.0 10.59072033919331 0.0 0.0 0.0 10.59072033919331" Properties=species:S:1:pos:R:3:forces:R:3 energy=-6825.058100119543 stress="0.017464275998708773 0.0015259779564614888 -0.0033338303007892094 0.0015259779564614888 0.021139660932352176 -0.0008942855172042659 -0.0033338303007892094 -0.0008942855172042659 0.0033687202901667886" free_energy=-6825.058100119543 pbc="T T T"
Si       4.51131855       8.56650537       7.68171423       0.52312436       0.20991592      -0.17944397
Si       0.05257128       2.57644690       4.36017838       1.77281111       0.75676951      -0.95768296
Si      10.35185723       9.81217531       2.01508577       0.75292365       0.55144121      -1.55706856
Si       4.65466395       6.04411351       1.40148061      -0.28860350       0.36121094      -1.56269336
Si       9.26075886       1.03588577       5.34454347      -1.00955060      -1.74298889       0.85517617
Si       9.43023157       1.49950832       8.35624780       0.28378911      -0.33182837      -0.10403455
Si       7.26409035       6.34869203       0.76972932      -0.66397788       1.18240458       0.59508928
Si       8.98891625       3.38935882       2.83777292      -0.43705977       0.05728444      -0.14075607
Si      10.30035456       6.38513470       8.37737629       0.04958887      -0.38265008      -0.65053255
Si       1.13065471       7.45686265      10.12806472       0.91332912       0.14426048      -0.49848188
Si       1.35929777       6.53632783       6.25738943      -0.24988166       1.21629686       1.93989554
Si       8.79603805       7.43040703       4.09397004      -0.34096813      -0.49116041      -0.23794840
Si       0.73653271       0.65662890      10.39298100       0.33238193       0.10826298       0.13483276
Si       3.36790202       6.21847913       9.66790851      -0.03522643      -0.02900667       1.13350220
Si       6.20835440       2.45795792       0.42273707       0.56066890      -0.24776873       2.00910475
Si       1.54443416       2.77495936       6.25909454       0.15617215       0.20947189      -0.36602173
Si       5.46009882       4.68611839       4.66040412      -0.74879934       1.96604571      -0.61034055
Si       2.04305586       4.18556918       3.45016015      -0.78476419      -0.04311020      -1.34944915
Si       7.39581773       2.50667523       7.36294414      -0.09456106       0.32499387      -0.24919440
Si      10.14614308       5.78959732       1.90481519      -0.81216547       0.07094522       0.63384969
Si       7.62936430       9.95026771       6.34586431      -0.71335823       0.49356053       0.52263971
Si       5.81882770       8.52018156       5.29163224      -0.23680066      -0.02778797       0.30224320
Si       3.67531886       0.42337040      10.15015696      -0.40574322      -0.44930748      -0.27639436
Si       0.72167392       6.05684355       4.20149762      -1.03454712      -0.95607499      -1.59713689
Si       4.56088312       9.12381026       1.20989448       0.37797350      -0.29950806      -0.77820145
Si       3.01856711       5.06259732       6.96726424       0.78540182      -0.06368365       0.25944976
Si       6.35968520       1.24629479       4.90812107       0.87845750       0.24337780       0.51524033
Si       5.28502363       3.24127937       9.17717690      -1.40413163       1.30193851      -1.92601852
Si       7.48185675      10.37785745       3.21146649      -0.24830892      -0.14540000      -0.45112627
Si       3.05546518       2.68720465       0.87537917      -0.06140874      -0.37901789       0.73147114
Si       9.06363378       8.43228917       7.79729076      -0.41036735       0.61450600       0.16923952
Si       5.76025043       7.73877703       9.72598802       0.07202020       1.95110195       1.25839816
Si       7.38871136       3.57989647       4.78353184       1.28366902      -1.66415963       0.01347927
Si       3.59761475       3.47468825       5.03730668      -0.29068250      -1.17457428       0.80965633
Si       9.81047020       9.46755327       4.17105989       0.25743710       0.76195722       1.11484293
Si       7.89609159       9.17929504       9.77013015      -0.18222102      -0.21768733      -0.14798139
Si       5.34348440       0.62281908       1.99248517       0.44503996       0.40931191       0.42970359
Si       4.58416153       1.67159694       7.08086030       0.16614443       0.02737608       0.12676027
Si       6.12829914       0.20234948       8.35379075      -0.06236931      -0.47287138      -0.80783264
Si       6.73052986       7.87707066       2.70389563       0.22625399       0.19412137       0.09904172
Si       4.49206462       6.77411068       3.57457993      -0.16326042       0.23680631       0.43765601
Si       1.67238065       5.05606284       1.11295762       0.64541966      -0.70926220      -0.21213709
Si      10.43580987       3.25117110       0.04955080       0.09680898      -0.24431831      -0.55475973
Si       8.11292600       4.18269909       0.60775802       0.09748878      -0.48280895      -0.39694233
Si       5.37181458       6.19372861       6.65251862      -0.53616448       0.67775539      -0.93296952
Si       3.61593669       9.83064552       5.35281483       0.34731053      -0.29137464       0.79542141
Si       6.16034666       5.77354178       8.75635462       0.32724924      -1.97000572      -0.14426563
Si       0.26079119      10.01122789       7.48563763       0.26445467       1.06256623       0.78965392
Si       3.97827701       1.20030988       4.10181776      -0.63703786       0.19485208      -0.97314763
Si       8.38154903       6.74842818       6.32229996      -0.76963453      -0.78076664      -0.13553725
Si       2.72346728       3.90881247       9.19358192       0.68274205      -0.45689146      -0.29774223
Si       8.25078541       4.67941447       8.55023802       0.54877626       0.02272032      -0.07039269
Si       9.60402529       7.92909228       0.56537607      -0.29915505       0.03494129       0.53492264
Si       0.04390913       3.56990942       7.89595391      -0.74568548       0.57600244       0.60185617
Si       8.99255946       1.23192318       1.64630630       0.71191070      -0.27559783       1.16347535
Si       2.20290160       9.07364201       1.12237277      -0.66110441      -0.02836544       0.55715214
Si       2.42477719       9.21678619       8.77729248      -0.91883282       0.63407543       0.42227721
Si       2.29856758       1.40125821       8.01448525       0.35297673      -0.75749327       0.76607021
Si       7.98069027       1.08186326      10.24348239      -0.21552838      -0.98760392      -1.68869876
Si       1.31207375       8.99926338       5.66642724       0.42170411      -0.71026108      -0.60769823
Si       2.15311463       7.84396407       3.52569316       0.80276731       0.27259427      -0.49492887
Si       4.95535568       3.89342416       2.14464205      -0.20588443      -0.91545439       0.08136205
Si       1.69253479       1.34596406       2.59614564       0.40813640       0.78472794       0.29834207
Si       9.45097879       4.68189269       5.63487748       0.12285219       0.07519345       0.85575389
64
Lattice="10.566611025580722 0.0 0.0 0.0 10.566611025580722 0.0 0.0 0.0 10.566611025580722" Properties=species:S:1:pos:R:3:forces:R:3 energy=-6823.0540154399605 stress="0.011578885685280284 0.0001918949415766854 -0.0005022322155141001 0.0001918949415766854 0.015178981694477334 0.0009062215662018589 -0.0005022322155141001 0.0009062215662018589 0.02618585518548836" free_energy=-6823.0540154399605 pbc="T T T"
Si       9.17881347       1.15898816       8.05952406      -0.20104715      -0.26164754       0.02923190
Si       5.45747496       8.33615794       9.12864320       0.10609554      -0.40616822       0.73773460
Si       2.85660932       8.41637965       7.35449864       1.02838573      -0.02402670       0.13208117
Si       0.18727099       5.60723554       4.95016140       0.36364038       0.10658611       0.51297082
Si      10.03783668       7.75101072       4.64598037       0.41084660       0.25200565       1.29355671
Si       8.82938621       8.02261489       2.72339606      -1.04704165       0.58067542      -0.18787642
Si       0.04991456       7.71685943       9.50822757      -0.45007032      -0.12225955       0.33910562
Si       3.06662072      10.48296573       6.04483060       0.48001390      -0.18220765       0.74194761
Si       8.56844375       1.31882929       2.76965668       0.17614962       0.25101217      -0.40425506
Si       7.52041557       3.71712243       2.74058794      -0.71531715      -0.85971313       0.22983991