64
Lattice="10.995360454155719 0.0 0.0 0.0 11.048391077626112 0.0 0.0 0.0 11.009159631525684" Properties=species:S:1:pos:R:3:forces:R:3 energy=-6857.242153634372 stress="0.004903879822780272 7.620708206155449e-05 -0.0005059048459748978 7.620708206155449e-05 0.00728466251899245 -0.0001028336529023386 -0.0005059048459748978 -0.0001028336529023386 0.005499764115044716" free_energy=-6857.242153634372 pbc="T T T"
Si      -0.00446192      -0.00859837      -0.00860057       0.08100903       0.01210244       0.13847756
Si       0.00953078       2.77129814       2.75158895      -0.11156891      -0.08634587      -0.04731267
Si       2.75000232       0.00815306       2.74375916      -0.07233644      -0.10152155       0.08586045
Si       2.74820678       2.77025468       0.00335688       0.08188964      -0.09537379      -0.03856912
Si       1.37980558       1.38384418       1.37037926      -0.11985146      -0.01457584      -0.02188549
Si       5.50559469      -0.00236290       0.00987383      -0.10112329       0.05164678      -0.04982592
Si       5.50349897       2.75599150       2.75880961      -0.04240392       0.08172946      -0.04500819
Si       6.87963321       1.37419245       1.37774945      -0.05937346       0.12014919      -0.00385768
Si       8.23991653      -0.00372193       2.74361842       0.13709071       0.05901890       0.21213118
Si       8.24639169       2.76432378       0.00087303      -0.00765777      -0.05788942      -0.02715599
Si      -0.00397152       5.52116632      -0.00270156       0.10158017       0.03628649      -0.01550170
Si       2.75625648       5.53362626       2.75358571      -0.12839061      -0.15366121       0.00439504
Si       1.38198596       6.90281582       1.36820218      -0.08681818       0.05876565       0.05322415
Si       4.12276648       4.14889255       1.37575050       0.09825599      -0.04818222       0.06844405
Si       5.50633797       5.52683662       0.00290827      -0.06361783      -0.05867206       0.01379345
Si       6.86743385       6.91067971       1.37850593       0.07485124      -0.09129139       0.10028048
Si       9.61763849       4.15277062       1.37139523       0.03294072      -0.09687428       0.08404113
Si       8.25154742       5.52226365       2.76166290      -0.10630586       0.05104077      -0.14120447
Si       0.00074658       8.29365745       2.74758114       0.03026857      -0.15325060      -0.00632569
Si       2.75518664       8.28747806      -0.00291927      -0.01591667      -0.04651357       0.01963834
Si       4.11927215       9.66746617       1.37565374       0.06840189       0.00215330       0.03574476
Si       5.49900847       8.29085034       2.75674688      -0.08448594      -0.02654484       0.00317814
Si       8.23877631       8.27964496       0.00448281       0.10448963       0.04395944      -0.08425274
Si       9.61431789       9.66289210       1.38186831       0.01707830       0.01046953      -0.12228707
Si      -0.00274224      -0.00706782       5.50156159       0.03340146       0.12604062       0.09552908
Si       2.74670811       2.77181382       5.50739793       0.03705628      -0.20619887      -0.05380933
Si       1.38349673       1.37733163       6.88071955      -0.12313039      -0.00394356       0.00445058
Si       4.11874877       1.37493464       4.12932741       0.03678194       0.11048519       0.01293651
Si       5.50400146       0.00285659       5.49966269      -0.08098152      -0.00241864       0.07004868
Si       6.86520179       1.37833001       6.89054390       0.09123097       0.02696187      -0.11641621
Si       9.62655353       1.38811918       4.13633695      -0.07161576      -0.09128110      -0.18801320
Si       8.24047179       2.75880191       5.50050384       0.03050640       0.01527415       0.12885186
Si       1.37467845       4.13581137       4.13411699       0.03060256       0.22231995      -0.06044355
Si      -0.00548778       5.52425821       5.50832154       0.08115533      -0.05603591      -0.05386204
Si       1.37112915       6.90942843       6.87228281       0.00801593      -0.01647023       0.11170055
Si       6.87616527       4.15088821       4.13643591      -0.10816142      -0.03849713      -0.01520987
Si       4.11731608       6.90257942       4.12826306       0.05622514       0.14364239       0.04811768
Si       4.12334154       4.13313950       6.87418830      -0.02899664       0.16919273       0.05315216
Si       5.48853429       5.53312157       5.51250857       0.02858244      -0.11887393      -0.09817192
Si       6.86238918       6.90305002       6.87672383       0.18511994       0.07357957       0.12246961
Si       9.62628524       6.89524332       4.12130849       0.02970447       0.13775971       0.04673417
Si       9.62662280       4.13487017       6.87844791      -0.15454207       0.06926680       0.01487126
Si       1.36457151       9.66990384       4.12711404       0.12605733       0.02129439      -0.06623007
Si       2.74367999       8.29306370       5.50510319       0.03986315      -0.00541500      -0.05105414
Si       6.87167366       9.66694938       4.13367608       0.06348671      -0.00082944      -0.06809232
Si       4.12465218       9.67607883       6.87668095       0.03432808      -0.09497141       0.05720782
Si       8.25384875       8.28372314       5.49762745      -0.04717640      -0.03614277       0.07888762
Si       9.61729873       9.67385887       6.88691543       0.05386487      -0.13922832      -0.09213368
Si      -0.00881058       2.75872164       8.25181241       0.16977328      -0.05785136       0.07998985
Si       2.74522704      -0.00925150       8.26210187       0.06416239       0.08038657      -0.04012798
Si       4.12266532       1.37332162       9.63724432       0.01974659       0.08070513       0.00012470
Si       5.49298631       2.76682632       8.24809598      -0.04668481      -0.13556039       0.12681555
Si       8.24886125      -0.00536244       8.25325170      -0.07031119       0.10189436       0.11310643
Si       9.62240498       1.37348985       9.63617007      -0.05997407       0.06848159      -0.06991189
Si       1.37750865       4.13651948       9.63761046      -0.08964897       0.05956809      -0.12766299
Si       2.75033658       5.52215920       8.25117468       0.01152960       0.03448055       0.06915599
Si       6.86245955       4.13596861       9.63031504       0.12004995       0.07920669       0.01768893
Si       4.13327035       6.90497091       9.64299049      -0.04756207      -0.01126040      -0.15404045
Si       8.25409394       5.52344785       8.26566216      -0.12645688      -0.07274396      -0.17087372
Si       9.62573328       6.90017474       9.62695816      -0.05546769       0.09690771       0.12428738
Si       0.00066192       8.29046880       8.26262964      -0.01175483      -0.05345915      -0.10871036
Si       1.37821566       9.65809812       9.63171365      -0.03618853       0.04216275       0.04533395
Si       5.50547374       8.29449640       8.26538288      -0.09003386      -0.01768945      -0.08029735
Si       6.87228611       9.67700134       9.64017238       0.06943675      -0.09736511      -0.02242105
64
Lattice="11.019999474153868 0.0 0.0 0.0 11.060839592205083 0.0 0.0 0.0 10.993143735435355" Properties=species:S:1:pos:R:3:forces:R:3 energy=-6857.077521088448 stress="0.006441793828239353 -0.0005141682645116929 -0.0019464941442228377 -0.0005141682645116929 0.008489285310134131 -0.00035165436662139 -0.0019464941442228377 -0.00035165436662139 0.005312459961544027" free_energy=-6857.077521088448 pbc="T T T"
Si       0.00747927      -0.00223486       0.00678722      -0.22752746      -0.44260178      -0.29402030
Si      -0.00156704       2.75590130       2.73229536      -0.03479680      -0.09383961       0.08113090
Si       2.74485927       0.00518050       2.73619534       0.10584280      -0.55101440       0.13132758
Si       2.74666654       2.74480306      -0.00202327       0.14642844      -0.04217123      -0.16670467
Si       1.38563931       1.37082181       1.36588596      -0.16940664       0.04016912       0.03306053
Si       5.49387087      -0.00819006       0.00092458       0.14710541      -0.37921612      -0.14317522
Si       5.49345321       2.74200839       2.74444161       0.15164701       0.07840605       0.00502162
Si       6.88358096       1.37272717       1.38047423      -0.17168747      -0.11050370      -0.11360702
Si       8.26073597       0.00814819       2.73916744       0.02966693      -0.52494213       0.07936558
Si       8.24981515       2.74319414       0.00962266       0.03207374      -0.01193378      -0.27315709
Si      -0.00699770       5.48895484      -0.00779885      -0.00835891       0.05186404      -0.09243810
Si       2.75348462       5.48879175       2.73369160      -0.00074613       0.10937576       0.09933843
Si       1.36997438       6.86937728       1.37258501       0.03014130      -0.04148295      -0.09401239
Si       4.12914421       4.11471573       1.36704306      -0.03335004       0.00339000      -0.04525527
Si       5.49685949       5.50066580      -0.00408622       0.06357438      -0.08303481      -0.10699929
Si       6.87369602       6.86387169       1.37679025       0.05221422       0.07313580      -0.13974820
Si       9.62382284       4.11700238       1.36980136       0.14764946       0.03317674      -0.08640398
Si       8.26254876       5.49883427       2.73343263      -0.08602603      -0.03708739       0.12569789
Si      -0.00200784       8.23731075       2.74753712      -0.12139926       0.09442633       0.02319598
Si       2.75862986       8.25096453       0.00586484      -0.18759154      -0.05949687      -0.28832968
Si       4.12095415       9.61452417       1.36885805       0.06837155       0.51966751       0.06928609
Si       5.50675545       8.24586117       2.73849301       0.00027151       0.14543702       0.03965104
Si       8.25189572       8.24496745      -0.00226461       0.00016661      -0.01970905      -0.11648974
Si       9.62591995       9.61110136       1.37228417       0.16994632       0.49798849       0.00326916
Si       0.00634091      -0.00809088       5.48508462      -0.11639384      -0.32391863       0.00091608
Si       2.74458707       2.74288007       5.47391034       0.06204535       0.12463191       0.09396765
Si       1.38319617       1.37623925       6.85149844      -0.06832115      -0.12893260       0.11518208
Si       4.12874088       1.37648389       4.11525130      -0.06828644      -0.14381388      -0.05182598
Si       5.51286824       0.00512099       5.47954487      -0.11944445      -0.50026314       0.03039481
Si       6.86945001       1.36455915       6.86321490       0.15713811       0.16017227      -0.16200470
Si       9.63313585       1.38067149       4.11643264       0.17063512      -0.11398626      -0.06298483
Si       8.25876449       2.75784082       5.47493189      -0.09417694      -0.18657364       0.17890507
Si       1.36792906       4.12722122       4.11689659       0.05548903      -0.05893406      -0.12598868
Si      -0.00137419       5.49383340       5.48818014      -0.12927070       0.08161556      -0.04990203
Si       1.36884703       6.87282434       6.84638075       0.01968102      -0.00422766       0.15631150
Si       6.88230484       4.12128034       4.11370740      -0.05374943       0.03250132      -0.12050221
Si       4.13495506       6.87858008       4.10675598      -0.06071557      -0.15465571       0.01821292
Si       4.11917111       4.12913980       6.85434380      -0.00097805      -0.09010097      -0.07343765
Si       5.50880737       5.49679117       5.48706161      -0.09006112       0.01916655      -0.06254028
Si       6.87200776       6.86529217       6.85836720       0.16048826       0.04278753       0.01202865
Si       9.62367407       6.86782346       4.12120541       0.15294104       0.00403869      -0.07697497
Si       9.63361522       4.12207048       6.84585840       0.09506114      -0.02648776       0.16434260
Si       1.37661172       9.61367232       4.11961412       0.00373761       0.46502926      -0.10871395
Si       2.75434969       8.24014620       5.48551330       0.03524211       0.09110987      -0.02736168
Si       6.88005125       9.62948272       4.11391678       0.02832482       0.40473689      -0.11815890
Si       4.13708743       9.61670282       6.84840402      -0.04419289       0.47129401       0.06604650
Si       8.24976225       8.24926966       5.47713038      -0.00744566       0.01008592       0.14351898
Si       9.63984152       9.61498040       6.85113147      -0.09546377       0.52414509       0.04335240
Si       0.00748809       2.75747276       8.23319038      -0.15403968      -0.11564488      -0.13023666
Si       2.75728652      -0.00454795       8.23445878      -0.02547218      -0.42717619      -0.18780520
Si       4.12468993       1.36676205       9.59575380       0.05598191       0.04343339       0.19342898
Si       5.49860616       2.74877687       8.21580743      -0.01573849       0.03246018       0.16754517
Si       8.24601545       0.00712333       8.23039901       0.15082374      -0.58432716      -0.08681381
Si       9.62521687       1.37485073       9.58852909       0.19200947      -0.02715959       0.34062206
Si       1.38534507       4.11313326       9.60168036      -0.09965159       0.11750379       0.15463874
Si       2.74678997       5.49899627       8.22934440      -0.03319988       0.02152888      -0.03570620
Si       6.88158965       4.12022793       9.60481886      -0.05730732      -0.04491409       0.09500663
Si       4.12369813       6.86299670       9.60037559       0.01376157       0.16067904       0.12843586
Si       8.26166055       5.49213411       8.23270440      -0.04551547       0.04204191      -0.06780153
Si       9.63244710       6.87267887       9.59755227       0.05567338      -0.02719276       0.18191660
Si      -0.00738560       8.24790869       8.22936644       0.00610328       0.00804267      -0.04458704
Si       1.37545683       9.62298202       9.58727391       0.03501123       0.37009924       0.31533012
Si       5.50845584       8.24442416       8.22747651      -0.06114572       0.01675742       0.03443478
Si       6.88859947       9.61732545       9.59280926      -0.11378726       0.46444510       0.22880504
64
Lattice="10.948846835895859 0.0 0.0 0.0 10.914971103785597 0.0 0.0 0.0 10.997733437018134" Properties=species:S:1:pos:R:3:forces:R:3 energy=-6857.055510888495 stress="-0.003988476680426418 -0.000524267998278887 -0.002583695529171257 -0.000524267998278887 -0.005171063688803312 -0.0017408268384181606 -0.002583695529171257 -0.0017408268384181606 -0.0018868138992348734" free_energy=-6857.055510888495 pbc="T T T"
Si       0.00544596       0.00705434       0.00387808      -0.38489851      -0.62638141      -0.14444252
Si      -0.00295509       2.70328452       2.74103614      -0.29402056       0.04603560       0.08624663
Si       2.72407200       0.00641493       2.74021826       0.05666171      -0.61320168       0.05191546
Si       2.72146836       2.71222754       0.00170693      -0.00947169      -0.07967283      -0.15585873
Si       1.35738110       1.34926143       1.36982337       0.04745099       0.06404412       0.03687296
Si       5.45648592      -0.00201349      -0.00769375      -0.04459244      -0.42034349      -0.07298591
Si       5.46412493       2.71115345       2.74560947      -0.14735661       0.00143185       0.01283649
Si       6.81513818       1.35685336       1.37373758       0.10779247      -0.06808590      -0.12351245
Si       8.18063347      -0.00733463       2.73749419      -0.06663374      -0.41320816       0.15010537
Si       8.19232574       2.71611985      -0.00602734      -0.13807904      -0.07190013      -0.04931890
Si       0.00748354       5.42443865       0.00541749      -0.28331397      -0.08989117      -0.15673496
Si       2.72056180       5.42154925       2.75540103       0.11721736       0.00900683      -0.06711942
Si       1.36600879       6.77091579       1.37248832      -0.03687939       0.07978622       0.06228369
Si       4.08533227       4.06175831       1.36507485       0.03203415       0.01899865       0.17702225
Si       5.46482456       5.41075587       0.00500581      -0.14143767       0.03610986      -0.17763752
Si       6.81669620       6.76582567       1.36449237       0.06576908       0.11080220       0.16523657
Si       9.54575868       4.06668857       1.36885001       0.35182101      -0.02914654       0.02342943
Si       8.19267172       5.41872225       2.74679633      -0.11482367       0.03047426      -0.00712761
Si       0.00064708       8.12964469       2.74423868      -0.33533099       0.00146836       0.01601849
Si       2.72220741       8.13390488       0.00478355       0.11476016      -0.03366757      -0.12440617
Si       4.09202092       9.48667871       1.36657594      -0.00951308       0.52490768       0.07255550
Si       5.45338521       8.13226475       2.75214484       0.00797376      -0.00030648      -0.15812722
Si       8.17514809       8.13193738      -0.00753062       0.10122305       0.08498036      -0.01401791
Si       9.53923536       9.49193525       1.37923281       0.33551354       0.37085618      -0.12247321
Si      -0.00581384      -0.00913024       5.49473572      -0.18395163      -0.44292086      -0.06730017
Si       2.72321799       2.71855816       5.49467112       0.07302550      -0.08425891       0.00869753
Si       1.36060444       1.34804064       6.86440909      -0.03779085       0.03399050      -0.04407051
Si       4.09161581       1.35176653       4.11953318      -0.01641829       0.04268777       0.01275293
Si       5.46047568       0.00854010       5.50306341      -0.08110159      -0.62499481      -0.12117841
Si       6.82224398       1.36203655       6.86009196       0.04290066      -0.06932800       0.08771524
Si       9.53803208       1.34987566       4.12430579       0.32705821      -0.08059431      -0.07911696
Si       8.19146188       2.71407132       5.49948642      -0.07603549      -0.00214533      -0.10002388
Si       1.35640555       4.06841302       4.12348243      -0.04007578      -0.12722513      -0.07936636
Si      -0.00897915       5.40884530       5.49271347      -0.23271338       0.14950605       0.06037156
Si       1.35570373       6.78072486       6.85971094      -0.02968210      -0.14889027       0.13937822
Si       6.81635679       4.06695463       4.12407586       0.11799512      -0.04549464      -0.06383201
Si       4.09196727       6.78272193       4.12417768      -0.07678702      -0.06659286      -0.00273257
Si       4.10039241       4.07147651       6.86788753      -0.09646728      -0.10655988      -0.06664042
Si       5.45423155       5.41802372       5.48868101       0.03489373       0.09826576       0.03187422
Si       6.82515637       6.76548844       6.86293318      -0.00008408       0.12835487       0.01285320
Si       9.54334556       6.76860230       4.12682621       0.36237257       0.07237861      -0.09901421
Si       9.54286928       4.06387472       6.86993278       0.31992802       0.01221608       0.05089267
Si       1.36475077       9.47888422       4.11597152      -0.04788757       0.59138972       0.00031985
Si       2.72040961       8.13047461       5.49956963       0.05371292       0.08284326      -0.09586795
Si       6.81074988       9.48047071       4.12084157       0.11026870       0.59739839       0.03450858
Si       4.08512424       9.48508674       6.86361858       0.05603874       0.55059223      -0.00159794
Si       8.19169290       8.13365853       5.48994998      -0.05649099       0.04806292       0.09430344
Si       9.55413017       9.48853125       6.87321415       0.10801847       0.48874331       0.04762506
Si       0.00435983       2.71876728       8.23584960      -0.37662830      -0.21233995       0.02149262
Si       2.73329859       0.00411567       8.23024379      -0.09446002      -0.58084691       0.09601708
Si       4.08302097       1.35824496       9.60428903       0.11143932      -0.03137697       0.14049947
Si       5.46228224       2.71307717       8.23134634      -0.11304395      -0.06882226       0.03970143
Si       8.17380029       0.00926272       8.24702508       0.12696365      -0.57563452      -0.12187183
Si       9.54369154       1.34883990       9.61565831       0.38696620       0.07537266       0.03323948
Si       1.36134458       4.05811015       9.60632880       0.00934159       0.11107911       0.16787658
Si       2.73240735       5.41310440       8.23690288      -0.06863277       0.17004556       0.02410872
Si       6.80962434       4.06018277       9.60560508       0.20057664       0.02669268       0.13760004
Si       4.09609061       6.77006944       9.61921121      -0.02967619       0.06403975       0.04363239
Si       8.19233450       5.42353756       8.24751997      -0.05549443      -0.00850367       0.00794265
Si       9.55654549       6.77597415       9.62138237       0.19477263       0.02257686       0.07848935
Si      -0.00157116       8.13365416       8.24931120      -0.17950799       0.07270951      -0.01658979
Si       1.36944892       9.48975971       9.62302360      -0.06045126       0.53562609      -0.04283458
Si       5.45434652       8.13669903       8.23117444       0.02730717      -0.07231819       0.05648765
Si       6.81865604       9.49155751       9.60500180      -0.04206402       0.44117739       0.09289653
64
Lattice="10.988241962348948 0.0 0.0 0.0 10.923015758060444 0.0 0.0 0.0 10.96294702935162" Properties=species:S:1:pos:R:3:forces:R:3 energy=-6857.114761772065 stress="-0.0017702078821045428 -0.0003764446222317752 0.0019988291282892062 -0.0003764446222317752 -0.004314422633822224 0.0010026281157978012 0.0019988291282892062 0.0010026281157978012 -0.0029463677871750405" free_energy=-6857.114761772065 pbc="T T T"
Si       0.00677865       0.00053183      -0.00267234       0.20830538       0.51014183      -0.15392295
Si       0.00635340       2.74122793       2.74319043       0.15504035       0.09460426       0.04330355
Si       2.75487203      -0.00231302       2.73619861      -0.05417880       0.54092257      -0.02416091
Si       2.74544852       2.74255092      -0.00196690       0.10477914       0.05029386      -0.08368889
Si       1.37219517       1.37940895       1.36692631       0.09105665      -0.04938549       0.03780164
Si       5.50385107       0.00435134      -0.00219325       0.09798680       0.42062116      -0.07697292
Si       5.50312475       2.74305967       2.73696779       0.04032287       0.06746420       0.03207297
Si       6.88697954       1.37687616       1.36557036      -0.02387141       0.05016762       0.01585316
Si       8.26077131       0.00887520       2.74623527       0.00505762       0.34839836      -0.16204249
Si       8.26320301       2.74768352      -0.00577102       0.04452277      -0.02858321      -0.03585686
Si      -0.00766979       5.49872396       0.00065820       0.33801753      -0.00137066      -0.07023405
Si       2.75938600       5.48522600       2.73361638      -0.00947606       0.17375798       0.01029547
Si       1.38216041       6.87781315       1.36338920      -0.00348642      -0.11451848       0.04899597
Si       4.12989997       4.11793268       1.36434957       0.05888135      -0.02344718      -0.04081241
Si       5.52023783       5.48782582      -0.00356019      -0.07083158      -0.04925180      -0.09154259
Si       6.88886952       6.86820613       1.36004767       0.00822650       0.00274748       0.05701781
Si       9.65012243       4.11827332       1.36791965      -0.29822843      -0.01099275       0.03042746
Si       8.27018713       5.50257973       2.73377680      -0.04945028      -0.11493782      -0.04219232
Si       0.00664129       8.25065553       2.73476355       0.17825021      -0.12956097      -0.05441303
Si       2.76106500       8.24119795      -0.00119882      -0.00159486      -0.00658434      -0.10321205
Si       4.13034500       9.62342649       1.36837896       0.05082634      -0.55276533      -0.02868451
Si       5.51051104       8.24224733       2.73178574      -0.03537144      -0.06389860       0.03242470
Si       8.27077501       8.23494784      -0.00331515      -0.03018552       0.03611423      -0.05919631
Si       9.64980157       9.62461872       1.36588463      -0.36448138      -0.50820939       0.06232431
Si      -0.00041645      -0.00199327       5.47085008       0.32733229       0.50482634      -0.03864368
Si       2.75038773       2.75661806       5.47988352       0.06876981      -0.11347821      -0.04462792
Si       1.36863498       1.38213953       6.84557145       0.06724926      -0.01074541      -0.00376615
Si       4.12866709       1.36606044       4.10822127      -0.04419058       0.18776149      -0.01068628
Si       5.50922212       0.00789176       5.46938315       0.01177205       0.30503414       0.06061684
Si       6.88938267       1.37583448       6.83530844      -0.05784185       0.02768358       0.12953423
Si       9.63900013       1.36670435       4.10954206      -0.15735563       0.14393293      -0.02821117
Si       8.26388318       2.74017746       5.47331694      -0.01960620       0.12021758      -0.02779414
Si       1.38553050       4.13017908       4.11023432      -0.07376341      -0.04987632      -0.03885991
Si       0.00382501       5.50318848       5.47643431       0.13148982      -0.18950393       0.03543726
Si       1.37465105       6.86066270       6.84935580       0.14630760       0.10282793      -0.07178160
Si       6.88900248       4.13042192       4.10571925       0.00496969      -0.08299110      -0.04488349
Si       4.12790011       6.87512873       4.11514386       0.06011239      -0.07664407      -0.12501655
Si       4.13890704       4.12351581       6.83556336      -0.08413549       0.05954366       0.09010920
Si       5.51564035       5.49820751       5.47939674      -0.09498735      -0.00740503      -0.10109398
Si       6.87887681       6.86927968       6.83846206       0.12701790       0.07433779       0.07164662
Si       9.65260137       6.86478000       4.09568808      -0.24049868       0.08215857       0.04344059
Si       9.63725629       4.11247922       6.85008982      -0.17042763       0.14495905      -0.12449127
Si       1.38216810       9.60868467       4.09934827      -0.04551007      -0.32474550       0.05595312
Si       2.74905266       8.25179721       5.47075448      -0.00139148      -0.21599838       0.11968151
Si       6.89179130       9.60853523       4.10623680      -0.08103603      -0.40159500      -0.01872997
Si       4.12531348       9.61626106       6.84091793       0.10652389      -0.41605643      -0.03303970
Si       8.26818837       8.23503685       5.46481534       0.00012393      -0.05006324       0.07483736
Si       9.64310643       9.62231998       6.83564248      -0.21227311      -0.66670608       0.03199866
Si      -0.00449419       2.74962405       8.21873139       0.28246628       0.04059798       0.05090141
Si       2.74609023      -0.00914002       8.20893757       0.05640923       0.62998584      -0.00075745
Si       4.13012084       1.36826688       9.58269198      -0.05645628       0.11096804      -0.02278717
Si       5.50334341       2.75494455       8.20806181       0.04630762      -0.15565664       0.01583594
Si       8.27022230      -0.00638087       8.20612568      -0.17388962       0.50748434       0.08536782
Si       9.64157577       1.37064693       9.57859117      -0.22292981       0.02609104       0.11980749
Si       1.38194284       4.13033071       9.58848278      -0.10215584      -0.08602500       0.05262971
Si       2.75278866       5.48918946       8.21760620       0.09686734       0.01703253      -0.05983626
Si       6.89277035       4.11201991       9.57289706      -0.03287310       0.12110667       0.09804748
Si       4.13277230       6.86172197       9.58682026       0.07554287       0.03829530       0.01106011
Si       8.26394471       5.50018319       8.20957379      -0.09934126      -0.10695018      -0.03973229
Si       9.63744419       6.85883866       9.57709787      -0.13254782       0.12926710       0.05050392
Si       0.00550950       8.23817289       8.20441701       0.08987728      -0.01672683       0.10094897
Si       1.38085721       9.61360740       9.57864721      -0.02487799      -0.54464038       0.12475378
Si       5.50921663       8.24812824       8.21197363      -0.10529259      -0.16049134       0.00209545
Si       6.88228207       9.60657383       9.58416990       0.09412500      -0.33954117       0.06594700
64
Lattice="11.034396798461543 0.0 0.0 0.0 11.043787070137034 0.0 0.0 0.0 10.9830647845551" Properties=species:S:1:pos:R:3:forces:R:3 energy=-6857.13963597017 stress="0.006729177161796781 0.0007721705543827389 0.0014727248147799205 0.0007721705543827389 0.007344342763980414 0.0005628306181172639 0.0014727248147799205 0.0005628306181172639 0.004509072048244508" free_energy=-6857.13963597017 pbc="T T T"
Si      -0.00832435       0.00012027      -0.00452521       0.10364143       0.43019647       0.19260597
Si      -0.00251695       2.77875794       2.75235704      -0.03337729      -0.06657306      -0.01659801
Si       2.76027643      -0.00524134       2.74323049       0.03379432       0.43486199       0.08600751
Si       2.75681935       2.77864870       0.00887938       0.03360895      -0.05607087       0.08528529
Si       1.38490507       1.38943580       1.38090841      -0.13668036      -0.00043786      -0.03367785
Si       5.50564428       0.00976434      -0.00157130       0.14474437       0.43167254       0.10398878
Si       5.51023901       2.77781008       2.75865768       0.11921460       0.06870759      -0.13880358
Si       6.90185299       1.39802387       1.37564170      -0.17908248      -0.02932677       0.03538326
Si       8.27064123       0.00365459       2.74961610       0.06202349       0.39683589      -0.08226964
Si       8.26209840       2.77685892      -0.00470396       0.13703851      -0.01376363       0.05737185