ITEM: TIMESTEP
0
ITEM: NUMBER OF ATOMS
64
ITEM: BOX BOUNDS pp pp pp
7.5054178060526944e-02 1.0786345821939666e+01
7.5054178060526944e-02 1.0786345821939666e+01
7.5054178060526944e-02 1.0786345821939666e+01
ITEM: ATOMS id type xs ys zs
5 1 0.184081 0.107019 0.118221
8 1 0.478933 0.323736 0.122679
17 1 0.365136 0.0720181 0.254295
29 1 0.493507 0.0526227 0.0702075
44 1 0.0762242 0.38552 0.0644551
52 1 0.0643079 0.369235 0.315138
25 1 0.393028 0.482341 0.285468
53 1 0.467512 0.218162 0.396653
32 1 0.294297 0.350205 0.445816
26 1 0.0630178 0.481616 0.49661
49 1 0.762871 0.0739891 0.267281
42 1 0.876281 0.210568 0.062443
40 1 0.985852 0.172016 0.316991
18 1 0.860951 0.47326 0.248274
20 1 0.688408 0.356315 0.0701533
55 1 0.678395 0.29109 0.336678
45 1 0.222383 0.538308 0.15363
23 1 0.195496 0.775667 0.179544
41 1 0.0810387 0.960678 0.316201
7 1 0.379901 0.838753 0.300754
46 1 0.369455 0.64968 0.455849
16 1 0.250333 0.953881 0.496708
64 1 0.612313 0.57872 0.267577
47 1 0.77378 0.576763 0.0471629
57 1 0.567449 0.790121 0.180459
27 1 0.988399 0.978387 0.0585935
12 1 0.933664 0.722909 0.2058
63 1 0.803003 0.878095 0.168113
4 1 0.847445 0.562203 0.447138
50 1 0.621197 0.689652 0.460986
28 1 0.635556 0.936343 0.410796
3 1 0.984362 0.76989 0.421574
24 1 0.209989 0.162216 0.571916
21 1 0.483232 0.0106735 0.548839
37 1 0.447972 0.211739 0.651266
59 1 0.389019 0.468948 0.662373
56 1 0.138612 0.173856 0.800707
43 1 0.2587 0.263628 0.995783
9 1 0.367613 0.104537 0.861605
48 1 0.0438777 0.362708 0.690263
31 1 0.46425 0.408454 0.887147
14 1 0.964228 0.175621 0.526822
30 1 0.842892 0.0295241 0.640575
39 1 0.792643 0.342463 0.52875
34 1 0.649501 0.29512 0.838813
1 1 0.637923 0.0344051 0.775393
13 1 0.690925 0.0642206 0.973545
22 1 0.897579 0.180886 0.827263
15 1 0.814752 0.431784 0.74216
62 1 0.150216 0.677193 0.577441
61 1 0.302475 0.626319 0.956444
51 1 0.191253 0.534687 0.770638
33 1 0.246247 0.854797 0.72795
54 1 0.207552 0.905813 0.956968
6 1 0.489611 0.814943 0.957275
19 1 0.453241 0.901483 0.742284
2 1 0.799557 0.833597 0.547463
36 1 0.58684 0.619357 0.927112
35 1 0.942233 0.530748 0.920968
58 1 0.516127 0.680518 0.69857
11 1 0.996206 0.714436 0.779129
60 1 0.763325 0.668824 0.720191
38 1 0.751417 0.828119 0.940228
10 1 0.943644 0.927537 0.829762
ITEM: TIMESTEP
10
ITEM: NUMBER OF ATOMS
64
ITEM: BOX BOUNDS pp pp pp
7.5530432995332575e-02 1.0785869567004859e+01
7.5530432995332575e-02 1.0785869567004859e+01
7.5530432995332575e-02 1.0785869567004859e+01
ITEM: ATOMS id type xs ys zs
5 1 0.181703 0.0953479 0.123256
8 1 0.477524 0.327274 0.118122
17 1 0.35768 0.0660895 0.247134
29 1 0.492242 0.0364934 0.0677114
44 1 0.0887433 0.392114 0.0623232
52 1 0.0641261 0.368497 0.313908
25 1 0.387881 0.474886 0.284331
53 1 0.459483 0.223175 0.396979
32 1 0.283896 0.342528 0.438679
26 1 0.0562529 0.484967 0.509291
49 1 0.769196 0.0770658 0.262327
42 1 0.877029 0.219988 0.0593709
40 1 0.986564 0.170651 0.326207
18 1 0.858488 0.466271 0.243763
20 1 0.684982 0.353186 0.0766679
55 1 0.69076 0.290547 0.325755
45 1 0.22661 0.539144 0.149056
23 1 0.203573 0.775346 0.17878
41 1 0.0774458 0.969626 0.314464
7 1 0.382924 0.848725 0.309188
46 1 0.36007 0.646893 0.458881
16 1 0.252401 0.956794 0.500488
64 1 0.609224 0.566025 0.263981
47 1 0.780409 0.585572 0.0383201
57 1 0.573876 0.790956 0.179932
27 1 0.993935 0.980305 0.0547748
12 1 0.924639 0.717047 0.207052
63 1 0.797109 0.871485 0.167511
4 1 0.851383 0.560599 0.460835
50 1 0.619851 0.691875 0.448794
28 1 0.640772 0.927082 0.413774
3 1 0.984791 0.767455 0.421602
24 1 0.209379 0.168787 0.582039
21 1 0.491235 0.0116024 0.544632
37 1 0.454531 0.214125 0.664074
59 1 0.380892 0.480286 0.663104
56 1 0.137566 0.177393 0.798514
43 1 0.259796 0.265411 0.00215363
9 1 0.359893 0.104074 0.864111
48 1 0.0423388 0.354578 0.692261
31 1 0.457404 0.412423 0.885178
14 1 0.964484 0.186158 0.521318
30 1 0.845391 0.0326376 0.635462
39 1 0.785298 0.352899 0.533208
34 1 0.641851 0.278021 0.824501
1 1 0.640011 0.0378489 0.771045
13 1 0.70038 0.0659569 0.976795
22 1 0.901864 0.177718 0.818508
15 1 0.802066 0.426893 0.747676
62 1 0.148571 0.692154 0.578331
61 1 0.300133 0.627995 0.959757
51 1 0.182699 0.5342 0.774083
33 1 0.243162 0.852274 0.734558
54 1 0.208091 0.908026 0.964396
6 1 0.490284 0.818883 0.956106
19 1 0.460721 0.90862 0.749952
2 1 0.804966 0.840532 0.552758
36 1 0.580885 0.624953 0.926434
35 1 0.943985 0.515724 0.924523
58 1 0.51944 0.680046 0.703418
11 1 0.997994 0.712929 0.782525
60 1 0.772467 0.679197 0.712509
38 1 0.75867 0.814793 0.928444
10 1 0.95022 0.917772 0.82226
ITEM: TIMESTEP
20
ITEM: NUMBER OF ATOMS
64
ITEM: BOX BOUNDS pp pp pp
7.6832802252929433e-02 1.0784567197747268e+01
7.6832802252929433e-02 1.0784567197747268e+01
7.6832802252929433e-02 1.0784567197747268e+01
ITEM: ATOMS id type xs ys zs
5 1 0.177528 0.0815583 0.128365
8 1 0.471925 0.331042 0.113264
17 1 0.353316 0.0609555 0.241177
29 1 0.490625 0.0196248 0.0626122
44 1 0.0986014 0.399215 0.060645
52 1 0.0650767 0.370678 0.311976
25 1 0.384429 0.467789 0.283654
53 1 0.454474 0.22549 0.396192
32 1 0.269904 0.33536 0.432539
26 1 0.0510371 0.488585 0.521928
49 1 0.776021 0.080538 0.258839
42 1 0.877539 0.227954 0.0551364
40 1 0.985407 0.165376 0.326924
18 1 0.854712 0.460493 0.239385
20 1 0.685184 0.350851 0.0828891
55 1 0.702007 0.289864 0.315076
45 1 0.230862 0.543665 0.144669
23 1 0.210962 0.774445 0.17667
41 1 0.0755076 0.975497 0.313329
7 1 0.384663 0.857366 0.318438
46 1 0.351635 0.644443 0.462035
16 1 0.254646 0.959738 0.50437
64 1 0.605345 0.55326 0.258988
47 1 0.783864 0.594982 0.0322846
57 1 0.57973 0.791676 0.179717
27 1 0.999926 0.982794 0.0498433
12 1 0.918625 0.705499 0.209467
63 1 0.787522 0.86923 0.164521
4 1 0.85367 0.559367 0.474618
50 1 0.618591 0.694671 0.438171
28 1 0.649195 0.916255 0.415031
3 1 0.984949 0.766541 0.421681
24 1 0.208576 0.175695 0.591639
21 1 0.496637 0.0152268 0.541192
37 1 0.460556 0.217284 0.677349
59 1 0.373645 0.491912 0.663918
56 1 0.137724 0.181493 0.797065
43 1 0.262673 0.266611 0.00630055
9 1 0.351883 0.103199 0.867151
48 1 0.0400433 0.346611 0.694624
31 1 0.450588 0.417319 0.884595
14 1 0.962935 0.199091 0.526325
30 1 0.848765 0.0382818 0.634576
39 1 0.777775 0.362475 0.536345
34 1 0.634003 0.260946 0.810765
1 1 0.643741 0.0429614 0.763737
13 1 0.710843 0.0686025 0.981966
22 1 0.907112 0.173945 0.810409
15 1 0.790585 0.422187 0.754046
62 1 0.147107 0.707361 0.579048
61 1 0.299306 0.63049 0.961466
51 1 0.173948 0.534543 0.777807
33 1 0.238499 0.849962 0.740376
54 1 0.208147 0.909772 0.972672
6 1 0.48959 0.824751 0.958346
19 1 0.468178 0.913974 0.756512
2 1 0.8098 0.844609 0.555136
36 1 0.574481 0.627604 0.925011
35 1 0.949167 0.499436 0.924646
58 1 0.523892 0.678349 0.70711
11 1 0.000712076 0.706877 0.78541
60 1 0.781485 0.689261 0.705176
38 1 0.766699 0.802009 0.916075
10 1 0.955654 0.911275 0.816665
ITEM: TIMESTEP
30
ITEM: NUMBER OF ATOMS
64
ITEM: BOX BOUNDS pp pp pp
7.8518020250775145e-02 1.0782881979749423e+01
7.8518020250775145e-02 1.0782881979749423e+01
7.8518020250775145e-02 1.0782881979749423e+01
ITEM: ATOMS id type xs ys zs
5 1 0.172315 0.0689522 0.132603
8 1 0.462698 0.335726 0.107416
17 1 0.354319 0.0577337 0.236764
29 1 0.4897 0.00404265 0.0567766
44 1 0.105611 0.405457 0.0599816
52 1 0.0660889 0.374328 0.310387
25 1 0.382654 0.460815 0.283833
53 1 0.451905 0.225233 0.394179
32 1 0.252531 0.328179 0.426462
26 1 0.0489947 0.492164 0.53415
49 1 0.783458 0.0831409 0.256213
42 1 0.878383 0.234627 0.0492347
40 1 0.981868 0.16017 0.322151
18 1 0.850164 0.456277 0.235638
20 1 0.687808 0.349668 0.089807
55 1 0.711993 0.289988 0.305676
45 1 0.235242 0.55176 0.142814
23 1 0.218878 0.773424 0.173597
41 1 0.0759135 0.97592 0.313379
7 1 0.384948 0.863046 0.328606
46 1 0.344336 0.642086 0.465444
16 1 0.256997 0.963082 0.508569
64 1 0.60055 0.540643 0.253018
47 1 0.785553 0.604845 0.0274483
57 1 0.582866 0.791629 0.180206
27 1 0.00372975 0.984811 0.042846
12 1 0.913064 0.690336 0.212458
63 1 0.778025 0.870162 0.159819
4 1 0.853489 0.56062 0.487993
50 1 0.616621 0.695866 0.428067
28 1 0.659239 0.905878 0.414648
3 1 0.98483 0.767254 0.42108
24 1 0.208802 0.182241 0.598555
21 1 0.500089 0.021399 0.538284
37 1 0.463718 0.220542 0.689695
59 1 0.367259 0.504719 0.66501
56 1 0.13993 0.184968 0.799135
43 1 0.26726 0.26577 0.00924713
9 1 0.343247 0.101573 0.870466
48 1 0.0363333 0.340674 0.697295
31 1 0.443883 0.422708 0.885075
14 1 0.958935 0.214394 0.538475
30 1 0.852984 0.0458672 0.637185
39 1 0.769235 0.369697 0.537951
34 1 0.627 0.246039 0.798719
1 1 0.650768 0.0485754 0.754974
13 1 0.721001 0.072052 0.987421
22 1 0.91307 0.17005 0.804281
15 1 0.780127 0.417036 0.761634
62 1 0.145666 0.722309 0.578831
61 1 0.300513 0.634468 0.959956
51 1 0.164685 0.535472 0.782204
33 1 0.233838 0.848769 0.746443
54 1 0.208304 0.910151 0.980853
6 1 0.487784 0.829718 0.963471
19 1 0.473836 0.917152 0.76067
2 1 0.81552 0.847427 0.553874
36 1 0.567977 0.627331 0.923961
35 1 0.955598 0.482257 0.921575
58 1 0.529575 0.676047 0.708871
11 1 0.00503912 0.695697 0.787605
60 1 0.789714 0.697757 0.698634
38 1 0.775659 0.78939 0.902987
10 1 0.960106 0.908805 0.813295
ITEM: TIMESTEP
40
ITEM: NUMBER OF ATOMS
64
ITEM: BOX BOUNDS pp pp pp
7.9898114177381352e-02 1.0781501885822816e+01
7.9898114177381352e-02 1.0781501885822816e+01
7.9898114177381352e-02 1.0781501885822816e+01
ITEM: ATOMS id type xs ys zs
5 1 0.16843 0.0610493 0.137237
8 1 0.453278 0.34124 0.100543
17 1 0.361086 0.0571995 0.233527
29 1 0.489999 0.997566 0.0551736
44 1 0.110526 0.40924 0.0614823
52 1 0.0650195 0.377997 0.308537
25 1 0.381858 0.454103 0.28535
53 1 0.449904 0.22338 0.391268
32 1 0.235721 0.3207 0.420444
26 1 0.0510159 0.495786 0.545238
49 1 0.789719 0.0832866 0.253857
42 1 0.880608 0.24011 0.0415432
40 1 0.976771 0.159194 0.318185
18 1 0.846919 0.454364 0.23276
20 1 0.689948 0.349945 0.09607
55 1 0.719847 0.290456 0.300608
45 1 0.239579 0.561582 0.144648
23 1 0.227633 0.773476 0.170734
41 1 0.0787874 0.969632 0.315882
7 1 0.383475 0.864557 0.339038
46 1 0.338608 0.640105 0.468802
16 1 0.259074 0.966687 0.51305
64 1 0.595219 0.529571 0.247155
47 1 0.786899 0.612834 0.0235618
57 1 0.58057 0.790112 0.181708
27 1 0.00211574 0.985582 0.0329031
12 1 0.906446 0.674968 0.215154
63 1 0.773398 0.873451 0.154115
4 1 0.850748 0.565913 0.500653
50 1 0.613153 0.692857 0.418159
28 1 0.668331 0.899477 0.412698
3 1 0.984614 0.76933 0.418997
24 1 0.211279 0.187445 0.600828
21 1 0.502443 0.0289482 0.53555
37 1 0.457007 0.222825 0.696582
59 1 0.362044 0.518301 0.666849
56 1 0.144446 0.186995 0.806196
43 1 0.271747 0.263025 0.0110727
9 1 0.335029 0.0985869 0.873559
48 1 0.0320028 0.340151 0.701845
31 1 0.437215 0.428388 0.88613
14 1 0.951789 0.228967 0.547986
30 1 0.856977 0.0513001 0.640574
39 1 0.759866 0.373261 0.538361
34 1 0.62691 0.239942 0.793655
1 1 0.660774 0.0489473 0.745085
13 1 0.729566 0.0753865 0.992223
22 1 0.919293 0.167231 0.80346
15 1 0.771 0.411056 0.769573
62 1 0.144455 0.735753 0.577014
61 1 0.303903 0.63972 0.954754
51 1 0.156618 0.535856 0.786627
33 1 0.230156 0.849303 0.753305
54 1 0.209486 0.9078 0.986816
6 1 0.485438 0.825864 0.967165
19 1 0.477304 0.917936 0.761884
2 1 0.823389 0.851972 0.549275
36 1 0.562097 0.624971 0.924321
35 1 0.96015 0.466264 0.915923
58 1 0.536255 0.673934 0.707757
11 1 0.00981445 0.683003 0.789149
60 1 0.795993 0.702053 0.692682
38 1 0.784272 0.779015 0.890378
10 1 0.964214 0.908966 0.812237
ITEM: TIMESTEP
50
ITEM: NUMBER OF ATOMS
64
ITEM: BOX BOUNDS pp pp pp
8.0503212868777041e-02 1.0780896787131418e+01
8.0503212868777041e-02 1.0780896787131418e+01
8.0503212868777041e-02 1.0780896787131418e+01
ITEM: ATOMS id type xs ys zs
5 1 0.166372 0.0579297 0.143619
8 1 0.446815 0.347861 0.0932161
17 1 0.372306 0.058956 0.231168
29 1 0.491891 0.00201986 0.0587778
44 1 0.114727 0.410856 0.0659479
52 1 0.059494 0.381623 0.304552
25 1 0.380765 0.447299 0.288435
53 1 0.446845 0.220735 0.387508
32 1 0.222964 0.31248 0.415148
26 1 0.0559972 0.500223 0.555044
49 1 0.792356 0.0798158 0.251174
42 1 0.884607 0.245305 0.0315797
40 1 0.973345 0.162106 0.317202
18 1 0.846876 0.454916 0.230794
20 1 0.689716 0.351473 0.0994718
55 1 0.725403 0.289613 0.302441
45 1 0.244116 0.570836 0.148827
23 1 0.237585 0.776435 0.169571
41 1 0.0829713 0.958983 0.321813
7 1 0.380147 0.862522 0.34938
46 1 0.334003 0.638853 0.471752
16 1 0.260555 0.970373 0.517937
64 1 0.58943 0.520623 0.241837
47 1 0.788005 0.617473 0.0215429
57 1 0.573229 0.787278 0.18435
27 1 0.995434 0.985282 0.0201026
12 1 0.898347 0.661282 0.217354
63 1 0.774145 0.878362 0.147424
4 1 0.846199 0.574482 0.513485
50 1 0.608021 0.685516 0.408156
28 1 0.67507 0.897763 0.408726
3 1 0.984745 0.772199 0.414472
24 1 0.216026 0.191144 0.599661
21 1 0.504585 0.0371283 0.532928
37 1 0.439484 0.224139 0.698452
59 1 0.3578 0.532618 0.670069
56 1 0.150301 0.188638 0.816465
43 1 0.27328 0.258815 0.0114049
9 1 0.328847 0.0930197 0.876301
48 1 0.0290966 0.345694 0.710665
31 1 0.430242 0.434366 0.886852
14 1 0.940276 0.241008 0.549997
30 1 0.861405 0.0523497 0.642022
39 1 0.750042 0.373871 0.53812
34 1 0.633425 0.242453 0.795886
1 1 0.671596 0.0422993 0.734169
13 1 0.736514 0.0778862 0.996515
22 1 0.926298 0.165952 0.809968
15 1 0.763314 0.40478 0.777053
62 1 0.14405 0.74801 0.57362
61 1 0.308845 0.645613 0.947104
51 1 0.153354 0.533026 0.790348
33 1 0.227585 0.851615 0.761314
54 1 0.211614 0.902714 0.98978
6 1 0.482318 0.811729 0.967574
19 1 0.479099 0.916646 0.760709
2 1 0.833935 0.859373 0.542883
36 1 0.557762 0.620556 0.926046
35 1 0.961311 0.451269 0.908696
58 1 0.544286 0.672544 0.703729
11 1 0.0116843 0.673836 0.790119
60 1 0.800218 0.701498 0.684976
38 1 0.792368 0.772691 0.878902
10 1 0.968787 0.910161 0.812759
ITEM: TIMESTEP
60
ITEM: NUMBER OF ATOMS
64
ITEM: BOX BOUNDS pp pp pp
8.0296005940496684e-02 1.0781103994059697e+01
8.0296005940496684e-02 1.0781103994059697e+01
8.0296005940496684e-02 1.0781103994059697e+01
ITEM: ATOMS id type xs ys zs
5 1 0.165071 0.0578476 0.150762
8 1 0.445041 0.355261 0.0870486
17 1 0.384907 0.0619848 0.231141
29 1 0.496076 0.00981267 0.0621242
44 1 0.118197 0.41142 0.0728852
52 1 0.0496815 0.385022 0.297703
25 1 0.378396 0.440368 0.29283
53 1 0.442326 0.217973 0.383187
32 1 0.216031 0.304326 0.410831
26 1 0.0619408 0.505884 0.56265
49 1 0.790287 0.0733289 0.248654
42 1 0.889348 0.250999 0.0204521
40 1 0.973643 0.166425 0.319297
18 1 0.849843 0.455135 0.22988
20 1 0.687078 0.353624 0.0995513
55 1 0.728807 0.286737 0.31089
45 1 0.248599 0.576751 0.153106
23 1 0.248138 0.78365 0.172005
41 1 0.0879385 0.948349 0.330158
7 1 0.375484 0.858523 0.358404
46 1 0.330279 0.638763 0.473472
16 1 0.260928 0.973808 0.522955
64 1 0.583399 0.514158 0.237064
47 1 0.788108 0.618459 0.0219697
57 1 0.563939 0.784229 0.18793
27 1 0.987023 0.98486 0.00783239
12 1 0.890141 0.65302 0.218977
63 1 0.777974 0.882835 0.140045
4 1 0.841364 0.581863 0.524378
50 1 0.602122 0.676336 0.398859
28 1 0.678292 0.899521 0.402662
3 1 0.985618 0.774208 0.40709
24 1 0.222199 0.193029 0.597782
21 1 0.507129 0.0449124 0.530873
37 1 0.418852 0.224768 0.699203
59 1 0.354682 0.546655 0.674931
56 1 0.155055 0.191523 0.826263
43 1 0.269867 0.253705 0.0103858
9 1 0.327319 0.0833799 0.878806
48 1 0.0281789 0.353354 0.721488
31 1 0.42313 0.440009 0.88567
14 1 0.925814 0.250296 0.545955
30 1 0.869432 0.0510773 0.641367
39 1 0.740805 0.373209 0.537652
34 1 0.638324 0.244627 0.800844
1 1 0.678145 0.0331716 0.724483
13 1 0.74164 0.0793467 0.000481303
22 1 0.933918 0.165225 0.821639
15 1 0.75914 0.401575 0.782684
62 1 0.144931 0.758938 0.569552
61 1 0.313654 0.651185 0.939232
51 1 0.158122 0.525637 0.792994
33 1 0.226027 0.85519 0.769483
54 1 0.213255 0.896816 0.990115
6 1 0.478006 0.797807 0.967679
19 1 0.479663 0.91358 0.757981
2 1 0.845468 0.86806 0.536682
36 1 0.557313 0.612848 0.927824
35 1 0.959026 0.438193 0.902654
58 1 0.553658 0.672287 0.697759
11 1 0.00787035 0.67183 0.790322
60 1 0.801691 0.698726 0.675673
38 1 0.799938 0.770969 0.869847
10 1 0.973956 0.911508 0.812798
ITEM: TIMESTEP
70
ITEM: NUMBER OF ATOMS
64
ITEM: BOX BOUNDS pp pp pp
7.9164820738766295e-02 1.0782235179261436e+01
7.9164820738766295e-02 1.0782235179261436e+01
7.9164820738766295e-02 1.0782235179261436e+01
ITEM: ATOMS id type xs ys zs
5 1 0.163897 0.0589506 0.157807
8 1 0.446614 0.36282 0.0825818
17 1 0.396033 0.0648611 0.234733
29 1 0.503414 0.0159622 0.0611261
44 1 0.120641 0.411893 0.0810285
52 1 0.0393436 0.386937 0.289344
25 1 0.374411 0.43313 0.298323
53 1 0.436695 0.215836 0.378912
32 1 0.212846 0.297416 0.406034
26 1 0.0676167 0.513225 0.568112
49 1 0.785251 0.0664139 0.248007
42 1 0.893209 0.257737 0.0110403
40 1 0.976205 0.169901 0.323617
18 1 0.852627 0.451027 0.229412
20 1 0.683344 0.3556 0.098266
55 1 0.73076 0.282382 0.322863
45 1 0.252803 0.579399 0.15664
23 1 0.259077 0.794283 0.178892
41 1 0.0951904 0.941136 0.339097
7 1 0.370248 0.85394 0.36584
46 1 0.327039 0.63988 0.473675
16 1 0.260076 0.976863 0.527682
64 1 0.576894 0.509557 0.232304
47 1 0.786528 0.616913 0.0237276
57 1 0.554564 0.781697 0.192267
27 1 0.978967 0.985414 0.000376166
12 1 0.883289 0.653718 0.220097
63 1 0.783162 0.884826 0.131622
4 1 0.838292 0.581142 0.527022
50 1 0.595959 0.667427 0.390602
28 1 0.678698 0.903392 0.394963
3 1 0.986634 0.772882 0.397307
24 1 0.227758 0.192863 0.596295
21 1 0.510556 0.0517914 0.529623
37 1 0.400833 0.225167 0.701506
59 1 0.353192 0.560276 0.68105
56 1 0.157828 0.196058 0.833246
43 1 0.262768 0.248662 0.0100302
9 1 0.330888 0.0692545 0.881392
48 1 0.0287523 0.358303 0.727947
31 1 0.415473 0.444521 0.881344
14 1 0.911091 0.257155 0.539728
30 1 0.882615 0.051177 0.640926
39 1 0.731896 0.373458 0.537324
34 1 0.636916 0.239576 0.806405
1 1 0.678629 0.0247612 0.716645
13 1 0.744855 0.0803447 0.0045285
22 1 0.941738 0.1628 0.833757
15 1 0.759589 0.404407 0.785721
62 1 0.147082 0.768929 0.565403
61 1 0.315922 0.655278 0.932034
51 1 0.169052 0.517477 0.795155
33 1 0.225296 0.85938 0.776247
54 1 0.213403 0.891918 0.989616
6 1 0.4735 0.791099 0.969124
19 1 0.479503 0.908699 0.754366
2 1 0.85585 0.875673 0.530698
36 1 0.562721 0.601407 0.928576
35 1 0.953195 0.429404 0.901987
58 1 0.564197 0.673215 0.690866
11 1 0.00065011 0.674321 0.789681
60 1 0.798938 0.700464 0.670735
38 1 0.807194 0.772464 0.863759
10 1 0.98002 0.912048 0.808857
ITEM: TIMESTEP
80
ITEM: NUMBER OF ATOMS
64
ITEM: BOX BOUNDS pp pp pp
7.6896200520286229e-02 1.0784503799479920e+01
7.6896200520286229e-02 1.0784503799479920e+01
7.6896200520286229e-02 1.0784503799479920e+01
ITEM: ATOMS id type xs ys zs
5 1 0.162955 0.0606335 0.164242
8 1 0.449415 0.369779 0.0795065
17 1 0.404425 0.064699 0.239979
29 1 0.51306 0.0195297 0.0553874
44 1 0.122173 0.41283 0.088405
52 1 0.0341568 0.385284 0.282434
25 1 0.369059 0.426114 0.304536
53 1 0.430934 0.215851 0.376347
32 1 0.211225 0.292574 0.39991
26 1 0.0722557 0.522668 0.572229
49 1 0.779246 0.0615355 0.250823
42 1 0.89379 0.264066 0.00899277
40 1 0.979256 0.171221 0.329076
18 1 0.85045 0.444137 0.227899
20 1 0.679931 0.356819 0.0973811
55 1 0.731463 0.276983 0.335178
45 1 0.256684 0.580506 0.159573
23 1 0.269597 0.805908 0.188711
41 1 0.105894 0.939309 0.347333
7 1 0.365796 0.849932 0.372545
46 1 0.324257 0.641678 0.472717
16 1 0.258161 0.979324 0.531545
64 1 0.569711 0.506123 0.227218
47 1 0.783224 0.613928 0.0251009
57 1 0.545336 0.780127 0.19703
27 1 0.972268 0.986872 0.999859
12 1 0.878063 0.662333 0.220721
63 1 0.789678 0.882771 0.121901
4 1 0.837868 0.57049 0.519568
50 1 0.589844 0.659854 0.384016
28 1 0.677587 0.908653 0.38662
3 1 0.986662 0.766853 0.386349
24 1 0.228432 0.190491 0.593408
21 1 0.515096 0.0573322 0.529276
37 1 0.390808 0.22616 0.70813
59 1 0.354692 0.573866 0.686496
56 1 0.159879 0.200863 0.835304
43 1 0.255051 0.244586 0.0137835
9 1 0.337889 0.0526717 0.884266
48 1 0.030989 0.359069 0.725923
31 1 0.406933 0.446995 0.873748
14 1 0.898772 0.260457 0.533379
30 1 0.898318 0.0543093 0.643042
39 1 0.722236 0.376434 0.537732
34 1 0.630873 0.22833 0.812092
1 1 0.675122 0.0184851 0.70937
13 1 0.745541 0.0820927 0.00856672
22 1 0.949482 0.15582 0.841898
15 1 0.761322 0.411068 0.786071
62 1 0.150009 0.777858 0.561417
61 1 0.313516 0.65694 0.925793
51 1 0.182128 0.511496 0.797673
33 1 0.225258 0.8637 0.779483
54 1 0.211304 0.888717 0.990984
6 1 0.471687 0.791629 0.971942
19 1 0.479131 0.902013 0.750212
2 1 0.863385 0.880325 0.524058
36 1 0.573571 0.589122 0.928
35 1 0.944918 0.429461 0.908118
58 1 0.574686 0.675129 0.68406
11 1 0.993921 0.67747 0.787909
60 1 0.791766 0.709194 0.670637
38 1 0.81346 0.77618 0.862713
10 1 0.987627 0.911271 0.799276
ITEM: TIMESTEP
90
ITEM: NUMBER OF ATOMS
64
ITEM: BOX BOUNDS pp pp pp
7.3596592311040432e-02 1.0787803407689166e+01
7.3596592311040432e-02 1.0787803407689166e+01
7.3596592311040432e-02 1.0787803407689166e+01
ITEM: ATOMS id type xs ys zs
5 1 0.162564 0.062834 0.169365
8 1 0.451605 0.375567 0.0766337
17 1 0.410455 0.0589803 0.242977
29 1 0.522706 0.0212371 0.0472788
44 1 0.12332 0.414742 0.0924736
52 1 0.0357904 0.379558 0.279412
25 1 0.363488 0.421158 0.310638
53 1 0.426266 0.218724 0.376958
32 1 0.2094 0.28945 0.393233
26 1 0.0752942 0.533989 0.575804
49 1 0.774058 0.0595497 0.256257
42 1 0.889754 0.266759 0.0159149
40 1 0.982002 0.170309 0.334657
18 1 0.841589 0.439149 0.22493
20 1 0.677773 0.357138 0.0971143
55 1 0.731176 0.27055 0.345922
45 1 0.260165 0.581774 0.162253
23 1 0.27825 0.815775 0.197216
41 1 0.118331 0.941321 0.354701
7 1 0.364071 0.847533 0.380682
46 1 0.322032 0.643091 0.471352
16 1 0.255676 0.981086 0.534237
64 1 0.561855 0.50344 0.222061
47 1 0.779552 0.610291 0.0254399
57 1 0.536207 0.779833 0.20169
27 1 0.967848 0.987575 0.00408423
12 1 0.873385 0.673442 0.219491
63 1 0.797787 0.876993 0.111834
4 1 0.838978 0.557135 0.509157
50 1 0.584001 0.653923 0.38005
28 1 0.675687 0.914255 0.37956
3 1 0.986365 0.758657 0.376083
24 1 0.223289 0.187017 0.588667
21 1 0.520521 0.0612844 0.529275
37 1 0.389475 0.228021 0.719956
59 1 0.360281 0.588012 0.68864
56 1 0.163225 0.205077 0.831376
43 1 0.248939 0.241723 0.0233372
9 1 0.346469 0.0366329 0.88714
48 1 0.0335783 0.357728 0.718703
31 1 0.398733 0.446498 0.864713
14 1 0.889981 0.2596 0.52802
30 1 0.912747 0.0592796 0.646827
39 1 0.711545 0.382124 0.539836
34 1 0.623871 0.215284 0.817434
1 1 0.670129 0.015179 0.701845
13 1 0.743412 0.0855422 0.0122363
22 1 0.95695 0.144848 0.84598
15 1 0.760259 0.417611 0.784282
62 1 0.152866 0.784777 0.5579
61 1 0.307197 0.657558 0.921354
51 1 0.193094 0.506795 0.800808
33 1 0.22579 0.867921 0.778227
54 1 0.206575 0.886826 0.995963
6 1 0.473778 0.795674 0.975584
19 1 0.478904 0.893735 0.745872
2 1 0.867474 0.882563 0.516927
36 1 0.586777 0.578354 0.925731
35 1 0.937953 0.440218 0.91599
58 1 0.58175 0.677521 0.678297
11 1 0.990124 0.678477 0.784664
60 1 0.784405 0.719371 0.667078
38 1 0.817618 0.782014 0.86869
10 1 0.99709 0.909837 0.787082
ITEM: TIMESTEP
100
ITEM: NUMBER OF ATOMS
64
ITEM: BOX BOUNDS pp pp pp
6.9539900425622747e-02 1.0791860099574581e+01
6.9539900425622747e-02 1.0791860099574581e+01
6.9539900425622747e-02 1.0791860099574581e+01
ITEM: ATOMS id type xs ys zs
5 1 0.162809 0.065541 0.172673
8 1 0.451833 0.379706 0.0719879
17 1 0.415494 0.0484173 0.242931
29 1 0.530857 0.0218204 0.0387605
44 1 0.124418 0.41842 0.0918038
52 1 0.0395959 0.37138 0.280131
25 1 0.358919 0.420651 0.316102
53 1 0.423334 0.222014 0.380089
32 1 0.205851 0.286726 0.38744
26 1 0.076495 0.547022 0.579584
49 1 0.771463 0.0607625 0.261693
42 1 0.882497 0.265964 0.0269424
40 1 0.984552 0.167164 0.339972
18 1 0.829978 0.437234 0.222345
20 1 0.676618 0.35596 0.0967266
55 1 0.730111 0.263051 0.355067
45 1 0.263201 0.583945 0.164911
23 1 0.284704 0.823074 0.201297
41 1 0.129874 0.944522 0.361047
7 1 0.366537 0.84705 0.392572
46 1 0.320239 0.642985 0.470047
16 1 0.253567 0.982288 0.536527
64 1 0.553366 0.501865 0.217645
47 1 0.777767 0.606521 0.0256824
57 1 0.526734 0.780952 0.206195
27 1 0.9665 0.986446 0.0106949
12 1 0.867455 0.683081 0.213884
63 1 0.807177 0.869213 0.102261
4 1 0.841695 0.546011 0.499004
50 1 0.578284 0.649101 0.378988
28 1 0.672261 0.918585 0.375877
3 1 0.987918 0.751934 0.368937
24 1 0.215841 0.184817 0.585064
21 1 0.526601 0.0638421 0.528369
37 1 0.392417 0.230213 0.734917
59 1 0.369516 0.603228 0.686944
56 1 0.169534 0.209306 0.823401
43 1 0.243979 0.239345 0.0369355
9 1 0.355979 0.0221776 0.889755
48 1 0.035537 0.355942 0.709635
31 1 0.393629 0.442148 0.855994
14 1 0.883476 0.255481 0.524301
30 1 0.923942 0.0647658 0.648993
39 1 0.699902 0.388884 0.544349
34 1 0.617447 0.202408 0.822355
1 1 0.664428 0.0146477 0.69417
13 1 0.739001 0.0908857 0.015608
22 1 0.964251 0.133148 0.849588
15 1 0.754986 0.422714 0.781574
62 1 0.154789 0.788671 0.555081
61 1 0.299331 0.659945 0.919806
51 1 0.199264 0.501986 0.803059
33 1 0.226958 0.872132 0.773653
54 1 0.199055 0.885663 0.00378922
6 1 0.47866 0.800272 0.979332
19 1 0.479172 0.883792 0.74132
2 1 0.868729 0.883966 0.509734
36 1 0.599598 0.568243 0.920374
35 1 0.933429 0.458083 0.923339
58 1 0.581744 0.679687 0.673729
11 1 0.988836 0.676697 0.779826
60 1 0.78197 0.729316 0.658475
38 1 0.819919 0.789502 0.879537
10 1 0.00820547 0.907603 0.775073
ITEM: TIMESTEP
110
ITEM: NUMBER OF ATOMS
64
ITEM: BOX BOUNDS pp pp pp
6.4935330778981282e-02 1.0796464669221223e+01
6.4935330778981282e-02 1.0796464669221223e+01
6.4935330778981282e-02 1.0796464669221223e+01
ITEM: ATOMS id type xs ys zs
5 1 0.163333 0.0681088 0.174126
8 1 0.449616 0.381347 0.0642413
17 1 0.42038 0.0359301 0.241096
29 1 0.536166 0.0215721 0.0313347
44 1 0.124765 0.424285 0.087397
52 1 0.0407044 0.363619 0.281838
25 1 0.355974 0.426051 0.320933
53 1 0.422467 0.222602 0.383983
32 1 0.201296 0.283077 0.384405
26 1 0.0757854 0.560887 0.583911
49 1 0.772859 0.0652065 0.264794
42 1 0.874446 0.26456 0.0373002
40 1 0.987082 0.161624 0.344509
18 1 0.820454 0.437974 0.222742
20 1 0.67468 0.352639 0.0954659
55 1 0.727828 0.255658 0.362945
45 1 0.265648 0.586935 0.167373
23 1 0.289896 0.827909 0.201702
41 1 0.137969 0.947729 0.364643
7 1 0.373089 0.847901 0.407215
46 1 0.3187 0.640408 0.468814
16 1 0.253163 0.983318 0.540186
64 1 0.544987 0.501896 0.214908
47 1 0.779366 0.603348 0.0268698
57 1 0.517152 0.78326 0.210712
27 1 0.969368 0.984272 0.0187019
12 1 0.86034 0.688975 0.204604
63 1 0.816069 0.861799 0.093922
4 1 0.846546 0.538744 0.489272
50 1 0.572632 0.64501 0.380613
28 1 0.666515 0.920499 0.376832
3 1 0.992174 0.748236 0.366374
24 1 0.208694 0.185818 0.584858
21 1 0.532502 0.0653183 0.524512
37 1 0.396453 0.232091 0.750684
59 1 0.379642 0.618192 0.683578
56 1 0.178446 0.21368 0.814869
43 1 0.239609 0.237262 0.0508445
9 1 0.365495 0.00949741 0.891709
48 1 0.0370142 0.35444 0.699723
31 1 0.394398 0.43445 0.84847
14 1 0.878235 0.24986 0.523312
30 1 0.930522 0.0696355 0.647365
39 1 0.688042 0.394985 0.550937
34 1 0.612245 0.190519 0.826987
1 1 0.658961 0.0159828 0.687731
13 1 0.733784 0.0975899 0.0189616
22 1 0.972028 0.123145 0.854785
15 1 0.746089 0.42631 0.779389
62 1 0.15509 0.788554 0.553232
61 1 0.291716 0.665293 0.921268
51 1 0.198969 0.497746 0.802483
33 1 0.229812 0.875992 0.767558
54 1 0.189202 0.88509 0.0121971
6 1 0.484753 0.804115 0.982632
19 1 0.480365 0.872716 0.73649
2 1 0.867912 0.88556 0.502673
36 1 0.609672 0.557328 0.910345
35 1 0.930759 0.477524 0.930114
58 1 0.576152 0.681775 0.670131
11 1 0.987942 0.673279 0.774118
60 1 0.785589 0.738693 0.647771
38 1 0.82147 0.79714 0.890387
10 1 0.019215 0.903954 0.764017
ITEM: TIMESTEP
120
ITEM: NUMBER OF ATOMS
64
ITEM: BOX BOUNDS pp pp pp
5.9868075030913737e-02 1.0801531924969293e+01
5.9868075030913737e-02 1.0801531924969293e+01
5.9868075030913737e-02 1.0801531924969293e+01
ITEM: ATOMS id type xs ys zs
5 1 0.16323 0.0691253 0.17457
8 1 0.445546 0.380116 0.0538353
17 1 0.425761 0.0236131 0.238648
29 1 0.53821 0.0208379 0.0259711
44 1 0.123355 0.431788 0.081388
52 1 0.0368113 0.358676 0.281218
25 1 0.35395 0.436004 0.326317
53 1 0.423024 0.220347 0.387115
32 1 0.198802 0.278148 0.385077
26 1 0.0733734 0.574538 0.588606
49 1 0.777911 0.0706553 0.265144
42 1 0.867901 0.264542 0.0453546
40 1 0.989548 0.15366 0.348089
18 1 0.814388 0.440875 0.2272
20 1 0.669974 0.347522 0.0933425
55 1 0.723385 0.250247 0.370277
45 1 0.2674 0.590607 0.16929
23 1 0.294372 0.830663 0.201339
41 1 0.142078 0.950559 0.364447
7 1 0.382407 0.849169 0.422459
46 1 0.317241 0.635311 0.467319
16 1 0.25476 0.984482 0.546603
64 1 0.537226 0.50311 0.213412
47 1 0.781445 0.601163 0.0285675
57 1 0.508431 0.786083 0.215577
27 1 0.977186 0.982516 0.0279287
12 1 0.854753 0.690155 0.197468
63 1 0.822552 0.858184 0.0883895
4 1 0.853065 0.534309 0.479659
50 1 0.566902 0.641709 0.384495
28 1 0.65914 0.920985 0.381156
3 1 0.997804 0.746884 0.366894
24 1 0.202289 0.190014 0.58772
21 1 0.53729 0.0662525 0.51577
37 1 0.40102 0.232546 0.765952
59 1 0.385548 0.631157 0.681125
56 1 0.187524 0.217675 0.808261
43 1 0.236443 0.23705 0.0622709
9 1 0.373847 0.997991 0.892286
48 1 0.0385967 0.353179 0.688702
31 1 0.400235 0.426824 0.842166
14 1 0.874136 0.244591 0.52558
30 1 0.932833 0.0726842 0.643
39 1 0.6772 0.400192 0.558283
34 1 0.608521 0.179601 0.831682
1 1 0.65456 0.0178136 0.684147
13 1 0.729274 0.104712 0.0228604
22 1 0.980798 0.115214 0.860779
15 1 0.736097 0.427809 0.777796
62 1 0.153857 0.784731 0.552143
61 1 0.284687 0.672777 0.924614
51 1 0.193863 0.495243 0.799454
33 1 0.23622 0.879168 0.760637
54 1 0.177761 0.884874 0.0199131
6 1 0.491075 0.806772 0.985306
19 1 0.481955 0.861754 0.731662
2 1 0.865976 0.888309 0.495283
36 1 0.615974 0.545762 0.896349
35 1 0.931032 0.494803 0.935059
58 1 0.573533 0.684787 0.666297
11 1 0.985433 0.669566 0.768817
60 1 0.791847 0.745839 0.637764
38 1 0.823322 0.803346 0.895751
10 1 0.0275512 0.899298 0.753309
ITEM: TIMESTEP
130
ITEM: NUMBER OF ATOMS
64
ITEM: BOX BOUNDS pp pp pp
5.4269557858576789e-02 1.0807130442141627e+01
5.4269557858576789e-02 1.0807130442141627e+01
5.4269557858576789e-02 1.0807130442141627e+01
ITEM: ATOMS id type xs ys zs
5 1 0.161582 0.0675052 0.174652
8 1 0.440742 0.376121 0.0435138
17 1 0.43205 0.0132071 0.236591
29 1 0.537794 0.0203928 0.0234366