LAMMPS data file via write_data, version 23 Jun 2022, timestep = 500000

64 atoms
1 atom types

0.10325114681729985 10.75814885318263 xlo xhi
0.10325114681729985 10.75814885318263 ylo yhi
0.10325114681729985 10.75814885318263 zlo zhi

Masses

1 28.0855

Atoms # full

20 0 1 0 1.002620482102681 2.829964318894492 1.1781039461056537 6 2 0
2 0 1 0 1.543660008985343 1.2464493254801927 3.0172717623598557 -1 -6 0
28 0 1 0 3.323282237314849 3.2512892963044018 1.503288768400323 3 7 5
14 0 1 0 5.7622327142228285 1.2041593422287955 3.461218834877698 0 5 4
8 0 1 0 4.73542471914389 1.286500133756501 0.8322351214768455 0 3 1
44 0 1 0 9.244384840308054 1.173052479922277 0.6770421178866461 -3 2 0
62 0 1 0 7.454334454386513 3.0757977816334763 2.9600305119622607 2 6 8
38 0 1 0 7.864495585110172 3.2774356762938814 0.7921422438354144 -2 -1 -3
26 0 1 0 0.5685996684046735 4.897813644943959 2.809687669880577 5 4 1
17 0 1 0 5.856082636787787 6.234023154787902 1.6796590311784774 -1 2 -1
56 0 1 0 4.095722272762698 4.829209368139926 0.21079779910264346 1 -4 -1
12 0 1 0 8.918293479293954 5.53658955455315 3.0300211541410103 -6 -3 6
64 0 1 0 9.097540347186793 5.259785572855611 0.7405139130467595 5 0 0
61 0 1 0 2.8604185176566164 10.346329451003763 1.5617304880479874 -2 1 -2
37 0 1 0 0.9525843385354705 7.251085265382104 1.6027240498377504 2 -3 4
53 0 1 0 0.37714883367320645 9.71509151520756 1.273640746211369 1 -3 1
48 0 1 0 4.449008371161425 7.783194080178385 2.442907393519875 -5 4 7
23 0 1 0 6.464165776046928 9.819652707914743 0.2621584338992791 -2 -1 2
4 0 1 0 4.091308857617769 8.578292754216198 0.2703268965952318 1 -7 0
27 0 1 0 7.823718110000349 7.836818308515451 2.4186409797828725 5 0 1
46 0 1 0 7.842980284565824 10.409624798993455 2.6788413904509087 0 0 -2
24 0 1 0 8.002409636603918 7.28037337918762 0.20927226075604471 1 6 -1
29 0 1 0 3.2412403434344164 1.282221217107552 4.76971619571654 -1 3 -1
15 0 1 0 2.476477641431908 0.23379805915148744 6.945331389985046 -5 6 6
1 0 1 0 0.866743294325459 2.373773894361784 6.780794816023649 2 -2 2
39 0 1 0 5.457414102211177 2.9381457440271954 5.706932466328506 -1 5 4
45 0 1 0 9.88844269097062 0.6869051131963957 3.944384781828797 -1 7 5
35 0 1 0 9.312240584813745 3.224376062431168 4.533571718292684 0 -3 -4
52 0 1 0 7.922349233571144 2.85371625755155 6.839704309276678 1 3 -1
3 0 1 0 9.57165120862634 1.0738936365075937 6.81878384070985 -5 -3 -2
10 0 1 0 1.5744007074216253 3.781758462748745 4.802993610520369 1 -12 -6
47 0 1 0 2.8371841422488515 6.514334951690481 3.8221532738859296 6 -1 2
30 0 1 0 1.8746240157853338 5.30790454189533 6.778617715612006 6 1 -2
43 0 1 0 6.220877931206685 4.794462074669631 3.7590258853497174 0 -5 -3
6 0 1 0 3.952459539780166 4.036465988412614 3.696689850271571 -3 -6 -1
42 0 1 0 6.637236131627318 6.869543589593098 4.896585839177598 5 4 -4
11 0 1 0 4.584244626219257 7.205590897009357 6.544748256124863 3 -6 -2
25 0 1 0 9.86980493552336 5.267665609879844 6.267544413527514 -1 1 2
19 0 1 0 7.408770253379145 5.504448433397962 6.591637924607897 1 6 0
36 0 1 0 2.380171211866489 8.040757760336758 5.581098252341108 -4 -3 -2
40 0 1 0 0.31317086566633745 8.872346632353008 3.7930028764797865 -2 3 -2
59 0 1 0 3.9951575169586504 9.572645717107395 4.0305601129187965 0 -3 -3
21 0 1 0 6.178827981972276 9.71147812177056 5.075679417858275 -2 -5 -1
16 0 1 0 4.943814061362421 9.638690824455821 7.108139468347996 5 2 -2
41 0 1 0 8.560529053659753 9.540772363618244 5.978387611030851 -4 -2 -6
34 0 1 0 9.42949072335153 7.413676048703619 4.954892808644997 -1 -9 -1
22 0 1 0 0.13448171955616736 0.36648856892037635 9.236356149098818 -4 2 6
54 0 1 0 3.570145216280005 1.7529784284693366 9.207931340046727 6 -5 0
60 0 1 0 0.5479401795625203 2.7818989144415034 9.421541004542151 5 2 -2
51 0 1 0 5.659530333219123 1.3619093886142122 7.706269195614898 -1 4 0
31 0 1 0 6.0651017883275555 3.3755401765580464 9.982370378988406 -2 3 0
5 0 1 0 7.807444416418904 0.5249051873206553 9.123524620916326 0 0 2
55 0 1 0 2.4007310793658476 6.561173902738457 10.523004870597255 -6 -1 -4
18 0 1 0 2.6338708022764123 3.9574000043656596 8.963383584164788 -2 0 4
32 0 1 0 0.39324249750774076 5.864142398032296 9.435214701017099 -3 -3 0
49 0 1 0 4.44546647262446 4.613505327385489 7.228311187207339 -4 -1 6
13 0 1 0 6.787804375069062 5.373732048949914 8.948081628691448 5 -2 -1
50 0 1 0 9.364405497378357 4.046359377839387 8.83702678007244 -2 7 -3
7 0 1 0 2.3745708884808714 10.31507060727888 9.469535118466608 -1 -2 -1
33 0 1 0 2.4262188833258094 7.969602663593997 8.145511740358845 1 3 -2
9 0 1 0 5.792957960435485 7.911335518486195 8.788408023187335 -5 -2 -2
57 0 1 0 9.878982838371025 8.368473486945847 9.954753622108345 -1 0 -3
58 0 1 0 10.623558584455463 7.785081175045297 7.579243480799324 3 3 -1
63 0 1 0 8.126159058735539 9.008114810831374 8.261975315492775 2 -3 -3

Velocities

20 2.741168679530696 -2.336842752674099 9.375316563535081
2 -9.866261941309252 -6.128118300298117 -4.645178489699726
28 -4.601325308169091 7.301374350086074 -4.405569092075744
14 8.04483763439492 -0.44344546475427854 -7.1282440483688365
8 11.759314715305695 -5.356998793021218 3.5752673022833017
44 8.321568755985567 -15.305633219062626 4.996324186881272
62 0.42749733416922164 4.645003236284257 4.9427051899216785
38 -6.048207747784641 -5.397225957968078 -4.261335930476367
26 -8.4610155502898 -3.051481722847482 2.868657508354504
17 -1.6788302029413829 3.20651965102501 -5.582920547634856
56 -7.908867730198735 2.160860072618957 2.053503818816829
12 8.942178635414493 -3.880729769571203 -12.149488930213131
64 8.026929995694175 -2.3142740750180217 -9.13407909990612
61 14.794744542359874 -1.6596678513123824 -8.20424508541972
37 5.878749409687284 15.359905144316228 -1.3425558692602109
53 -2.029173634764307 9.92019593711175 0.8746479099184309
48 -1.4449234903716557 -2.832202666680481 -7.749261559174638
23 -7.748117783949105 2.4958103361186654 15.586194549099957
4 -7.644038627477335 -0.9578676380978556 -6.676965812549988
27 0.7940729470999588 10.450404089730295 -8.022840664670488
46 -4.900978203041225 0.5386751157212205 -8.669902836865589
24 -8.983812897728034 2.5347965883492964 -7.0535812558418955
29 8.667238509556585 4.7917502222539845 -0.6964811188698876
15 0.1094809313581106 2.5710167776973085 -8.031990634371216
1 -6.7411976478876765 8.713523250887446 4.321506840432912
39 -6.943418154626791 -0.8603185808751086 11.780794465441929
45 -10.40181274841533 -10.736930512696532 -1.6652710121389478
35 -9.400290679045954 9.549097478724311 4.3421059496936065
52 8.966820205100825 -6.4986043519939365 -1.4670405318000457
3 0.031565506611085606 -1.4923600902705907 5.023025091158894
10 6.054985606763789 0.5863878977303721 9.390979159294044
47 3.474026076821557 2.2041734998378906 15.965408343222975
30 -7.2016378401475984 10.167278496368537 -4.535445981885215
43 -0.03789820595270828 -2.5056033964490054 11.486841443104831
6 9.6396382889892 4.026235010981748 2.136211903660722
42 6.323126997916798 -3.5466932487105733 5.7237034818776165
11 7.36194787908466 -0.9800776450786508 2.841239991837769
25 1.1320845546069294 9.29244185892951 10.262408706612037
19 1.3463517783601746 -7.22237242498517 -2.172441891256932
36 -0.5768774220623241 -8.10849412056376 -9.062181158220625
40 -1.2404118553676364 -16.99922315730069 -1.0747021810073083
59 14.15304624015362 2.1805063441835086 0.6868294658691454
21 -7.773947229968413 8.45331531596594 -3.3425584519429847
16 -10.667152437980699 -4.710327799588277 7.837678900477437
41 -6.620561004093719 2.354645522096277 -15.96653318260614
34 0.7004623233961702 -0.337426340219433 -7.022337433576205
22 0.2791103231440293 1.744285138842375 2.1113161804725675
54 -0.599015376260737 -11.458275505986206 -2.1679188733393318
60 8.46907860873272 -10.43538692015929 -16.821419639800553
51 -6.587236127440554 11.704671706388488 -0.9605820479228174
31 -6.251759482735716 -3.407362983562087 -4.4080013443523205
5 -6.507537654034173 3.810914435373346 6.4720123331560035
55 -15.298754758337884 -1.712638238815092 -5.363933537263051
18 5.966551528766123 7.940887105899801 -1.4746502196087448
32 2.519725583553448 -3.1182589412913493 9.75560470114123
49 2.959380083459259 5.469114809769982 1.6107591889140966
13 -7.990262989171354 0.7066768334022648 4.764586463475426
50 -4.833978747878406 -4.271081683955144 -1.553754161968815
7 -0.03793667777729257 7.757065664952224 4.019897285550746
33 2.2129724615210002 -15.934036693286693 -2.1573862160055453
9 17.0578828195018 1.5239939052794682 11.5641812453073
57 4.658970286179362 -2.498229719499821 11.467561132152406
58 2.0285804930736915 -3.356285723084561 4.11449236312034
63 3.1831504209071313 5.692950492729064 -6.980962824744582
