10.647444431688351 0.0 0.0 0.0 10.647444431688351 0.0 0.0 0.0 10.647444431688351
10.644134957427307 0.0 0.0 0.0 10.644134957427307 0.0 0.0 0.0 10.644134957427307
10.645446258549606 0.0 0.0 0.0 10.645446258549606 0.0 0.0 0.0 10.645446258549606
10.625085636280996 0.0 0.0 0.0 10.625085636280996 0.0 0.0 0.0 10.625085636280996
10.62135282025327 0.0 0.0 0.0 10.62135282025327 0.0 0.0 0.0 10.62135282025327
10.668008787182176 0.0 0.0 0.0 10.668008787182176 0.0 0.0 0.0 10.668008787182176
10.649508751978138 0.0 0.0 0.0 10.649508751978138 0.0 0.0 0.0 10.649508751978138
10.633373609718229 0.0 0.0 0.0 10.633373609718229 0.0 0.0 0.0 10.633373609718229
10.614846586476563 0.0 0.0 0.0 10.614846586476563 0.0 0.0 0.0 10.614846586476563
10.704420412534567 0.0 0.0 0.0 10.704420412534567 0.0 0.0 0.0 10.704420412534567
10.69215461402214 0.0 0.0 0.0 10.69215461402214 0.0 0.0 0.0 10.69215461402214
10.61343421250747 0.0 0.0 0.0 10.61343421250747 0.0 0.0 0.0 10.61343421250747
10.728665724689701 0.0 0.0 0.0 10.728665724689701 0.0 0.0 0.0 10.728665724689701
10.612463701507346 0.0 0.0 0.0 10.612463701507346 0.0 0.0 0.0 10.612463701507346
10.557021276210937 0.0 0.0 0.0 10.557021276210937 0.0 0.0 0.0 10.557021276210937
10.720855598271612 0.0 0.0 0.0 10.720855598271612 0.0 0.0 0.0 10.720855598271612
10.729132458987468 0.0 0.0 0.0 10.729132458987468 0.0 0.0 0.0 10.729132458987468
10.598098127832174 0.0 0.0 0.0 10.598098127832174 0.0 0.0 0.0 10.598098127832174
10.626911826827023 0.0 0.0 0.0 10.626911826827023 0.0 0.0 0.0 10.626911826827023
10.675951207902356 0.0 0.0 0.0 10.675951207902356 0.0 0.0 0.0 10.675951207902356
10.677391628263493 0.0 0.0 0.0 10.677391628263493 0.0 0.0 0.0 10.677391628263493
10.664125155650071 0.0 0.0 0.0 10.664125155650071 0.0 0.0 0.0 10.664125155650071
10.690761819609753 0.0 0.0 0.0 10.690761819609753 0.0 0.0 0.0 10.690761819609753
10.702734983125962 0.0 0.0 0.0 10.702734983125962 0.0 0.0 0.0 10.702734983125962
10.632346476756815 0.0 0.0 0.0 10.632346476756815 0.0 0.0 0.0 10.632346476756815
10.732994394254032 0.0 0.0 0.0 10.732994394254032 0.0 0.0 0.0 10.732994394254032
10.64130544689424 0.0 0.0 0.0 10.64130544689424 0.0 0.0 0.0 10.64130544689424
10.631244729809023 0.0 0.0 0.0 10.631244729809023 0.0 0.0 0.0 10.631244729809023
10.69236998914594 0.0 0.0 0.0 10.69236998914594 0.0 0.0 0.0 10.69236998914594
10.683144842872712 0.0 0.0 0.0 10.683144842872712 0.0 0.0 0.0 10.683144842872712
10.532578051779879 0.0 0.0 0.0 10.532578051779879 0.0 0.0 0.0 10.532578051779879
10.615759946338182 0.0 0.0 0.0 10.615759946338182 0.0 0.0 0.0 10.615759946338182
10.61300610814591 0.0 0.0 0.0 10.61300610814591 0.0 0.0 0.0 10.61300610814591
10.613991436107865 0.0 0.0 0.0 10.613991436107865 0.0 0.0 0.0 10.613991436107865
10.657422067951856 0.0 0.0 0.0 10.657422067951856 0.0 0.0 0.0 10.657422067951856
10.583953221052884 0.0 0.0 0.0 10.583953221052884 0.0 0.0 0.0 10.583953221052884
10.662414325735462 0.0 0.0 0.0 10.662414325735462 0.0 0.0 0.0 10.662414325735462
10.58281919429538 0.0 0.0 0.0 10.58281919429538 0.0 0.0 0.0 10.58281919429538
10.637790122699148 0.0 0.0 0.0 10.637790122699148 0.0 0.0 0.0 10.637790122699148
10.664177015016488 0.0 0.0 0.0 10.664177015016488 0.0 0.0 0.0 10.664177015016488
10.58811361226496 0.0 0.0 0.0 10.58811361226496 0.0 0.0 0.0 10.58811361226496
10.679634810449704 0.0 0.0 0.0 10.679634810449704 0.0 0.0 0.0 10.679634810449704
10.632335893212648 0.0 0.0 0.0 10.632335893212648 0.0 0.0 0.0 10.632335893212648
10.665310512596783 0.0 0.0 0.0 10.665310512596783 0.0 0.0 0.0 10.665310512596783
10.592998976252478 0.0 0.0 0.0 10.592998976252478 0.0 0.0 0.0 10.592998976252478
10.713491568240164 0.0 0.0 0.0 10.713491568240164 0.0 0.0 0.0 10.713491568240164
10.575765791285237 0.0 0.0 0.0 10.575765791285237 0.0 0.0 0.0 10.575765791285237
10.613011929095203 0.0 0.0 0.0 10.613011929095203 0.0 0.0 0.0 10.613011929095203
10.659372615141846 0.0 0.0 0.0 10.659372615141846 0.0 0.0 0.0 10.659372615141846
10.664530505391669 0.0 0.0 0.0 10.664530505391669 0.0 0.0 0.0 10.664530505391669
10.58225138715082 0.0 0.0 0.0 10.58225138715082 0.0 0.0 0.0 10.58225138715082
10.701804160416469 0.0 0.0 0.0 10.701804160416469 0.0 0.0 0.0 10.701804160416469
10.69562919157219 0.0 0.0 0.0 10.69562919157219 0.0 0.0 0.0 10.69562919157219
10.679285024314982 0.0 0.0 0.0 10.679285024314982 0.0 0.0 0.0 10.679285024314982
10.78258147374001 0.0 0.0 0.0 10.78258147374001 0.0 0.0 0.0 10.78258147374001
10.662314840420294 0.0 0.0 0.0 10.662314840420294 0.0 0.0 0.0 10.662314840420294
10.751996089451593 0.0 0.0 0.0 10.751996089451593 0.0 0.0 0.0 10.751996089451593
10.704890321895585 0.0 0.0 0.0 10.704890321895585 0.0 0.0 0.0 10.704890321895585
10.547006597542847 0.0 0.0 0.0 10.547006597542847 0.0 0.0 0.0 10.547006597542847
10.691507959473531 0.0 0.0 0.0 10.691507959473531 0.0 0.0 0.0 10.691507959473531
10.616109203295695 0.0 0.0 0.0 10.616109203295695 0.0 0.0 0.0 10.616109203295695
10.656512412330695 0.0 0.0 0.0 10.656512412330695 0.0 0.0 0.0 10.656512412330695
