-6822.11373913195
-6823.041074930306
-6822.736873291739
-6823.242502709492
-6821.534183731307
-6823.387991774753
-6822.980378033797
-6822.711361122739
-6822.990984759113
-6822.530881075023
-6823.06476556927
-6822.41071220245
-6823.745289217916
-6823.441275473955
-6821.984325871993
-6823.392796760915
-6824.340873756339
-6823.422279206879
-6821.375755925133
-6823.410371369243
-6824.868995287654
-6822.3053392477395
-6824.83173678058
-6822.329901603385
-6822.155664119243
-6824.271193837788
-6822.9019104709405
-6822.77924440967
-6823.825565385401
-6822.563235138326
-6821.119028627428
-6821.846817225336
-6823.502278090362
-6822.657940686332
-6823.033428667497
-6823.707665261958
-6822.012883266961
-6822.242474964505
-6821.380285123921
-6821.810844592207
-6821.7736376507055
-6822.000361404448
-6821.932974997387
-6821.430723192656
-6822.844796089175
-6822.653994899615
-6823.457467607925
-6822.127649591383
-6822.180879003873
-6824.005299024858
-6822.6133265340295
-6823.312639643235
-6819.814468489502
-6823.375572499156
-6822.283206460502
-6821.682934216981
-6821.598397835238
-6822.8097638814725
-6819.396390338768
-6820.4540019979495
-6821.852592161277
-6821.700178751221
