An instance of this daemon is already running

     Program PWSCF v.7.1 starts on  9May2023 at 15:21:31 

     This program is part of the open-source Quantum ESPRESSO suite
     for quantum simulation of materials; please cite
         "P. Giannozzi et al., J. Phys.:Condens. Matter 21 395502 (2009);
         "P. Giannozzi et al., J. Phys.:Condens. Matter 29 465901 (2017);
         "P. Giannozzi et al., J. Chem. Phys. 152 154105 (2020);
          URL http://www.quantum-espresso.org", 
     in publications or presentations arising from this work. More details at
     http://www.quantum-espresso.org/quote

     Parallel version (MPI & OpenMP), running on       4 processor cores
     Number of MPI processes:                 4
     Threads/MPI process:                     1

     MPI processes distributed on     1 nodes
     8300 MiB available memory on the printing compute node when the environment starts
 
     Reading input from pw-si-69.in
Warning: card &CELL ignored
Warning: card / ignored

     Current dimensions of program PWSCF are:
     Max number of different atomic species (ntypx) = 10
     Max number of k-points (npk) =  40000
     Max angular momentum in pseudopotentials (lmaxx) =  4

     IMPORTANT: XC functional enforced from input :
     Exchange-correlation= PBE
                           (   1   4   3   4   0   0   0)
     Any further DFT definition will be discarded
     Please, verify this is what you really want


     gamma-point specific algorithms are used
 
     K-points division:     npool     =       2
     R & G space division:  proc/nbgrp/npool/nimage =       2
     Subspace diagonalization in iterative solution of the eigenvalue problem:
     a serial algorithm will be used

     Message from routine divide_et_impera:
     suboptimal parallelization: some nodes have no k-points
 
     Parallelization info
     --------------------
     sticks:   dense  smooth     PW     G-vecs:    dense   smooth      PW
     Min        1942    1942    516                90833    90833   12416
     Max        1943    1943    517                90834    90834   12421
     Sum        3885    3885   1033               181667   181667   24837
 
     Using Slab Decomposition
 


     bravais-lattice index     =            0
     lattice parameter (alat)  =      20.1545  a.u.
     unit-cell volume          =    8186.8553 (a.u.)^3
     number of atoms/cell      =           64
     number of atomic types    =            1
     number of electrons       =       256.00
     number of Kohn-Sham states=          128
     kinetic-energy cutoff     =      30.0000  Ry
     charge density cutoff     =     120.0000  Ry
     scf convergence threshold =      1.0E-06
     mixing beta               =       0.5000
     number of iterations used =            8  plain     mixing
     Exchange-correlation= PBE
                           (   1   4   3   4   0   0   0)

     GPU acceleration is ACTIVE.
     GPU-aware MPI enabled

     Message from routine print_cuda_info:
     High GPU oversubscription detected. Are you sure this is what you want?

     celldm(1)=  20.154516  celldm(2)=   0.000000  celldm(3)=   0.000000
     celldm(4)=   0.000000  celldm(5)=   0.000000  celldm(6)=   0.000000

     crystal axes: (cart. coord. in units of alat)
               a(1) = (   1.000000   0.000000   0.000000 )  
               a(2) = (   0.000000   1.000000   0.000000 )  
               a(3) = (   0.000000   0.000000   1.000000 )  

     reciprocal axes: (cart. coord. in units 2 pi/alat)
               b(1) = (  1.000000  0.000000  0.000000 )  
               b(2) = (  0.000000  1.000000  0.000000 )  
               b(3) = (  0.000000  0.000000  1.000000 )  


     PseudoPot. # 1 for Si read from file:
     /home/ppiaggi/pseudos/Si_ONCV_PBE_sr.upf
     MD5 check sum: 8553c464762ac42b85b1eed164b4d029
     Pseudo is Norm-conserving, Zval =  4.0
     Generated using ONCVPSP code by D. R. Hamann
     Using radial grid of 1510 points,  4 beta functions with: 
                l(1) =   0
                l(2) =   0
                l(3) =   1
                l(4) =   1

     atomic species   valence    mass     pseudopotential
        Si             4.00    28.08500     Si( 1.00)

     No symmetry found



   Cartesian axes

     site n.     atom                  positions (alat units)
         1           Si  tau(   1) = (   0.5656350   0.6223430   0.7087640  )
         2           Si  tau(   2) = (   0.5632740   0.2922700   0.2001780  )
         3           Si  tau(   3) = (   0.5587860   0.8450540   0.8092190  )
         4           Si  tau(   4) = (   0.3096510   0.0900501   0.4774050  )
         5           Si  tau(   5) = (   0.8547340   0.2003860   0.0579707  )
         6           Si  tau(   6) = (   0.2661460   0.7085020   0.6640400  )
         7           Si  tau(   7) = (   0.3457450   0.8943040   0.6995520  )
         8           Si  tau(   8) = (   0.8920660   0.5661950   0.8635850  )
         9           Si  tau(   9) = (   0.7030140   0.5539240   0.0371509  )
        10           Si  tau(  10) = (   0.6844490   0.3128380   0.7113540  )
        11           Si  tau(  11) = (   0.4290040   0.3089970   0.4231640  )
        12           Si  tau(  12) = (   0.6550630   0.9869370   0.5772670  )
        13           Si  tau(  13) = (   0.3127250   0.7528030   0.2736360  )
        14           Si  tau(  14) = (   0.5098640   0.8524590   0.2173120  )
        15           Si  tau(  15) = (   0.3516350   0.6242390   0.8958690  )
        16           Si  tau(  16) = (   0.7357700   0.7678410   0.4930010  )
        17           Si  tau(  17) = (   0.3488400   0.9471960   0.0388747  )
        18           Si  tau(  18) = (   0.5786420   0.6226730   0.3713290  )
        19           Si  tau(  19) = (   0.4473750   0.4191840   0.7627220  )
        20           Si  tau(  20) = (   0.0932774   0.0044105   0.3660610  )
        21           Si  tau(  21) = (   0.2086040   0.8262760   0.9138630  )
        22           Si  tau(  22) = (   0.6268420   0.3599060   0.9484690  )
        23           Si  tau(  23) = (   0.1611990   0.4740950   0.2041730  )
        24           Si  tau(  24) = (   0.9518860   0.6124530   0.3991250  )
        25           Si  tau(  25) = (   0.1427430   0.8656700   0.1901020  )
        26           Si  tau(  26) = (   0.1457340   0.7889840   0.4876830  )
        27           Si  tau(  27) = (   0.1570360   0.2459780   0.1300710  )
        28           Si  tau(  28) = (   0.8063610   0.3945030   0.1975310  )
        29           Si  tau(  29) = (   0.5171840   0.6940800   0.0257188  )
        30           Si  tau(  30) = (   0.4412170   0.6801290   0.5310600  )
        31           Si  tau(  31) = (   0.7419320   0.4552100   0.4289670  )
        32           Si  tau(  32) = (   0.9250930   0.3114000   0.4673090  )
        33           Si  tau(  33) = (   0.2681740   0.3478780   0.6413300  )
        34           Si  tau(  34) = (   0.9536570   0.7709790   0.9735840  )
        35           Si  tau(  35) = (   0.6433190   0.2729880   0.5036860  )
        36           Si  tau(  36) = (   0.9324170   0.2161340   0.8365240  )
        37           Si  tau(  37) = (   0.0456794   0.0047020   0.6047130  )
        38           Si  tau(  38) = (   0.1123890   0.4844340   0.4792400  )
        39           Si  tau(  39) = (   0.4218460   0.1036870   0.8585270  )
        40           Si  tau(  40) = (   0.9873480   0.1758040   0.2935190  )
        41           Si  tau(  41) = (   0.0085275   0.6370150   0.1713460  )
        42           Si  tau(  42) = (   0.3135570   0.5045720   0.3975810  )
        43           Si  tau(  43) = (   0.5561200   0.0654010   0.2256980  )
        44           Si  tau(  44) = (   0.2408590   0.1150250   0.7083540  )
        45           Si  tau(  45) = (   0.3263150   0.1162940   0.2380060  )
        46           Si  tau(  46) = (   0.0630699   0.5725090   0.6807460  )
        47           Si  tau(  47) = (   0.7618100   0.5425860   0.6686890  )
        48           Si  tau(  48) = (   0.1004150   0.3946200   0.8243800  )
        49           Si  tau(  49) = (   0.4468790   0.9102490   0.4490000  )
        50           Si  tau(  50) = (   0.9599630   0.9864270   0.0678014  )
        51           Si  tau(  51) = (   0.7380240   0.0955324   0.3685560  )
        52           Si  tau(  52) = (   0.2798670   0.4339000   0.9901690  )
        53           Si  tau(  53) = (   0.8354350   0.8707140   0.7850270  )
        54           Si  tau(  54) = (   0.4874850   0.5201650   0.2135470  )
        55           Si  tau(  55) = (   0.7206330   0.8387670   0.0175753  )
        56           Si  tau(  56) = (   0.8847570   0.1463390   0.6262560  )
        57           Si  tau(  57) = (   0.9718630   0.4204410   0.0265276  )
        58           Si  tau(  58) = (   0.6749410   0.0569386   0.0173675  )
        59           Si  tau(  59) = (   0.8417490   0.9155190   0.2899290  )
        60           Si  tau(  60) = (   0.7661950   0.7050030   0.2252040  )
        61           Si  tau(  61) = (   0.6654480   0.0973647   0.7893160  )
        62           Si  tau(  62) = (   0.0620716   0.0078212   0.8559350  )
        63           Si  tau(  63) = (   0.4017560   0.2745340   0.0086813  )
        64           Si  tau(  64) = (   0.9281340   0.7732870   0.6085540  )

     number of k points=     1
                       cart. coord. in units 2pi/alat
        k(    1) = (   0.0000000   0.0000000   0.0000000), wk =   2.0000000

     Dense  grid:    90834 G-vectors     FFT dimensions: (  72,  72,  72)

     Estimated max dynamical RAM per process >     133.78 MB

     Estimated total dynamical RAM >     512.93 MB

     Initial potential from superposition of free atoms

     starting charge     255.9608, renormalised to     256.0000
     Starting wfcs are  256 randomized atomic wfcs

     total cpu time spent up to now is        4.3 secs

     Self-consistent Calculation

     iteration #  1     ecut=    30.00 Ry     beta= 0.50
     Davidson diagonalization with overlap
     ethr =  1.00E-02,  avg # of iterations =  2.0

     Threshold (ethr) on eigenvalues was too large:
     Diagonalizing with lowered threshold

     Davidson diagonalization with overlap
     ethr =  3.21E-04,  avg # of iterations =  4.0

     total cpu time spent up to now is        4.5 secs

     total energy              =    -501.18110784 Ry
     estimated scf accuracy    <       1.01572129 Ry

     iteration #  2     ecut=    30.00 Ry     beta= 0.50
     Davidson diagonalization with overlap
     ethr =  3.97E-04,  avg # of iterations =  7.0

     total cpu time spent up to now is        4.6 secs

     total energy              =    -501.03608097 Ry
     estimated scf accuracy    <       1.46707544 Ry

     iteration #  3     ecut=    30.00 Ry     beta= 0.50
     Davidson diagonalization with overlap
     ethr =  3.97E-04,  avg # of iterations =  8.0

     total cpu time spent up to now is        4.7 secs

     total energy              =    -501.19841713 Ry
     estimated scf accuracy    <       1.51886245 Ry

     iteration #  4     ecut=    30.00 Ry     beta= 0.50
     Davidson diagonalization with overlap
     ethr =  3.97E-04,  avg # of iterations =  8.0

     total cpu time spent up to now is        4.8 secs

     total energy              =    -501.31041312 Ry
     estimated scf accuracy    <       0.22582229 Ry

     iteration #  5     ecut=    30.00 Ry     beta= 0.50
     Davidson diagonalization with overlap
     c_bands:  1 eigenvalues not converged
     ethr =  8.82E-05,  avg # of iterations = 20.0

     total cpu time spent up to now is        5.0 secs

     total energy              =    -501.34248055 Ry
     estimated scf accuracy    <       0.23640020 Ry

     iteration #  6     ecut=    30.00 Ry     beta= 0.50
     Davidson diagonalization with overlap
     ethr =  8.82E-05,  avg # of iterations =  3.0

     total cpu time spent up to now is        5.1 secs

     total energy              =    -501.35839202 Ry
     estimated scf accuracy    <       0.04838590 Ry

     iteration #  7     ecut=    30.00 Ry     beta= 0.50
     Davidson diagonalization with overlap
     ethr =  1.89E-05,  avg # of iterations = 19.0

     total cpu time spent up to now is        5.2 secs

     total energy              =    -501.36336077 Ry
     estimated scf accuracy    <       0.02985382 Ry

     iteration #  8     ecut=    30.00 Ry     beta= 0.50
     Davidson diagonalization with overlap
     ethr =  1.17E-05,  avg # of iterations =  2.0

     total cpu time spent up to now is        5.3 secs

     total energy              =    -501.36322267 Ry
     estimated scf accuracy    <       0.01003305 Ry

     iteration #  9     ecut=    30.00 Ry     beta= 0.50
     Davidson diagonalization with overlap
     c_bands:  2 eigenvalues not converged
     ethr =  3.92E-06,  avg # of iterations = 20.0

     total cpu time spent up to now is        5.5 secs

     total energy              =    -501.36520626 Ry
     estimated scf accuracy    <       0.01440242 Ry

     iteration # 10     ecut=    30.00 Ry     beta= 0.50
     Davidson diagonalization with overlap
     ethr =  3.92E-06,  avg # of iterations =  8.0

     total cpu time spent up to now is        5.6 secs

     total energy              =    -501.36531215 Ry
     estimated scf accuracy    <       0.00855052 Ry

     iteration # 11     ecut=    30.00 Ry     beta= 0.50
     Davidson diagonalization with overlap
     ethr =  3.34E-06,  avg # of iterations =  6.0

     total cpu time spent up to now is        5.7 secs

     total energy              =    -501.36542902 Ry
     estimated scf accuracy    <       0.00218520 Ry

     iteration # 12     ecut=    30.00 Ry     beta= 0.50
     Davidson diagonalization with overlap
     ethr =  8.54E-07,  avg # of iterations = 12.0

     total cpu time spent up to now is        5.8 secs

     total energy              =    -501.36590980 Ry
     estimated scf accuracy    <       0.00242165 Ry

     iteration # 13     ecut=    30.00 Ry     beta= 0.50
     Davidson diagonalization with overlap
     ethr =  8.54E-07,  avg # of iterations =  3.0

     total cpu time spent up to now is        5.9 secs

     total energy              =    -501.36589533 Ry
     estimated scf accuracy    <       0.00164938 Ry

     iteration # 14     ecut=    30.00 Ry     beta= 0.50
     Davidson diagonalization with overlap
     ethr =  6.44E-07,  avg # of iterations =  2.0

     total cpu time spent up to now is        5.9 secs

     total energy              =    -501.36579401 Ry
     estimated scf accuracy    <       0.00088912 Ry

     iteration # 15     ecut=    30.00 Ry     beta= 0.50
     Davidson diagonalization with overlap
     ethr =  3.47E-07,  avg # of iterations = 17.0

     total cpu time spent up to now is        6.1 secs

     total energy              =    -501.36595734 Ry
     estimated scf accuracy    <       0.00034542 Ry

     iteration # 16     ecut=    30.00 Ry     beta= 0.50
     Davidson diagonalization with overlap
     ethr =  1.35E-07,  avg # of iterations =  5.0

     total cpu time spent up to now is        6.2 secs

     total energy              =    -501.36592628 Ry
     estimated scf accuracy    <       0.00030989 Ry

     iteration # 17     ecut=    30.00 Ry     beta= 0.50
     Davidson diagonalization with overlap
     ethr =  1.21E-07,  avg # of iterations =  8.0

     total cpu time spent up to now is        6.3 secs

     total energy              =    -501.36593964 Ry
     estimated scf accuracy    <       0.00009867 Ry

     iteration # 18     ecut=    30.00 Ry     beta= 0.50
     Davidson diagonalization with overlap
     c_bands:  2 eigenvalues not converged
     ethr =  3.85E-08,  avg # of iterations = 20.0

     total cpu time spent up to now is        6.5 secs

     total energy              =    -501.36595268 Ry
     estimated scf accuracy    <       0.00008254 Ry

     iteration # 19     ecut=    30.00 Ry     beta= 0.50
     Davidson diagonalization with overlap
     ethr =  3.22E-08,  avg # of iterations = 10.0

     total cpu time spent up to now is        6.6 secs

     total energy              =    -501.36595120 Ry
     estimated scf accuracy    <       0.00005157 Ry

     iteration # 20     ecut=    30.00 Ry     beta= 0.50
     Davidson diagonalization with overlap
     ethr =  2.01E-08,  avg # of iterations =  6.0

     total cpu time spent up to now is        6.7 secs

     total energy              =    -501.36595022 Ry
     estimated scf accuracy    <       0.00001975 Ry

     iteration # 21     ecut=    30.00 Ry     beta= 0.50
     Davidson diagonalization with overlap
     c_bands:  1 eigenvalues not converged
     ethr =  7.71E-09,  avg # of iterations = 20.0

     total cpu time spent up to now is        6.8 secs

     total energy              =    -501.36595536 Ry
     estimated scf accuracy    <       0.00004365 Ry

     iteration # 22     ecut=    30.00 Ry     beta= 0.50
     Davidson diagonalization with overlap
     ethr =  7.71E-09,  avg # of iterations =  2.0

     total cpu time spent up to now is        6.9 secs

     total energy              =    -501.36595387 Ry
     estimated scf accuracy    <       0.00003972 Ry

     iteration # 23     ecut=    30.00 Ry     beta= 0.50
     Davidson diagonalization with overlap
     ethr =  7.71E-09,  avg # of iterations =  2.0

     total cpu time spent up to now is        7.0 secs

     total energy              =    -501.36595216 Ry
     estimated scf accuracy    <       0.00003090 Ry

     iteration # 24     ecut=    30.00 Ry     beta= 0.50
     Davidson diagonalization with overlap
     c_bands:  1 eigenvalues not converged
     ethr =  7.71E-09,  avg # of iterations = 20.0

     total cpu time spent up to now is        7.1 secs

     total energy              =    -501.36595397 Ry
     estimated scf accuracy    <       0.00000477 Ry

     iteration # 25     ecut=    30.00 Ry     beta= 0.50
     Davidson diagonalization with overlap
     c_bands:  1 eigenvalues not converged
     ethr =  1.86E-09,  avg # of iterations = 20.0

     total cpu time spent up to now is        7.3 secs

     total energy              =    -501.36595495 Ry
     estimated scf accuracy    <       0.00000705 Ry

     iteration # 26     ecut=    30.00 Ry     beta= 0.50
     Davidson diagonalization with overlap
     ethr =  1.86E-09,  avg # of iterations =  3.0

     total cpu time spent up to now is        7.4 secs

     total energy              =    -501.36595494 Ry
     estimated scf accuracy    <       0.00000528 Ry

     iteration # 27     ecut=    30.00 Ry     beta= 0.50
     Davidson diagonalization with overlap
     ethr =  1.86E-09,  avg # of iterations = 10.0

     total cpu time spent up to now is        7.5 secs

     total energy              =    -501.36595429 Ry
     estimated scf accuracy    <       0.00000520 Ry

     iteration # 28     ecut=    30.00 Ry     beta= 0.50
     Davidson diagonalization with overlap
     ethr =  1.86E-09,  avg # of iterations =  3.0

     total cpu time spent up to now is        7.6 secs

     total energy              =    -501.36595459 Ry
     estimated scf accuracy    <       0.00000186 Ry

     iteration # 29     ecut=    30.00 Ry     beta= 0.50
     Davidson diagonalization with overlap
     ethr =  7.25E-10,  avg # of iterations =  2.0

     total cpu time spent up to now is        7.6 secs

     total energy              =    -501.36595463 Ry
     estimated scf accuracy    <       0.00000145 Ry

     iteration # 30     ecut=    30.00 Ry     beta= 0.50
     Davidson diagonalization with overlap
     c_bands:  1 eigenvalues not converged
     ethr =  5.68E-10,  avg # of iterations = 20.0

     total cpu time spent up to now is        7.8 secs

     End of self-consistent calculation

          k = 0.0000 0.0000 0.0000 ( 11372 PWs)   bands (ev):

    -5.3534  -4.4176  -4.2757  -4.2431  -4.0986  -4.0867  -3.9858  -3.3494
    -3.2560  -3.1998  -3.1226  -3.0799  -3.0305  -2.9454  -2.8529  -2.8076
    -2.7645  -2.5961  -2.4811  -2.1709  -2.1248  -1.9203  -1.8548  -1.7441
    -1.5996  -1.3963  -1.2288  -0.9272  -0.7915  -0.7452  -0.5359  -0.4347
    -0.2767  -0.1475  -0.1030  -0.0371   0.0365   0.1565   0.2274   0.2533
     0.3615   0.4054   0.4597   0.5287   0.6519   0.6829   0.7794   0.8848
     0.8919   0.9588   1.1206   1.2291   1.2848   1.4488   1.5354   1.5436
     1.6561   1.7379   1.9050   1.9720   2.1054   2.2052   2.2963   2.4169
     2.5833   2.6173   2.7618   2.8038   2.8808   2.9222   3.0008   3.0997
     3.1149   3.1433   3.1945   3.2331   3.3028   3.4291   3.4752   3.7482
     3.8286   4.0263   4.1105   4.2926   4.3792   4.4445   4.4956   4.5858
     4.6864   4.7444   4.8657   4.9411   4.9764   5.0303   5.1359   5.1768
     5.2220   5.3142   5.3527   5.3817   5.4190   5.4988   5.6178   5.7397
     5.7636   5.8029   5.8934   5.9246   6.0243   6.0304   6.0786   6.0893
     6.1919   6.2263   6.2663   6.3142   6.3234   6.4116   6.4847   6.5327
     6.6396   6.6848   6.7597   6.7970   6.8440   6.8785   6.9351   6.9573

     highest occupied level (ev):     6.9573

!    total energy              =    -501.36595455 Ry
     estimated scf accuracy    <       0.00000030 Ry

     The total energy is the sum of the following terms:
     one-electron contribution =     189.27179425 Ry
     hartree contribution      =      22.97849344 Ry
     xc contribution           =    -150.50685912 Ry
     ewald contribution        =    -563.10938311 Ry

     convergence has been achieved in  30 iterations

     Forces acting on atoms (cartesian axes, Ry/au):

     atom    1 type  1   force =    -0.03602676    0.02486917   -0.00009054
     atom    2 type  1   force =    -0.01670842    0.02539318    0.00162805
     atom    3 type  1   force =     0.00146303   -0.00611685   -0.01207528
     atom    4 type  1   force =    -0.02124348    0.00835705   -0.02365619
     atom    5 type  1   force =    -0.00294850   -0.00461853   -0.00242014
     atom    6 type  1   force =    -0.05546293   -0.07969418    0.00103934
     atom    7 type  1   force =     0.03953934    0.06479474    0.01856003
     atom    8 type  1   force =    -0.01700827    0.02040636    0.02843199
     atom    9 type  1   force =     0.02714309    0.01129870   -0.00887918
     atom   10 type  1   force =    -0.01597945    0.03056474    0.05877885
     atom   11 type  1   force =    -0.00702493   -0.03422061   -0.00123346
     atom   12 type  1   force =    -0.00416493   -0.02350830   -0.01168167
     atom   13 type  1   force =     0.01606114   -0.02521617    0.04442523
     atom   14 type  1   force =    -0.02948876   -0.04788704   -0.02566277
     atom   15 type  1   force =    -0.01025643    0.00273070   -0.02239523
     atom   16 type  1   force =     0.01490891    0.01659220   -0.01567042
     atom   17 type  1   force =    -0.00085567    0.02771936    0.03098769
     atom   18 type  1   force =     0.07199303    0.02161326    0.01702104
     atom   19 type  1   force =     0.05442923    0.01044613    0.02718164
     atom   20 type  1   force =     0.03877149   -0.03890402    0.04351643
     atom   21 type  1   force =    -0.01849248   -0.00459680   -0.00197276
     atom   22 type  1   force =    -0.03996973   -0.00994701   -0.02563630
     atom   23 type  1   force =     0.02265862   -0.01677314   -0.02652230
     atom   24 type  1   force =    -0.01814063    0.01795743   -0.02348227
     atom   25 type  1   force =    -0.03077962    0.00521549   -0.01857801
     atom   26 type  1   force =    -0.02252568    0.01261194   -0.00949870
     atom   27 type  1   force =    -0.01999537    0.01419141    0.02517932
     atom   28 type  1   force =    -0.02247479   -0.01191502   -0.01137330
     atom   29 type  1   force =     0.02092503    0.00129063    0.02436011
     atom   30 type  1   force =    -0.02046698   -0.00674490    0.01032719
     atom   31 type  1   force =     0.04921994    0.02440705   -0.00847468
     atom   32 type  1   force =     0.01437900   -0.00102779   -0.01233203
     atom   33 type  1   force =    -0.01122000   -0.03554811    0.00418223
     atom   34 type  1   force =     0.00605740   -0.02247987   -0.01166078
     atom   35 type  1   force =    -0.01850662   -0.03424440   -0.04299879
     atom   36 type  1   force =     0.03782957   -0.00729809    0.00848484
     atom   37 type  1   force =     0.02991161   -0.04284520   -0.00522569
     atom   38 type  1   force =    -0.02363707   -0.02852536    0.03049561
     atom   39 type  1   force =     0.00795719    0.00299604    0.03027198
     atom   40 type  1   force =    -0.01822733    0.06141217   -0.03407539
     atom   41 type  1   force =     0.00308923    0.02289301    0.01101443
     atom   42 type  1   force =     0.01188149    0.02767596   -0.03707796
     atom   43 type  1   force =     0.02017334    0.03568075   -0.00158924
     atom   44 type  1   force =    -0.00981380   -0.00664941   -0.00497790
     atom   45 type  1   force =    -0.01291192    0.01319541   -0.02460302
     atom   46 type  1   force =     0.01028194    0.03902412   -0.00017662
     atom   47 type  1   force =     0.01878522   -0.02752002    0.00553779
     atom   48 type  1   force =     0.01409682   -0.01129407    0.01139575
     atom   49 type  1   force =     0.02305271    0.00032650    0.03607772
     atom   50 type  1   force =    -0.01162324   -0.00662776    0.02271011
     atom   51 type  1   force =    -0.02494331    0.02318167    0.03393944
     atom   52 type  1   force =    -0.09556063    0.07101855   -0.01066656
     atom   53 type  1   force =     0.00885280    0.02283742    0.00635392
     atom   54 type  1   force =    -0.04694758   -0.03377111   -0.06152797
     atom   55 type  1   force =     0.00945959   -0.02824209   -0.01196463
     atom   56 type  1   force =    -0.04653588    0.02398489   -0.01541794
     atom   57 type  1   force =     0.00854358    0.00993477    0.01701027
     atom   58 type  1   force =     0.01675926    0.01417399   -0.00648826
     atom   59 type  1   force =     0.02940892   -0.01549714    0.00107476
     atom   60 type  1   force =     0.00137323    0.01050179   -0.00009147
     atom   61 type  1   force =    -0.01746159   -0.01292060    0.00338732
     atom   62 type  1   force =    -0.00422509    0.01026878   -0.01871146
     atom   63 type  1   force =     0.08537089   -0.07952988    0.00319392
     atom   64 type  1   force =     0.03725123   -0.02540189   -0.00767812

     Total force =     0.380485     Total SCF correction =     0.000672


     Computing stress (Cartesian axis) and pressure

          total   stress  (Ry/bohr**3)                   (kbar)     P=      -39.93
  -0.00032564  -0.00004217   0.00003355          -47.90       -6.20        4.94
  -0.00004217  -0.00020302   0.00002932           -6.20      -29.87        4.31
   0.00003355   0.00002932  -0.00028574            4.94        4.31      -42.03

 
     init_run     :      0.94s CPU      4.26s WALL (       1 calls)
     electrons    :      3.26s CPU      3.47s WALL (       1 calls)
     forces       :      0.03s CPU      0.03s WALL (       1 calls)
     stress       :      0.12s CPU      0.12s WALL (       1 calls)

     Called by init_run:
     wfcinit      :      0.43s CPU      3.60s WALL (       1 calls)
                                        3.60s GPU  (       1 calls)
     potinit      :      0.04s CPU      0.12s WALL (       1 calls)
     hinit0       :      0.45s CPU      0.47s WALL (       1 calls)

     Called by electrons:
     c_bands      :      2.36s CPU      2.47s WALL (      31 calls)
     sum_band     :      0.44s CPU      0.51s WALL (      31 calls)
     v_of_rho     :      0.19s CPU      0.29s WALL (      31 calls)
     mix_rho      :      0.24s CPU      0.25s WALL (      31 calls)

     Called by c_bands:
     init_us_2    :      0.07s CPU      0.09s WALL (      63 calls)
     init_us_2:gp :      0.07s CPU      0.08s WALL (      63 calls)
     regterg      :      2.13s CPU      2.22s WALL (      31 calls)

     Called by *egterg:
     rdiaghg      :      1.10s CPU      1.78s WALL (     322 calls)
                                        1.73s GPU  (     322 calls)
     h_psi        :      1.14s CPU      3.70s WALL (     324 calls)
                                        3.70s GPU  (     324 calls)
     g_psi        :      0.00s CPU      0.01s WALL (     292 calls)
                                        0.01s GPU  (     292 calls)

     Called by h_psi:
     h_psi:calbec :      0.46s CPU      2.94s WALL (     324 calls)
                                        2.94s GPU  (     324 calls)
     vloc_psi     :      0.50s CPU      0.57s WALL (     324 calls)
                                        0.57s GPU  (     324 calls)
     add_vuspsi   :      0.14s CPU      0.17s WALL (     324 calls)
                                        0.17s GPU  (     324 calls)

     General routines
     calbec       :      0.46s CPU      2.94s WALL (     329 calls)
     fft          :      0.59s CPU      0.72s WALL (     255 calls)
                                        0.13s GPU  (     161 calls)
     ffts         :      0.05s CPU      0.05s WALL (      31 calls)
     fftw         :      0.60s CPU      0.78s WALL (    3062 calls)
                                        0.67s GPU  (    3062 calls)
 
     Parallel routines
 
     PWSCF        :      4.38s CPU      7.95s WALL

 
   This run was terminated on:  15:21:39   9May2023            

=------------------------------------------------------------------------------=
   JOB DONE.
=------------------------------------------------------------------------------=
