An instance of this daemon is already running
An instance of this daemon is already running

     Program PWSCF v.7.1 starts on  9May2023 at 15:13:21 

     This program is part of the open-source Quantum ESPRESSO suite
     for quantum simulation of materials; please cite
         "P. Giannozzi et al., J. Phys.:Condens. Matter 21 395502 (2009);
         "P. Giannozzi et al., J. Phys.:Condens. Matter 29 465901 (2017);
         "P. Giannozzi et al., J. Chem. Phys. 152 154105 (2020);
          URL http://www.quantum-espresso.org", 
     in publications or presentations arising from this work. More details at
     http://www.quantum-espresso.org/quote

     Parallel version (MPI & OpenMP), running on       4 processor cores
     Number of MPI processes:                 4
     Threads/MPI process:                     1

     MPI processes distributed on     1 nodes
     7935 MiB available memory on the printing compute node when the environment starts
 
     Reading input from pw-si-32.in
Warning: card &CELL ignored
Warning: card / ignored

     Current dimensions of program PWSCF are:
     Max number of different atomic species (ntypx) = 10
     Max number of k-points (npk) =  40000
     Max angular momentum in pseudopotentials (lmaxx) =  4

     IMPORTANT: XC functional enforced from input :
     Exchange-correlation= PBE
                           (   1   4   3   4   0   0   0)
     Any further DFT definition will be discarded
     Please, verify this is what you really want


     gamma-point specific algorithms are used
 
     K-points division:     npool     =       2
     R & G space division:  proc/nbgrp/npool/nimage =       2
     Subspace diagonalization in iterative solution of the eigenvalue problem:
     a serial algorithm will be used

     Message from routine divide_et_impera:
     suboptimal parallelization: some nodes have no k-points
 
     Parallelization info
     --------------------
     sticks:   dense  smooth     PW     G-vecs:    dense   smooth      PW
     Min        1946    1946    516                91133    91133   12416
     Max        1947    1947    517                91134    91134   12421
     Sum        3893    3893   1033               182267   182267   24837
 
     Using Slab Decomposition
 


     bravais-lattice index     =            0
     lattice parameter (alat)  =      20.1773  a.u.
     unit-cell volume          =    8214.7077 (a.u.)^3
     number of atoms/cell      =           64
     number of atomic types    =            1
     number of electrons       =       256.00
     number of Kohn-Sham states=          128
     kinetic-energy cutoff     =      30.0000  Ry
     charge density cutoff     =     120.0000  Ry
     scf convergence threshold =      1.0E-06
     mixing beta               =       0.5000
     number of iterations used =            8  plain     mixing
     Exchange-correlation= PBE
                           (   1   4   3   4   0   0   0)

     GPU acceleration is ACTIVE.
     GPU-aware MPI enabled

     Message from routine print_cuda_info:
     High GPU oversubscription detected. Are you sure this is what you want?

     celldm(1)=  20.177346  celldm(2)=   0.000000  celldm(3)=   0.000000
     celldm(4)=   0.000000  celldm(5)=   0.000000  celldm(6)=   0.000000

     crystal axes: (cart. coord. in units of alat)
               a(1) = (   1.000000   0.000000   0.000000 )  
               a(2) = (   0.000000   1.000000   0.000000 )  
               a(3) = (   0.000000   0.000000   1.000000 )  

     reciprocal axes: (cart. coord. in units 2 pi/alat)
               b(1) = (  1.000000  0.000000  0.000000 )  
               b(2) = (  0.000000  1.000000  0.000000 )  
               b(3) = (  0.000000  0.000000  1.000000 )  


     PseudoPot. # 1 for Si read from file:
     /home/ppiaggi/pseudos/Si_ONCV_PBE_sr.upf
     MD5 check sum: 8553c464762ac42b85b1eed164b4d029
     Pseudo is Norm-conserving, Zval =  4.0
     Generated using ONCVPSP code by D. R. Hamann
     Using radial grid of 1510 points,  4 beta functions with: 
                l(1) =   0
                l(2) =   0
                l(3) =   1
                l(4) =   1

     atomic species   valence    mass     pseudopotential
        Si             4.00    28.08500     Si( 1.00)

     No symmetry found



   Cartesian axes

     site n.     atom                  positions (alat units)
         1           Si  tau(   1) = (   0.6231340   0.4049230   0.0462786  )
         2           Si  tau(   2) = (   0.2089530   0.2665480   0.3290010  )
         3           Si  tau(   3) = (   0.0126063   0.5649540   0.0036643  )
         4           Si  tau(   4) = (   0.6873540   0.0079066   0.5362290  )
         5           Si  tau(   5) = (   0.9601930   0.8955200   0.6806990  )
         6           Si  tau(   6) = (   0.8239690   0.8346150   0.9563680  )
         7           Si  tau(   7) = (   0.5920320   0.1550790   0.7753410  )
         8           Si  tau(   8) = (   0.6832730   0.1238810   0.2021770  )
         9           Si  tau(   9) = (   0.9331080   0.9098930   0.1774340  )
        10           Si  tau(  10) = (   0.6492980   0.0274690   0.9736990  )
        11           Si  tau(  11) = (   0.5148730   0.2257080   0.2709480  )
        12           Si  tau(  12) = (   0.6448360   0.8030830   0.4280830  )
        13           Si  tau(  13) = (   0.9022830   0.3089640   0.2004100  )
        14           Si  tau(  14) = (   0.4360270   0.7777300   0.6213360  )
        15           Si  tau(  15) = (   0.1730010   0.0894999   0.0007159  )
        16           Si  tau(  16) = (   0.4286190   0.2796400   0.0697745  )
        17           Si  tau(  17) = (   0.8659660   0.4361390   0.8028630  )
        18           Si  tau(  18) = (   0.5276660   0.6056440   0.3843600  )
        19           Si  tau(  19) = (   0.4124200   0.7396110   0.9875170  )
        20           Si  tau(  20) = (   0.5419180   0.2927870   0.5093860  )
        21           Si  tau(  21) = (   0.3861160   0.0818927   0.9755590  )
        22           Si  tau(  22) = (   0.0662462   0.7952400   0.4814680  )
        23           Si  tau(  23) = (   0.1469450   0.6483240   0.7633580  )
        24           Si  tau(  24) = (   0.0208060   0.2078660   0.5561860  )
        25           Si  tau(  25) = (   0.1983370   0.0686235   0.5834020  )
        26           Si  tau(  26) = (   0.8327740   0.4207240   0.4345970  )
        27           Si  tau(  27) = (   0.9089210   0.6772850   0.7872900  )
        28           Si  tau(  28) = (   0.2758760   0.2551340   0.7776660  )
        29           Si  tau(  29) = (   0.0837294   0.4375240   0.6987190  )
        30           Si  tau(  30) = (   0.7911910   0.6167430   0.5477680  )
        31           Si  tau(  31) = (   0.5771560   0.5089040   0.5806120  )
        32           Si  tau(  32) = (   0.0756814   0.3821030   0.0984968  )
        33           Si  tau(  33) = (   0.1856280   0.6099840   0.4742630  )
        34           Si  tau(  34) = (   0.6235370   0.7280310   0.7221770  )
        35           Si  tau(  35) = (   0.0557382   0.4054560   0.4539410  )
        36           Si  tau(  36) = (   0.8843990   0.7815190   0.3705300  )
        37           Si  tau(  37) = (   0.3526880   0.5550940   0.6360620  )
        38           Si  tau(  38) = (   0.2760350   0.4366370   0.1767800  )
        39           Si  tau(  39) = (   0.8873130   0.1809180   0.7894110  )
        40           Si  tau(  40) = (   0.8550160   0.1294990   0.4116250  )
        41           Si  tau(  41) = (   0.6024040   0.3774580   0.8233480  )
        42           Si  tau(  42) = (   0.3944920   0.4436460   0.8394790  )
        43           Si  tau(  43) = (   0.3185590   0.6260690   0.3173550  )
        44           Si  tau(  44) = (   0.3596190   0.0317268   0.7440480  )
        45           Si  tau(  45) = (   0.2517780   0.8109530   0.2271190  )
        46           Si  tau(  46) = (   0.0380597   0.1122000   0.2088470  )
        47           Si  tau(  47) = (   0.3598070   0.0509738   0.3558050  )
        48           Si  tau(  48) = (   0.4600210   0.0213422   0.5297000  )
        49           Si  tau(  49) = (   0.8724390   0.5868810   0.1902230  )
        50           Si  tau(  50) = (   0.7390710   0.9314960   0.7311440  )
        51           Si  tau(  51) = (   0.2884240   0.5776440   0.9819850  )
        52           Si  tau(  52) = (   0.5885980   0.6402510   0.9359970  )
        53           Si  tau(  53) = (   0.0839112   0.2617770   0.9055810  )
        54           Si  tau(  54) = (   0.7134510   0.7072030   0.0875018  )
        55           Si  tau(  55) = (   0.3248880   0.3149030   0.5472100  )
        56           Si  tau(  56) = (   0.7626450   0.2746390   0.5953750  )
        57           Si  tau(  57) = (   0.6693360   0.4729910   0.2598560  )
        58           Si  tau(  58) = (   0.7834360   0.2359470   0.0039613  )
        59           Si  tau(  59) = (   0.0820108   0.9121710   0.8621800  )
        60           Si  tau(  60) = (   0.1579200   0.9612970   0.3639890  )
        61           Si  tau(  61) = (   0.0963814   0.7831260   0.0578061  )
        62           Si  tau(  62) = (   0.4376790   0.9367950   0.1575340  )
        63           Si  tau(  63) = (   0.6550990   0.8889600   0.2247290  )
        64           Si  tau(  64) = (   0.2865340   0.8213740   0.7909260  )

     number of k points=     1
                       cart. coord. in units 2pi/alat
        k(    1) = (   0.0000000   0.0000000   0.0000000), wk =   2.0000000

     Dense  grid:    91134 G-vectors     FFT dimensions: (  72,  72,  72)

     Estimated max dynamical RAM per process >     134.17 MB

     Estimated total dynamical RAM >     514.44 MB

     Initial potential from superposition of free atoms

     starting charge     255.9608, renormalised to     256.0000
     Starting wfcs are  256 randomized atomic wfcs

     total cpu time spent up to now is        4.1 secs

     Self-consistent Calculation

     iteration #  1     ecut=    30.00 Ry     beta= 0.50
     Davidson diagonalization with overlap
     ethr =  1.00E-02,  avg # of iterations =  2.0

     Threshold (ethr) on eigenvalues was too large:
     Diagonalizing with lowered threshold

     Davidson diagonalization with overlap
     ethr =  4.54E-04,  avg # of iterations =  6.0

     total cpu time spent up to now is        4.3 secs

     total energy              =    -501.31913913 Ry
     estimated scf accuracy    <       1.39798811 Ry

     iteration #  2     ecut=    30.00 Ry     beta= 0.50
     Davidson diagonalization with overlap
     ethr =  5.46E-04,  avg # of iterations = 13.0

     total cpu time spent up to now is        4.4 secs

     total energy              =    -500.78495670 Ry
     estimated scf accuracy    <       6.15239283 Ry

     iteration #  3     ecut=    30.00 Ry     beta= 0.50
     Davidson diagonalization with overlap
     ethr =  5.46E-04,  avg # of iterations =  8.0

     total cpu time spent up to now is        4.5 secs

     total energy              =    -501.46542536 Ry
     estimated scf accuracy    <       1.27628660 Ry

     iteration #  4     ecut=    30.00 Ry     beta= 0.50
     Davidson diagonalization with overlap
     ethr =  4.99E-04,  avg # of iterations =  7.0

     total cpu time spent up to now is        4.6 secs

     total energy              =    -501.56241909 Ry
     estimated scf accuracy    <       0.35135308 Ry

     iteration #  5     ecut=    30.00 Ry     beta= 0.50
     Davidson diagonalization with overlap
     ethr =  1.37E-04,  avg # of iterations = 19.0

     total cpu time spent up to now is        4.8 secs

     total energy              =    -501.59320410 Ry
     estimated scf accuracy    <       0.14669402 Ry

     iteration #  6     ecut=    30.00 Ry     beta= 0.50
     Davidson diagonalization with overlap
     ethr =  5.73E-05,  avg # of iterations = 12.0

     total cpu time spent up to now is        4.9 secs

     total energy              =    -501.61213091 Ry
     estimated scf accuracy    <       0.04101010 Ry

     iteration #  7     ecut=    30.00 Ry     beta= 0.50
     Davidson diagonalization with overlap
     ethr =  1.60E-05,  avg # of iterations =  8.0

     total cpu time spent up to now is        5.0 secs

     total energy              =    -501.61635092 Ry
     estimated scf accuracy    <       0.00685087 Ry

     iteration #  8     ecut=    30.00 Ry     beta= 0.50
     Davidson diagonalization with overlap
     c_bands:  1 eigenvalues not converged
     ethr =  2.68E-06,  avg # of iterations = 20.0

     total cpu time spent up to now is        5.2 secs

     total energy              =    -501.61689772 Ry
     estimated scf accuracy    <       0.01577133 Ry

     iteration #  9     ecut=    30.00 Ry     beta= 0.50
     Davidson diagonalization with overlap
     ethr =  2.68E-06,  avg # of iterations = 19.0

     total cpu time spent up to now is        5.4 secs

     total energy              =    -501.61826572 Ry
     estimated scf accuracy    <       0.00298692 Ry

     iteration # 10     ecut=    30.00 Ry     beta= 0.50
     Davidson diagonalization with overlap
     c_bands:  1 eigenvalues not converged
     ethr =  1.17E-06,  avg # of iterations = 20.0

     total cpu time spent up to now is        5.6 secs

     total energy              =    -501.61841122 Ry
     estimated scf accuracy    <       0.00194476 Ry

     iteration # 11     ecut=    30.00 Ry     beta= 0.50
     Davidson diagonalization with overlap
     ethr =  7.60E-07,  avg # of iterations = 11.0

     total cpu time spent up to now is        5.7 secs

     total energy              =    -501.61857439 Ry
     estimated scf accuracy    <       0.00037816 Ry

     iteration # 12     ecut=    30.00 Ry     beta= 0.50
     Davidson diagonalization with overlap
     c_bands:  1 eigenvalues not converged
     ethr =  1.48E-07,  avg # of iterations = 20.0

     total cpu time spent up to now is        5.8 secs

     total energy              =    -501.61863166 Ry
     estimated scf accuracy    <       0.00040099 Ry

     iteration # 13     ecut=    30.00 Ry     beta= 0.50
     Davidson diagonalization with overlap
     ethr =  1.48E-07,  avg # of iterations = 10.0

     total cpu time spent up to now is        5.9 secs

     total energy              =    -501.61864582 Ry
     estimated scf accuracy    <       0.00013452 Ry

     iteration # 14     ecut=    30.00 Ry     beta= 0.50
     Davidson diagonalization with overlap
     ethr =  5.25E-08,  avg # of iterations =  5.0

     total cpu time spent up to now is        6.0 secs

     total energy              =    -501.61865666 Ry
     estimated scf accuracy    <       0.00003607 Ry

     iteration # 15     ecut=    30.00 Ry     beta= 0.50
     Davidson diagonalization with overlap
     ethr =  1.41E-08,  avg # of iterations = 18.0

     total cpu time spent up to now is        6.2 secs

     total energy              =    -501.61866104 Ry
     estimated scf accuracy    <       0.00002173 Ry

     iteration # 16     ecut=    30.00 Ry     beta= 0.50
     Davidson diagonalization with overlap
     ethr =  8.49E-09,  avg # of iterations = 11.0

     total cpu time spent up to now is        6.3 secs

     total energy              =    -501.61866288 Ry
     estimated scf accuracy    <       0.00000476 Ry

     iteration # 17     ecut=    30.00 Ry     beta= 0.50
     Davidson diagonalization with overlap
     ethr =  1.86E-09,  avg # of iterations = 10.0

     total cpu time spent up to now is        6.5 secs

     total energy              =    -501.61866324 Ry
     estimated scf accuracy    <       0.00000306 Ry

     iteration # 18     ecut=    30.00 Ry     beta= 0.50
     Davidson diagonalization with overlap
     ethr =  1.20E-09,  avg # of iterations = 19.0

     total cpu time spent up to now is        6.6 secs

     total energy              =    -501.61866345 Ry
     estimated scf accuracy    <       0.00000365 Ry

     iteration # 19     ecut=    30.00 Ry     beta= 0.50
     Davidson diagonalization with overlap
     ethr =  1.20E-09,  avg # of iterations =  3.0

     total cpu time spent up to now is        6.7 secs

     End of self-consistent calculation

          k = 0.0000 0.0000 0.0000 ( 11444 PWs)   bands (ev):

    -5.3863  -4.3826  -4.3400  -4.2916  -4.2393  -4.2172  -4.0717  -3.5009
    -3.4734  -3.2898  -3.2157  -3.1512  -3.1047  -3.0002  -2.9203  -2.8774
    -2.8173  -2.7770  -2.3974  -2.2133  -2.1594  -2.0500  -1.8943  -1.7763
    -1.7217  -1.5849  -1.5043  -1.1690  -0.9371  -0.7286  -0.6738  -0.5602
    -0.3619  -0.2791  -0.2697  -0.1780  -0.0605   0.0176   0.0928   0.1870
     0.2375   0.3548   0.4281   0.4825   0.6819   0.7208   0.7786   0.8261
     0.9441   1.0595   1.1810   1.2050   1.3109   1.3693   1.4560   1.5860
     1.6620   1.7319   1.7935   1.9790   2.1315   2.1445   2.2714   2.3539
     2.3951   2.5361   2.5755   2.6801   2.7454   2.7896   2.8958   2.9374
     2.9738   3.0675   3.1431   3.2669   3.3326   3.4343   3.5296   3.6378
     3.7302   4.0215   4.1164   4.1861   4.3114   4.3833   4.4449   4.5483
     4.6173   4.6752   4.7570   4.8473   4.8853   4.9380   4.9870   5.0208
     5.1494   5.1877   5.2180   5.2731   5.3588   5.3807   5.4947   5.5158
     5.5376   5.6558   5.6741   5.7183   5.7990   5.8326   5.9462   5.9655
     6.0249   6.0906   6.1555   6.2523   6.2860   6.3486   6.3801   6.4106
     6.5097   6.5996   6.6420   6.6838   6.7131   6.8028   6.8841   6.9660

     highest occupied level (ev):     6.9660

!    total energy              =    -501.61866291 Ry
     estimated scf accuracy    <       0.00000089 Ry

     The total energy is the sum of the following terms:
     one-electron contribution =     185.34761117 Ry
     hartree contribution      =      24.53918794 Ry
     xc contribution           =    -151.13443525 Ry
     ewald contribution        =    -560.37102677 Ry

     convergence has been achieved in  19 iterations

     Forces acting on atoms (cartesian axes, Ry/au):

     atom    1 type  1   force =     0.00630456   -0.02712943   -0.00108789
     atom    2 type  1   force =     0.00401642    0.00910712    0.03356057
     atom    3 type  1   force =    -0.01393313    0.07512362   -0.01445831
     atom    4 type  1   force =    -0.00706479    0.00094329   -0.03453250
     atom    5 type  1   force =     0.01168746   -0.03201859   -0.01753556
     atom    6 type  1   force =     0.02465874    0.04782384   -0.02473108
     atom    7 type  1   force =     0.01245786   -0.02305575   -0.00146487
     atom    8 type  1   force =     0.06440480   -0.05836666   -0.01301559
     atom    9 type  1   force =    -0.00324226   -0.01277102   -0.01042025
     atom   10 type  1   force =     0.01113951    0.02307583   -0.00865368
     atom   11 type  1   force =    -0.04823064    0.03328406    0.05090683
     atom   12 type  1   force =     0.01448948   -0.00639744    0.00114722
     atom   13 type  1   force =    -0.02145094   -0.03473102    0.01957047
     atom   14 type  1   force =    -0.01257675    0.00641236   -0.00858383
     atom   15 type  1   force =    -0.07097876   -0.03054240   -0.00179887
     atom   16 type  1   force =    -0.00238803    0.04638196    0.02837165
     atom   17 type  1   force =     0.01505989   -0.00187288   -0.02207927
     atom   18 type  1   force =     0.02964159    0.02500622   -0.00356920
     atom   19 type  1   force =    -0.02307041    0.11400069   -0.01509691
     atom   20 type  1   force =     0.01723197   -0.00773540   -0.02151475
     atom   21 type  1   force =     0.05080868   -0.02382110    0.02679843
     atom   22 type  1   force =    -0.01740899    0.03460749    0.05385587
     atom   23 type  1   force =    -0.02020490   -0.04538556    0.01150828
     atom   24 type  1   force =    -0.01616978   -0.02112481    0.01767184
     atom   25 type  1   force =    -0.00375468    0.02195250   -0.02094561
     atom   26 type  1   force =    -0.01937839    0.01178387   -0.04743098
     atom   27 type  1   force =     0.03678367    0.00026767    0.00886987
     atom   28 type  1   force =    -0.00186024   -0.00040193   -0.02614904
     atom   29 type  1   force =    -0.01593960   -0.00250103    0.00069669
     atom   30 type  1   force =    -0.02724031    0.02546794    0.03502470
     atom   31 type  1   force =    -0.00634341   -0.01165449    0.00365915
     atom   32 type  1   force =     0.04151374    0.00483151   -0.03352963
     atom   33 type  1   force =    -0.02609911   -0.05184229    0.08819150
     atom   34 type  1   force =     0.02720159   -0.01482241   -0.00631457
     atom   35 type  1   force =     0.01517318    0.00784598   -0.00179173
     atom   36 type  1   force =    -0.04842242   -0.02306933   -0.06214635
     atom   37 type  1   force =    -0.00798016   -0.01204144   -0.01538581
     atom   38 type  1   force =     0.01945869   -0.01266802   -0.03322127
     atom   39 type  1   force =     0.01415968    0.02969082   -0.00617118
     atom   40 type  1   force =    -0.02765952   -0.00065742   -0.00064151
     atom   41 type  1   force =     0.02346500    0.02660633   -0.02397557
     atom   42 type  1   force =    -0.01808547   -0.00645740   -0.00560010
     atom   43 type  1   force =     0.03513321   -0.02984688   -0.05089195
     atom   44 type  1   force =     0.00404887    0.04105556    0.00516713
     atom   45 type  1   force =     0.00899804    0.01947991   -0.06555587
     atom   46 type  1   force =     0.03109651   -0.01903636    0.00240210
     atom   47 type  1   force =    -0.01883170    0.04236359   -0.06894372
     atom   48 type  1   force =     0.05154283   -0.03969170    0.07862688
     atom   49 type  1   force =    -0.02914985    0.03204156    0.01816155
     atom   50 type  1   force =     0.02161685   -0.00746526    0.04709030
     atom   51 type  1   force =    -0.07225493   -0.07880377   -0.00795674
     atom   52 type  1   force =     0.00545046   -0.04584152   -0.05666996
     atom   53 type  1   force =     0.00201489   -0.00163025   -0.02103722
     atom   54 type  1   force =     0.03262706    0.02462677    0.07608054
     atom   55 type  1   force =    -0.03045820    0.00781203    0.01167443
     atom   56 type  1   force =    -0.03583413   -0.01956552    0.02235752
     atom   57 type  1   force =     0.02722943    0.00073502    0.01311011
     atom   58 type  1   force =    -0.02171018    0.00616533    0.02686436
     atom   59 type  1   force =     0.04953571    0.00792120    0.06961042
     atom   60 type  1   force =    -0.03165854    0.02619552   -0.00203875
     atom   61 type  1   force =    -0.01811981   -0.02173749    0.00176669
     atom   62 type  1   force =    -0.00181068   -0.03072396   -0.01346252
     atom   63 type  1   force =    -0.02517556    0.00325627   -0.02732438
     atom   64 type  1   force =     0.03553593   -0.00045531    0.04298191

     Total force =     0.433066     Total SCF correction =     0.001713


     Computing stress (Cartesian axis) and pressure

          total   stress  (Ry/bohr**3)                   (kbar)     P=      -24.91
  -0.00003409  -0.00003349  -0.00003067           -5.01       -4.93       -4.51
  -0.00003349  -0.00021298  -0.00005449           -4.93      -31.33       -8.02
  -0.00003067  -0.00005449  -0.00026084           -4.51       -8.02      -38.37

 
     init_run     :      1.15s CPU      4.05s WALL (       1 calls)
     electrons    :      2.44s CPU      2.59s WALL (       1 calls)
     forces       :      0.03s CPU      0.03s WALL (       1 calls)
     stress       :      0.12s CPU      0.13s WALL (       1 calls)

     Called by init_run:
     wfcinit      :      0.64s CPU      3.40s WALL (       1 calls)
                                        3.40s GPU  (       1 calls)
     potinit      :      0.04s CPU      0.12s WALL (       1 calls)
     hinit0       :      0.45s CPU      0.48s WALL (       1 calls)

     Called by electrons:
     c_bands      :      1.85s CPU      1.94s WALL (      20 calls)
     sum_band     :      0.29s CPU      0.33s WALL (      20 calls)
     v_of_rho     :      0.13s CPU      0.21s WALL (      20 calls)
     mix_rho      :      0.14s CPU      0.15s WALL (      20 calls)

     Called by c_bands:
     init_us_2    :      0.05s CPU      0.06s WALL (      41 calls)
     init_us_2:gp :      0.05s CPU      0.05s WALL (      41 calls)
     regterg      :      1.70s CPU      1.78s WALL (      20 calls)

     Called by *egterg:
     rdiaghg      :      0.93s CPU      1.51s WALL (     260 calls)
                                        1.47s GPU  (     260 calls)
     h_psi        :      1.16s CPU      3.40s WALL (     262 calls)
                                        3.40s GPU  (     262 calls)
     g_psi        :      0.00s CPU      0.01s WALL (     241 calls)
                                        0.00s GPU  (     241 calls)

     Called by h_psi:
     h_psi:calbec :      0.64s CPU      2.81s WALL (     262 calls)
                                        2.80s GPU  (     262 calls)
     vloc_psi     :      0.37s CPU      0.44s WALL (     262 calls)
                                        0.43s GPU  (     262 calls)
     add_vuspsi   :      0.12s CPU      0.15s WALL (     262 calls)
                                        0.14s GPU  (     262 calls)

     General routines
     calbec       :      0.64s CPU      2.81s WALL (     267 calls)
     fft          :      0.55s CPU      0.65s WALL (     167 calls)
                                        0.11s GPU  (     106 calls)
     ffts         :      0.03s CPU      0.03s WALL (      20 calls)
     fftw         :      0.43s CPU      0.56s WALL (    2124 calls)
                                        0.49s GPU  (    2124 calls)
 
     Parallel routines
 
     PWSCF        :      3.77s CPU      6.87s WALL

 
   This run was terminated on:  15:13:28   9May2023            

=------------------------------------------------------------------------------=
   JOB DONE.
=------------------------------------------------------------------------------=
