An instance of this daemon is already running
An instance of this daemon is already running

     Program PWSCF v.7.1 starts on  9May2023 at 15: 6:32 

     This program is part of the open-source Quantum ESPRESSO suite
     for quantum simulation of materials; please cite
         "P. Giannozzi et al., J. Phys.:Condens. Matter 21 395502 (2009);
         "P. Giannozzi et al., J. Phys.:Condens. Matter 29 465901 (2017);
         "P. Giannozzi et al., J. Chem. Phys. 152 154105 (2020);
          URL http://www.quantum-espresso.org", 
     in publications or presentations arising from this work. More details at
     http://www.quantum-espresso.org/quote

     Parallel version (MPI & OpenMP), running on       4 processor cores
     Number of MPI processes:                 4
     Threads/MPI process:                     1

     MPI processes distributed on     1 nodes
     4007 MiB available memory on the printing compute node when the environment starts
 
     Reading input from pw-si-0.in
Warning: card &CELL ignored
Warning: card / ignored

     Current dimensions of program PWSCF are:
     Max number of different atomic species (ntypx) = 10
     Max number of k-points (npk) =  40000
     Max angular momentum in pseudopotentials (lmaxx) =  4

     IMPORTANT: XC functional enforced from input :
     Exchange-correlation= PBE
                           (   1   4   3   4   0   0   0)
     Any further DFT definition will be discarded
     Please, verify this is what you really want


     gamma-point specific algorithms are used
 
     K-points division:     npool     =       2
     R & G space division:  proc/nbgrp/npool/nimage =       2
     Subspace diagonalization in iterative solution of the eigenvalue problem:
     a serial algorithm will be used

     Message from routine divide_et_impera:
     suboptimal parallelization: some nodes have no k-points
 
     Parallelization info
     --------------------
     sticks:   dense  smooth     PW     G-vecs:    dense   smooth      PW
     Min        1933    1933    515                90495    90495   12286
     Max        1936    1936    518                90500    90500   12287
     Sum        3869    3869   1033               180995   180995   24573
 
     Using Slab Decomposition
 


     bravais-lattice index     =            0
     lattice parameter (alat)  =      20.1208  a.u.
     unit-cell volume          =    8145.7810 (a.u.)^3
     number of atoms/cell      =           64
     number of atomic types    =            1
     number of electrons       =       256.00
     number of Kohn-Sham states=          128
     kinetic-energy cutoff     =      30.0000  Ry
     charge density cutoff     =     120.0000  Ry
     scf convergence threshold =      1.0E-06
     mixing beta               =       0.5000
     number of iterations used =            8  plain     mixing
     Exchange-correlation= PBE
                           (   1   4   3   4   0   0   0)

     GPU acceleration is ACTIVE.
     GPU-aware MPI enabled

     Message from routine print_cuda_info:
     High GPU oversubscription detected. Are you sure this is what you want?

     celldm(1)=  20.120754  celldm(2)=   0.000000  celldm(3)=   0.000000
     celldm(4)=   0.000000  celldm(5)=   0.000000  celldm(6)=   0.000000

     crystal axes: (cart. coord. in units of alat)
               a(1) = (   1.000000   0.000000   0.000000 )  
               a(2) = (   0.000000   1.000000   0.000000 )  
               a(3) = (   0.000000   0.000000   1.000000 )  

     reciprocal axes: (cart. coord. in units 2 pi/alat)
               b(1) = (  1.000000  0.000000  0.000000 )  
               b(2) = (  0.000000  1.000000  0.000000 )  
               b(3) = (  0.000000  0.000000  1.000000 )  


     PseudoPot. # 1 for Si read from file:
     /home/ppiaggi/pseudos/Si_ONCV_PBE_sr.upf
     MD5 check sum: 8553c464762ac42b85b1eed164b4d029
     Pseudo is Norm-conserving, Zval =  4.0
     Generated using ONCVPSP code by D. R. Hamann
     Using radial grid of 1510 points,  4 beta functions with: 
                l(1) =   0
                l(2) =   0
                l(3) =   1
                l(4) =   1

     atomic species   valence    mass     pseudopotential
        Si             4.00    28.08500     Si( 1.00)

     No symmetry found



   Cartesian axes

     site n.     atom                  positions (alat units)
         1           Si  tau(   1) = (   0.2286600   0.9373820   0.3708000  )
         2           Si  tau(   2) = (   0.6766930   0.1091700   0.5516650  )
         3           Si  tau(   3) = (   0.6692590   0.8647360   0.3562360  )
         4           Si  tau(   4) = (   0.3718290   0.0995963   0.9754070  )
         5           Si  tau(   5) = (   0.0359846   0.6421400   0.8448160  )
         6           Si  tau(   6) = (   0.5334590   0.2674130   0.2985470  )
         7           Si  tau(   7) = (   0.4790200   0.5720030   0.3875750  )
         8           Si  tau(   8) = (   0.3403730   0.8808560   0.7714220  )
         9           Si  tau(   9) = (   0.6199150   0.3416680   0.0983256  )
        10           Si  tau(  10) = (   0.8580600   0.6328960   0.2560860  )
        11           Si  tau(  11) = (   0.7607240   0.1673580   0.0335200  )
        12           Si  tau(  12) = (   0.8392770   0.9941470   0.4251530  )
        13           Si  tau(  13) = (   0.4000820   0.2720220   0.5030490  )
        14           Si  tau(  14) = (   0.0183033   0.8174000   0.2716260  )
        15           Si  tau(  15) = (   0.2807800   0.3147440   0.0127121  )
        16           Si  tau(  16) = (   0.6813270   0.6315260   0.5267610  )
        17           Si  tau(  17) = (   0.4495150   0.5810000   0.8963280  )
        18           Si  tau(  18) = (   0.9703350   0.2894610   0.3172810  )
        19           Si  tau(  19) = (   0.6708980   0.5631860   0.7210220  )
        20           Si  tau(  20) = (   0.7503290   0.5094480   0.0397552  )
        21           Si  tau(  21) = (   0.6298530   0.6700570   0.2441510  )
        22           Si  tau(  22) = (   0.0851784   0.3543970   0.6438570  )
        23           Si  tau(  23) = (   0.9726690   0.4292770   0.1481930  )
        24           Si  tau(  24) = (   0.5877300   0.7121450   0.9674030  )
        25           Si  tau(  25) = (   0.4330210   0.5195160   0.6645020  )
        26           Si  tau(  26) = (   0.8332310   0.3510280   0.5284500  )
        27           Si  tau(  27) = (   0.1189690   0.9923210   0.0200296  )
        28           Si  tau(  28) = (   0.7968250   0.0505184   0.7649810  )
        29           Si  tau(  29) = (   0.1245120   0.5396490   0.4758650  )
        30           Si  tau(  30) = (   0.1845010   0.5615410   0.2031380  )
        31           Si  tau(  31) = (   0.4490380   0.8067310   0.1562260  )
        32           Si  tau(  32) = (   0.0992153   0.4274700   0.8799870  )
        33           Si  tau(  33) = (   0.8015970   0.6746990   0.8699610  )
        34           Si  tau(  34) = (   0.7598240   0.1820370   0.2956630  )
        35           Si  tau(  35) = (   0.5600440   0.2532820   0.7398400  )
        36           Si  tau(  36) = (   0.2300920   0.3336350   0.3894110  )
        37           Si  tau(  37) = (   0.2218850   0.1699100   0.2397190  )
        38           Si  tau(  38) = (   0.3157280   0.3104470   0.7002320  )
        39           Si  tau(  39) = (   0.1554580   0.7338150   0.6667240  )
        40           Si  tau(  40) = (   0.0137327   0.0645813   0.2407590  )
        41           Si  tau(  41) = (   0.2920930   0.8433610   0.9870630  )
        42           Si  tau(  42) = (   0.5804930   0.0921643   0.8811930  )
        43           Si  tau(  43) = (   0.2501890   0.6117810   0.9993830  )
        44           Si  tau(  44) = (   0.6470880   0.9725470   0.1399780  )
        45           Si  tau(  45) = (   0.4719310   0.3695870   0.9294340  )
        46           Si  tau(  46) = (   0.4416780   0.0904527   0.2204110  )
        47           Si  tau(  47) = (   0.8296620   0.9096030   0.9532060  )
        48           Si  tau(  48) = (   0.0185006   0.1008740   0.8269840  )
        49           Si  tau(  49) = (   0.7651380   0.3493950   0.7596370  )
        50           Si  tau(  50) = (   0.9016940   0.5742290   0.4596430  )
        51           Si  tau(  51) = (   0.4232300   0.0326230   0.4560210  )
        52           Si  tau(  52) = (   0.5549220   0.8825290   0.7713270  )
        53           Si  tau(  53) = (   0.3776840   0.6927460   0.5547070  )
        54           Si  tau(  54) = (   0.9551610   0.8018500   0.5251780  )
        55           Si  tau(  55) = (   0.5331100   0.8516210   0.5401180  )
        56           Si  tau(  56) = (   0.7879700   0.8216720   0.6637650  )
        57           Si  tau(  57) = (   0.1390250   0.9661940   0.5617800  )
        58           Si  tau(  58) = (   0.6218140   0.3912160   0.4807660  )
        59           Si  tau(  59) = (   0.9953600   0.1296830   0.5576280  )
        60           Si  tau(  60) = (   0.8994170   0.3063680   0.9594220  )
        61           Si  tau(  61) = (   0.3040450   0.7320260   0.3137760  )
        62           Si  tau(  62) = (   0.0156453   0.7974350   0.0105829  )
        63           Si  tau(  63) = (   0.2573900   0.0863322   0.7632920  )
        64           Si  tau(  64) = (   0.3610580   0.4274170   0.2054240  )

     number of k points=     1
                       cart. coord. in units 2pi/alat
        k(    1) = (   0.0000000   0.0000000   0.0000000), wk =   2.0000000

     Dense  grid:    90498 G-vectors     FFT dimensions: (  72,  72,  72)

     Estimated max dynamical RAM per process >     133.20 MB

     Estimated total dynamical RAM >     510.69 MB

     Initial potential from superposition of free atoms

     starting charge     255.9608, renormalised to     256.0000
     Starting wfcs are  256 randomized atomic wfcs

     total cpu time spent up to now is        4.4 secs

     Self-consistent Calculation

     iteration #  1     ecut=    30.00 Ry     beta= 0.50
     Davidson diagonalization with overlap
     ethr =  1.00E-02,  avg # of iterations =  2.0

     Threshold (ethr) on eigenvalues was too large:
     Diagonalizing with lowered threshold

     Davidson diagonalization with overlap
     ethr =  4.81E-04,  avg # of iterations =  8.0

     total cpu time spent up to now is        4.6 secs

     total energy              =    -500.92921602 Ry
     estimated scf accuracy    <       1.59738486 Ry

     iteration #  2     ecut=    30.00 Ry     beta= 0.50
     Davidson diagonalization with overlap
     ethr =  6.24E-04,  avg # of iterations =  9.0

     total cpu time spent up to now is        4.7 secs

     total energy              =    -499.89871508 Ry
     estimated scf accuracy    <      15.22560450 Ry

     iteration #  3     ecut=    30.00 Ry     beta= 0.50
     Davidson diagonalization with overlap
     ethr =  6.24E-04,  avg # of iterations =  8.0

     total cpu time spent up to now is        4.9 secs

     total energy              =    -501.25125535 Ry
     estimated scf accuracy    <       1.19131017 Ry

     iteration #  4     ecut=    30.00 Ry     beta= 0.50
     Davidson diagonalization with overlap
     ethr =  4.65E-04,  avg # of iterations =  3.0

     total cpu time spent up to now is        5.0 secs

     total energy              =    -501.37199073 Ry
     estimated scf accuracy    <       0.30951489 Ry

     iteration #  5     ecut=    30.00 Ry     beta= 0.50
     Davidson diagonalization with overlap
     ethr =  1.21E-04,  avg # of iterations =  6.0

     total cpu time spent up to now is        5.1 secs

     total energy              =    -501.39003110 Ry
     estimated scf accuracy    <       0.13135597 Ry

     iteration #  6     ecut=    30.00 Ry     beta= 0.50
     Davidson diagonalization with overlap
     ethr =  5.13E-05,  avg # of iterations = 10.0

     total cpu time spent up to now is        5.2 secs

     total energy              =    -501.40284906 Ry
     estimated scf accuracy    <       0.14106546 Ry

     iteration #  7     ecut=    30.00 Ry     beta= 0.50
     Davidson diagonalization with overlap
     ethr =  5.13E-05,  avg # of iterations =  6.0

     total cpu time spent up to now is        5.3 secs

     total energy              =    -501.41033965 Ry
     estimated scf accuracy    <       0.01880503 Ry

     iteration #  8     ecut=    30.00 Ry     beta= 0.50
     Davidson diagonalization with overlap
     ethr =  7.35E-06,  avg # of iterations = 14.0

     total cpu time spent up to now is        5.4 secs

     total energy              =    -501.41545638 Ry
     estimated scf accuracy    <       0.02263764 Ry

     iteration #  9     ecut=    30.00 Ry     beta= 0.50
     Davidson diagonalization with overlap
     ethr =  7.35E-06,  avg # of iterations = 10.0

     total cpu time spent up to now is        5.5 secs

     total energy              =    -501.41508073 Ry
     estimated scf accuracy    <       0.01712166 Ry

     iteration # 10     ecut=    30.00 Ry     beta= 0.50
     Davidson diagonalization with overlap
     ethr =  6.69E-06,  avg # of iterations =  3.0

     total cpu time spent up to now is        5.6 secs

     total energy              =    -501.41496434 Ry
     estimated scf accuracy    <       0.00599133 Ry

     iteration # 11     ecut=    30.00 Ry     beta= 0.50
     Davidson diagonalization with overlap
     ethr =  2.34E-06,  avg # of iterations = 13.0

     total cpu time spent up to now is        5.7 secs

     total energy              =    -501.41620365 Ry
     estimated scf accuracy    <       0.00294447 Ry

     iteration # 12     ecut=    30.00 Ry     beta= 0.50
     Davidson diagonalization with overlap
     ethr =  1.15E-06,  avg # of iterations =  2.0

     total cpu time spent up to now is        5.8 secs

     total energy              =    -501.41592977 Ry
     estimated scf accuracy    <       0.00307879 Ry

     iteration # 13     ecut=    30.00 Ry     beta= 0.50
     Davidson diagonalization with overlap
     ethr =  1.15E-06,  avg # of iterations =  3.0

     total cpu time spent up to now is        5.9 secs

     total energy              =    -501.41595644 Ry
     estimated scf accuracy    <       0.00088227 Ry

     iteration # 14     ecut=    30.00 Ry     beta= 0.50
     Davidson diagonalization with overlap
     ethr =  3.45E-07,  avg # of iterations = 16.0

     total cpu time spent up to now is        6.1 secs

     total energy              =    -501.41616024 Ry
     estimated scf accuracy    <       0.00069491 Ry

     iteration # 15     ecut=    30.00 Ry     beta= 0.50
     Davidson diagonalization with overlap
     ethr =  2.71E-07,  avg # of iterations =  2.0

     total cpu time spent up to now is        6.1 secs

     total energy              =    -501.41612122 Ry
     estimated scf accuracy    <       0.00058675 Ry

     iteration # 16     ecut=    30.00 Ry     beta= 0.50
     Davidson diagonalization with overlap
     ethr =  2.29E-07,  avg # of iterations =  3.0

     total cpu time spent up to now is        6.2 secs

     total energy              =    -501.41610678 Ry
     estimated scf accuracy    <       0.00024606 Ry

     iteration # 17     ecut=    30.00 Ry     beta= 0.50
     Davidson diagonalization with overlap
     ethr =  9.61E-08,  avg # of iterations = 15.0

     total cpu time spent up to now is        6.4 secs

     total energy              =    -501.41615484 Ry
     estimated scf accuracy    <       0.00010829 Ry

     iteration # 18     ecut=    30.00 Ry     beta= 0.50
     Davidson diagonalization with overlap
     ethr =  4.23E-08,  avg # of iterations =  2.0

     total cpu time spent up to now is        6.4 secs

     total energy              =    -501.41614610 Ry
     estimated scf accuracy    <       0.00008686 Ry

     iteration # 19     ecut=    30.00 Ry     beta= 0.50
     Davidson diagonalization with overlap
     ethr =  3.39E-08,  avg # of iterations = 14.0

     total cpu time spent up to now is        6.6 secs

     total energy              =    -501.41615365 Ry
     estimated scf accuracy    <       0.00000944 Ry

     iteration # 20     ecut=    30.00 Ry     beta= 0.50
     Davidson diagonalization with overlap
     ethr =  3.69E-09,  avg # of iterations = 13.0

     total cpu time spent up to now is        6.7 secs

     total energy              =    -501.41615486 Ry
     estimated scf accuracy    <       0.00002123 Ry

     iteration # 21     ecut=    30.00 Ry     beta= 0.50
     Davidson diagonalization with overlap
     ethr =  3.69E-09,  avg # of iterations =  6.0

     total cpu time spent up to now is        6.8 secs

     total energy              =    -501.41615375 Ry
     estimated scf accuracy    <       0.00000761 Ry

     iteration # 22     ecut=    30.00 Ry     beta= 0.50
     Davidson diagonalization with overlap
     ethr =  2.97E-09,  avg # of iterations = 11.0

     total cpu time spent up to now is        6.9 secs

     total energy              =    -501.41615606 Ry
     estimated scf accuracy    <       0.00001125 Ry

     iteration # 23     ecut=    30.00 Ry     beta= 0.50
     Davidson diagonalization with overlap
     ethr =  2.97E-09,  avg # of iterations =  1.0

     total cpu time spent up to now is        7.0 secs

     total energy              =    -501.41615540 Ry
     estimated scf accuracy    <       0.00001115 Ry

     iteration # 24     ecut=    30.00 Ry     beta= 0.50
     Davidson diagonalization with overlap
     ethr =  2.97E-09,  avg # of iterations =  2.0

     total cpu time spent up to now is        7.1 secs

     total energy              =    -501.41615470 Ry
     estimated scf accuracy    <       0.00000652 Ry

     iteration # 25     ecut=    30.00 Ry     beta= 0.50
     Davidson diagonalization with overlap
     ethr =  2.55E-09,  avg # of iterations =  9.0

     total cpu time spent up to now is        7.2 secs

     End of self-consistent calculation

          k = 0.0000 0.0000 0.0000 ( 11324 PWs)   bands (ev):

    -5.3939  -4.4418  -4.3562  -4.2501  -4.2368  -4.0225  -3.8328  -3.4283
    -3.3588  -3.2804  -3.1599  -3.1195  -3.0251  -2.9457  -2.9114  -2.8436
    -2.6569  -2.6072  -2.4066  -2.2151  -2.0885  -1.9050  -1.8482  -1.6468
    -1.5651  -1.4769  -1.2921  -1.0232  -0.9442  -0.7752  -0.6289  -0.5106
    -0.3117  -0.1975  -0.1510  -0.0887   0.0563   0.1125   0.1406   0.2711
     0.2817   0.4266   0.5406   0.5836   0.6823   0.7682   0.8137   0.9455
     1.0717   1.1561   1.2130   1.2948   1.4223   1.4838   1.5329   1.6284
     1.7256   1.8004   1.9639   2.0475   2.1763   2.2532   2.3010   2.3601
     2.4851   2.5104   2.6475   2.7809   2.8114   2.8624   2.8686   3.0487
     3.1149   3.1793   3.2657   3.3150   3.4059   3.4565   3.5634   3.7034
     3.7797   4.1008   4.1875   4.2482   4.3410   4.4489   4.5975   4.6454
     4.6624   4.8266   4.8758   4.9842   5.0208   5.0341   5.0990   5.1552
     5.2748   5.2868   5.3379   5.4383   5.5112   5.5529   5.6196   5.6487
     5.7002   5.7727   5.8557   5.9143   5.9714   6.0034   6.0731   6.1286
     6.1974   6.2626   6.3038   6.3771   6.4243   6.5102   6.5268   6.6069
     6.6614   6.7059   6.7346   6.8116   6.8658   6.9242   7.0133   7.0209

     highest occupied level (ev):     7.0209

!    total energy              =    -501.41615530 Ry
     estimated scf accuracy    <       0.00000011 Ry

     The total energy is the sum of the following terms:
     one-electron contribution =     185.54954694 Ry
     hartree contribution      =      25.27185480 Ry
     xc contribution           =    -151.06042338 Ry
     ewald contribution        =    -561.17713366 Ry

     convergence has been achieved in  25 iterations

     Forces acting on atoms (cartesian axes, Ry/au):

     atom    1 type  1   force =     0.00058817   -0.00897294   -0.03027260
     atom    2 type  1   force =    -0.00366374    0.02209872    0.01064565
     atom    3 type  1   force =    -0.00449467    0.00247481   -0.01645438
     atom    4 type  1   force =    -0.00814178    0.01092695    0.01740993
     atom    5 type  1   force =    -0.00289838   -0.00912158   -0.00437741
     atom    6 type  1   force =     0.05744639    0.05821489    0.00081564
     atom    7 type  1   force =     0.03084292   -0.04300899   -0.01764603
     atom    8 type  1   force =    -0.04840918   -0.01301474   -0.00501573
     atom    9 type  1   force =    -0.00011114   -0.02422962   -0.00061949
     atom   10 type  1   force =     0.00212109   -0.01102498   -0.02978322
     atom   11 type  1   force =    -0.06555430   -0.04075350    0.05558116
     atom   12 type  1   force =     0.00221642    0.02052655   -0.01059214
     atom   13 type  1   force =     0.03992937   -0.04900266    0.00945484
     atom   14 type  1   force =     0.00229941    0.00295697   -0.02679479
     atom   15 type  1   force =    -0.02393798   -0.01935457    0.02807648
     atom   16 type  1   force =     0.01293491    0.03569156   -0.06929824
     atom   17 type  1   force =    -0.06361007   -0.05921844   -0.05735071
     atom   18 type  1   force =    -0.02638793   -0.03490810    0.02897431
     atom   19 type  1   force =    -0.02585858   -0.06359008    0.06962431
     atom   20 type  1   force =     0.03989228    0.01942396    0.02256916
     atom   21 type  1   force =     0.00879307    0.00365389   -0.01333464
     atom   22 type  1   force =     0.03984763   -0.00678385    0.00855555
     atom   23 type  1   force =    -0.00856361    0.06262119   -0.00979286
     atom   24 type  1   force =     0.05542594    0.07917702    0.02913005
     atom   25 type  1   force =     0.04066635   -0.03577203    0.06656191
     atom   26 type  1   force =     0.01569033    0.00726660    0.00730824
     atom   27 type  1   force =    -0.01315023    0.02021563    0.01196748
     atom   28 type  1   force =     0.01859305   -0.04767784   -0.00574362
     atom   29 type  1   force =     0.00552755   -0.03808472    0.02082751
     atom   30 type  1   force =    -0.01740964   -0.00311196    0.01168610
     atom   31 type  1   force =     0.01901250    0.01967075   -0.03360580
     atom   32 type  1   force =    -0.00704634   -0.02074061   -0.00105812
     atom   33 type  1   force =    -0.00110932    0.00486594   -0.00031175
     atom   34 type  1   force =     0.01090055   -0.01726016   -0.00351108
     atom   35 type  1   force =    -0.00578505    0.01950327    0.00277338
     atom   36 type  1   force =    -0.03460648    0.04635737   -0.01497549
     atom   37 type  1   force =     0.00258017   -0.01411669   -0.03556677
     atom   38 type  1   force =    -0.00466731   -0.00697058    0.00554261
     atom   39 type  1   force =     0.01362605    0.01770597   -0.02665937
     atom   40 type  1   force =     0.01245774   -0.01304539   -0.01114699
     atom   41 type  1   force =    -0.00505465    0.00473622    0.02734391
     atom   42 type  1   force =    -0.00602716   -0.02798029    0.02495106
     atom   43 type  1   force =    -0.01223175    0.01549997   -0.01469529
     atom   44 type  1   force =    -0.01099518    0.00221449    0.00491754
     atom   45 type  1   force =     0.03078916   -0.02115589   -0.02124338
     atom   46 type  1   force =    -0.01523225   -0.05310531   -0.04220087
     atom   47 type  1   force =    -0.01846216   -0.00238479   -0.00830640
     atom   48 type  1   force =     0.00993251    0.03291375    0.01335013
     atom   49 type  1   force =    -0.00344941    0.02922797   -0.00927627
     atom   50 type  1   force =    -0.00983211   -0.01690975    0.00997197
     atom   51 type  1   force =     0.00715907    0.03924938   -0.01081142
     atom   52 type  1   force =     0.04319269   -0.00335591    0.01295671
     atom   53 type  1   force =    -0.03574856    0.03705644   -0.03633543
     atom   54 type  1   force =     0.03466979    0.00978982   -0.01379444
     atom   55 type  1   force =     0.01847497    0.01526661   -0.00160697
     atom   56 type  1   force =    -0.03345499    0.01114306    0.04041688
     atom   57 type  1   force =    -0.00604500   -0.04219424    0.04887888
     atom   58 type  1   force =    -0.06948209    0.01633331   -0.02776170
     atom   59 type  1   force =    -0.01886116    0.02606001    0.00739624
     atom   60 type  1   force =     0.05104090    0.04496438   -0.07602539
     atom   61 type  1   force =     0.00213743    0.00728378    0.02032128
     atom   62 type  1   force =     0.00869775   -0.00031085    0.04911673
     atom   63 type  1   force =    -0.02508545    0.01962500    0.00389989
     atom   64 type  1   force =    -0.00211853   -0.01755516    0.01494330

     Total force =     0.394789     Total SCF correction =     0.000567


     Computing stress (Cartesian axis) and pressure

          total   stress  (Ry/bohr**3)                   (kbar)     P=      -27.37
  -0.00014766  -0.00000422  -0.00003444          -21.72       -0.62       -5.07
  -0.00000422  -0.00019169  -0.00000626           -0.62      -28.20       -0.92
  -0.00003444  -0.00000626  -0.00021878           -5.07       -0.92      -32.18

 
     init_run     :      0.92s CPU      4.37s WALL (       1 calls)
     electrons    :      2.58s CPU      2.76s WALL (       1 calls)
     forces       :      0.03s CPU      0.04s WALL (       1 calls)
     stress       :      0.12s CPU      0.12s WALL (       1 calls)

     Called by init_run:
     wfcinit      :      0.42s CPU      3.69s WALL (       1 calls)
                                        3.69s GPU  (       1 calls)
     potinit      :      0.03s CPU      0.14s WALL (       1 calls)
     hinit0       :      0.45s CPU      0.48s WALL (       1 calls)

     Called by electrons:
     c_bands      :      1.75s CPU      1.84s WALL (      26 calls)
     sum_band     :      0.40s CPU      0.47s WALL (      26 calls)
     v_of_rho     :      0.18s CPU      0.30s WALL (      26 calls)
     mix_rho      :      0.20s CPU      0.22s WALL (      26 calls)

     Called by c_bands:
     init_us_2    :      0.07s CPU      0.07s WALL (      53 calls)
     init_us_2:gp :      0.06s CPU      0.07s WALL (      53 calls)
     regterg      :      1.56s CPU      1.64s WALL (      26 calls)

     Called by *egterg:
     rdiaghg      :      0.76s CPU      1.46s WALL (     216 calls)
                                        1.42s GPU  (     216 calls)
     h_psi        :      0.98s CPU      3.61s WALL (     218 calls)
                                        3.61s GPU  (     218 calls)
     g_psi        :      0.00s CPU      0.01s WALL (     191 calls)
                                        0.00s GPU  (     191 calls)

     Called by h_psi:
     h_psi:calbec :      0.43s CPU      2.99s WALL (     218 calls)
                                        2.99s GPU  (     218 calls)
     vloc_psi     :      0.43s CPU      0.50s WALL (     218 calls)
                                        0.49s GPU  (     218 calls)
     add_vuspsi   :      0.09s CPU      0.11s WALL (     218 calls)
                                        0.11s GPU  (     218 calls)

     General routines
     calbec       :      0.44s CPU      2.99s WALL (     223 calls)
     fft          :      0.61s CPU      0.75s WALL (     215 calls)
                                        0.14s GPU  (     136 calls)
     ffts         :      0.05s CPU      0.06s WALL (      26 calls)
     fftw         :      0.51s CPU      0.67s WALL (    2476 calls)
                                        0.59s GPU  (    2476 calls)
 
     Parallel routines
 
     PWSCF        :      3.68s CPU      7.36s WALL

 
   This run was terminated on:  15: 6:39   9May2023            

=------------------------------------------------------------------------------=
   JOB DONE.
=------------------------------------------------------------------------------=
