An instance of this daemon is already running
An instance of this daemon is already running

     Program PWSCF v.7.1 starts on  9May2023 at 15:11:55 

     This program is part of the open-source Quantum ESPRESSO suite
     for quantum simulation of materials; please cite
         "P. Giannozzi et al., J. Phys.:Condens. Matter 21 395502 (2009);
         "P. Giannozzi et al., J. Phys.:Condens. Matter 29 465901 (2017);
         "P. Giannozzi et al., J. Chem. Phys. 152 154105 (2020);
          URL http://www.quantum-espresso.org", 
     in publications or presentations arising from this work. More details at
     http://www.quantum-espresso.org/quote

     Parallel version (MPI & OpenMP), running on       4 processor cores
     Number of MPI processes:                 4
     Threads/MPI process:                     1

     MPI processes distributed on     1 nodes
     7209 MiB available memory on the printing compute node when the environment starts
 
     Reading input from pw-si-25.in
Warning: card &CELL ignored
Warning: card / ignored

     Current dimensions of program PWSCF are:
     Max number of different atomic species (ntypx) = 10
     Max number of k-points (npk) =  40000
     Max angular momentum in pseudopotentials (lmaxx) =  4

     IMPORTANT: XC functional enforced from input :
     Exchange-correlation= PBE
                           (   1   4   3   4   0   0   0)
     Any further DFT definition will be discarded
     Please, verify this is what you really want


     gamma-point specific algorithms are used
 
     K-points division:     npool     =       2
     R & G space division:  proc/nbgrp/npool/nimage =       2
     Subspace diagonalization in iterative solution of the eigenvalue problem:
     a serial algorithm will be used

     Message from routine divide_et_impera:
     suboptimal parallelization: some nodes have no k-points
 
     Parallelization info
     --------------------
     sticks:   dense  smooth     PW     G-vecs:    dense   smooth      PW
     Min        1953    1953    519                91863    91863   12442
     Max        1956    1956    522                91868    91868   12443
     Sum        3909    3909   1041               183731   183731   24885
 
     Using Slab Decomposition
 


     bravais-lattice index     =            0
     lattice parameter (alat)  =      20.2257  a.u.
     unit-cell volume          =    8273.8834 (a.u.)^3
     number of atoms/cell      =           64
     number of atomic types    =            1
     number of electrons       =       256.00
     number of Kohn-Sham states=          128
     kinetic-energy cutoff     =      30.0000  Ry
     charge density cutoff     =     120.0000  Ry
     scf convergence threshold =      1.0E-06
     mixing beta               =       0.5000
     number of iterations used =            8  plain     mixing
     Exchange-correlation= PBE
                           (   1   4   3   4   0   0   0)

     GPU acceleration is ACTIVE.
     GPU-aware MPI enabled

     Message from routine print_cuda_info:
     High GPU oversubscription detected. Are you sure this is what you want?

     celldm(1)=  20.225680  celldm(2)=   0.000000  celldm(3)=   0.000000
     celldm(4)=   0.000000  celldm(5)=   0.000000  celldm(6)=   0.000000

     crystal axes: (cart. coord. in units of alat)
               a(1) = (   1.000000   0.000000   0.000000 )  
               a(2) = (   0.000000   1.000000   0.000000 )  
               a(3) = (   0.000000   0.000000   1.000000 )  

     reciprocal axes: (cart. coord. in units 2 pi/alat)
               b(1) = (  1.000000  0.000000  0.000000 )  
               b(2) = (  0.000000  1.000000  0.000000 )  
               b(3) = (  0.000000  0.000000  1.000000 )  


     PseudoPot. # 1 for Si read from file:
     /home/ppiaggi/pseudos/Si_ONCV_PBE_sr.upf
     MD5 check sum: 8553c464762ac42b85b1eed164b4d029
     Pseudo is Norm-conserving, Zval =  4.0
     Generated using ONCVPSP code by D. R. Hamann
     Using radial grid of 1510 points,  4 beta functions with: 
                l(1) =   0
                l(2) =   0
                l(3) =   1
                l(4) =   1

     atomic species   valence    mass     pseudopotential
        Si             4.00    28.08500     Si( 1.00)

     No symmetry found



   Cartesian axes

     site n.     atom                  positions (alat units)
         1           Si  tau(   1) = (   0.9522030   0.9844940   0.8585350  )
         2           Si  tau(   2) = (   0.2761020   0.9212010   0.7282110  )
         3           Si  tau(   3) = (   0.8658450   0.8007730   0.3310310  )
         4           Si  tau(   4) = (   0.7085820   0.3551250   0.3368370  )
         5           Si  tau(   5) = (   0.2878460   0.6347210   0.0423096  )
         6           Si  tau(   6) = (   0.1925790   0.0440018   0.1917190  )
         7           Si  tau(   7) = (   0.2203350   0.2679120   0.1250760  )
         8           Si  tau(   8) = (   0.2432950   0.1715080   0.7415420  )
         9           Si  tau(   9) = (   0.2741210   0.3918100   0.3068160  )
        10           Si  tau(  10) = (   0.7291180   0.9936990   0.9542670  )
        11           Si  tau(  11) = (   0.7338210   0.6916170   0.6874230  )
        12           Si  tau(  12) = (   0.5577950   0.5484210   0.9498820  )
        13           Si  tau(  13) = (   0.9673990   0.3226000   0.1065900  )
        14           Si  tau(  14) = (   0.5458450   0.6519730   0.3373560  )
        15           Si  tau(  15) = (   0.5818250   0.8110890   0.5041370  )
        16           Si  tau(  16) = (   0.9468090   0.2728620   0.6363800  )
        17           Si  tau(  17) = (   0.3291850   0.8219690   0.5530450  )
        18           Si  tau(  18) = (   0.1053210   0.8140460   0.3234340  )
        19           Si  tau(  19) = (   0.3978540   0.3332830   0.0191065  )
        20           Si  tau(  20) = (   0.6775700   0.4598570   0.1341290  )
        21           Si  tau(  21) = (   0.6275330   0.9227940   0.7532860  )
        22           Si  tau(  22) = (   0.5080580   0.6518800   0.6594390  )
        23           Si  tau(  23) = (   0.4927250   0.4371120   0.7298400  )
        24           Si  tau(  24) = (   0.8144240   0.2092860   0.4655470  )
        25           Si  tau(  25) = (   0.1499540   0.3294850   0.9087880  )
        26           Si  tau(  26) = (   0.4826420   0.0874235   0.7173310  )
        27           Si  tau(  27) = (   0.2641690   0.6251640   0.3826430  )
        28           Si  tau(  28) = (   0.3132040   0.3475030   0.6014390  )
        29           Si  tau(  29) = (   0.8383550   0.6187900   0.4992420  )
        30           Si  tau(  30) = (   0.9428690   0.4671600   0.3373940  )
        31           Si  tau(  31) = (   0.0538068   0.0675350   0.6179310  )
        32           Si  tau(  32) = (   0.0318050   0.5163730   0.6125410  )
        33           Si  tau(  33) = (   0.7573630   0.9897840   0.4313920  )
        34           Si  tau(  34) = (   0.5265330   0.7765560   0.8905260  )
        35           Si  tau(  35) = (   0.0157123   0.5342430   0.8301930  )
        36           Si  tau(  36) = (   0.2371070   0.5880900   0.6195250  )
        37           Si  tau(  37) = (   0.7254770   0.2609950   0.0089469  )
        38           Si  tau(  38) = (   0.6358780   0.5150920   0.4610890  )
        39           Si  tau(  39) = (   0.4045610   0.9905800   0.0861663  )
        40           Si  tau(  40) = (   0.9509420   0.1854480   0.8730140  )
        41           Si  tau(  41) = (   0.7207020   0.7024430   0.2130580  )
        42           Si  tau(  42) = (   0.1072010   0.6506180   0.1450210  )
        43           Si  tau(  43) = (   0.6169110   0.2491000   0.6247150  )
        44           Si  tau(  44) = (   0.5112000   0.1545040   0.9597490  )
        45           Si  tau(  45) = (   0.4159980   0.2628540   0.4353100  )
        46           Si  tau(  46) = (   0.6317080   0.8650700   0.1110890  )
        47           Si  tau(  47) = (   0.8824040   0.9721810   0.1615140  )
        48           Si  tau(  48) = (   0.7419400   0.3411940   0.8068090  )
        49           Si  tau(  49) = (   0.8508460   0.9217400   0.6454290  )
        50           Si  tau(  50) = (   0.1927680   0.0123866   0.4224540  )
        51           Si  tau(  51) = (   0.2940140   0.8251730   0.9387660  )
        52           Si  tau(  52) = (   0.9392040   0.5448820   0.1269340  )
        53           Si  tau(  53) = (   0.0953120   0.7534930   0.8077680  )
        54           Si  tau(  54) = (   0.4186350   0.5252370   0.1727250  )
        55           Si  tau(  55) = (   0.0811965   0.8698080   0.0632063  )
        56           Si  tau(  56) = (   0.7797500   0.5550750   0.8488960  )
        57           Si  tau(  57) = (   0.1110300   0.3136620   0.4347540  )
        58           Si  tau(  58) = (   0.0307474   0.7916860   0.5829310  )
        59           Si  tau(  59) = (   0.5408930   0.0025557   0.3166150  )
        60           Si  tau(  60) = (   0.2991210   0.5297850   0.8563790  )
        61           Si  tau(  61) = (   0.4127590   0.0532132   0.4926670  )
        62           Si  tau(  62) = (   0.9751930   0.1655510   0.2918460  )
        63           Si  tau(  63) = (   0.8761000   0.7415610   0.9686830  )
        64           Si  tau(  64) = (   0.5400300   0.2408870   0.2364750  )

     number of k points=     1
                       cart. coord. in units 2pi/alat
        k(    1) = (   0.0000000   0.0000000   0.0000000), wk =   2.0000000

     Dense  grid:    91866 G-vectors     FFT dimensions: (  72,  72,  72)

     Estimated max dynamical RAM per process >     135.05 MB

     Estimated total dynamical RAM >     517.75 MB

     Initial potential from superposition of free atoms

     starting charge     255.9608, renormalised to     256.0000
     Starting wfcs are  256 randomized atomic wfcs

     total cpu time spent up to now is        4.1 secs

     Self-consistent Calculation

     iteration #  1     ecut=    30.00 Ry     beta= 0.50
     Davidson diagonalization with overlap
     ethr =  1.00E-02,  avg # of iterations =  2.0

     Threshold (ethr) on eigenvalues was too large:
     Diagonalizing with lowered threshold

     Davidson diagonalization with overlap
     ethr =  3.97E-04,  avg # of iterations =  6.0

     total cpu time spent up to now is        4.3 secs

     total energy              =    -501.12148618 Ry
     estimated scf accuracy    <       1.27315730 Ry

     iteration #  2     ecut=    30.00 Ry     beta= 0.50
     Davidson diagonalization with overlap
     ethr =  4.97E-04,  avg # of iterations = 12.0

     total cpu time spent up to now is        4.4 secs

     total energy              =    -500.69092724 Ry
     estimated scf accuracy    <       5.05838683 Ry

     iteration #  3     ecut=    30.00 Ry     beta= 0.50
     Davidson diagonalization with overlap
     ethr =  4.97E-04,  avg # of iterations = 11.0

     total cpu time spent up to now is        4.5 secs

     total energy              =    -501.20229541 Ry
     estimated scf accuracy    <       1.89472096 Ry

     iteration #  4     ecut=    30.00 Ry     beta= 0.50
     Davidson diagonalization with overlap
     ethr =  4.97E-04,  avg # of iterations =  8.0

     total cpu time spent up to now is        4.7 secs

     total energy              =    -501.32685772 Ry
     estimated scf accuracy    <       0.40747355 Ry

     iteration #  5     ecut=    30.00 Ry     beta= 0.50
     Davidson diagonalization with overlap
     ethr =  1.59E-04,  avg # of iterations =  8.0

     total cpu time spent up to now is        4.8 secs

     total energy              =    -501.37017782 Ry
     estimated scf accuracy    <       0.21523039 Ry

     iteration #  6     ecut=    30.00 Ry     beta= 0.50
     Davidson diagonalization with overlap
     ethr =  8.41E-05,  avg # of iterations =  9.0

     total cpu time spent up to now is        4.9 secs

     total energy              =    -501.39619139 Ry
     estimated scf accuracy    <       0.08867942 Ry

     iteration #  7     ecut=    30.00 Ry     beta= 0.50
     Davidson diagonalization with overlap
     c_bands:  1 eigenvalues not converged
     ethr =  3.46E-05,  avg # of iterations = 20.0

     total cpu time spent up to now is        5.0 secs

     total energy              =    -501.40486714 Ry
     estimated scf accuracy    <       0.04909905 Ry

     iteration #  8     ecut=    30.00 Ry     beta= 0.50
     Davidson diagonalization with overlap
     ethr =  1.92E-05,  avg # of iterations = 15.0

     total cpu time spent up to now is        5.1 secs

     total energy              =    -501.40593992 Ry
     estimated scf accuracy    <       0.01919510 Ry

     iteration #  9     ecut=    30.00 Ry     beta= 0.50
     Davidson diagonalization with overlap
     ethr =  7.50E-06,  avg # of iterations =  9.0

     total cpu time spent up to now is        5.3 secs

     total energy              =    -501.40567869 Ry
     estimated scf accuracy    <       0.01026849 Ry

     iteration # 10     ecut=    30.00 Ry     beta= 0.50
     Davidson diagonalization with overlap
     c_bands:  1 eigenvalues not converged
     ethr =  4.01E-06,  avg # of iterations = 20.0

     total cpu time spent up to now is        5.4 secs

     total energy              =    -501.40662924 Ry
     estimated scf accuracy    <       0.01075338 Ry

     iteration # 11     ecut=    30.00 Ry     beta= 0.50
     Davidson diagonalization with overlap
     c_bands:  1 eigenvalues not converged
     ethr =  4.01E-06,  avg # of iterations = 20.0

     total cpu time spent up to now is        5.6 secs

     total energy              =    -501.40714260 Ry
     estimated scf accuracy    <       0.00674188 Ry

     iteration # 12     ecut=    30.00 Ry     beta= 0.50
     Davidson diagonalization with overlap
     ethr =  2.63E-06,  avg # of iterations =  2.0

     total cpu time spent up to now is        5.6 secs

     total energy              =    -501.40692066 Ry
     estimated scf accuracy    <       0.00435311 Ry

     iteration # 13     ecut=    30.00 Ry     beta= 0.50
     Davidson diagonalization with overlap
     c_bands:  1 eigenvalues not converged
     ethr =  1.70E-06,  avg # of iterations = 20.0

     total cpu time spent up to now is        5.8 secs

     total energy              =    -501.40751055 Ry
     estimated scf accuracy    <       0.00339544 Ry

     iteration # 14     ecut=    30.00 Ry     beta= 0.50
     Davidson diagonalization with overlap
     ethr =  1.33E-06,  avg # of iterations = 17.0

     total cpu time spent up to now is        5.9 secs

     total energy              =    -501.40759967 Ry
     estimated scf accuracy    <       0.00257804 Ry

     iteration # 15     ecut=    30.00 Ry     beta= 0.50
     Davidson diagonalization with overlap
     ethr =  1.01E-06,  avg # of iterations =  2.0

     total cpu time spent up to now is        6.0 secs

     total energy              =    -501.40742320 Ry
     estimated scf accuracy    <       0.00212609 Ry

     iteration # 16     ecut=    30.00 Ry     beta= 0.50
     Davidson diagonalization with overlap
     ethr =  8.31E-07,  avg # of iterations =  7.0

     total cpu time spent up to now is        6.1 secs

     total energy              =    -501.40741322 Ry
     estimated scf accuracy    <       0.00141333 Ry

     iteration # 17     ecut=    30.00 Ry     beta= 0.50
     Davidson diagonalization with overlap
     ethr =  5.52E-07,  avg # of iterations =  2.0

     total cpu time spent up to now is        6.2 secs

     total energy              =    -501.40739674 Ry
     estimated scf accuracy    <       0.00112989 Ry

     iteration # 18     ecut=    30.00 Ry     beta= 0.50
     Davidson diagonalization with overlap
     c_bands:  1 eigenvalues not converged
     ethr =  4.41E-07,  avg # of iterations = 20.0

     total cpu time spent up to now is        6.3 secs

     total energy              =    -501.40752239 Ry
     estimated scf accuracy    <       0.00093309 Ry

     iteration # 19     ecut=    30.00 Ry     beta= 0.50
     Davidson diagonalization with overlap
     c_bands:  1 eigenvalues not converged
     ethr =  3.64E-07,  avg # of iterations = 20.0

     total cpu time spent up to now is        6.4 secs

     total energy              =    -501.40761541 Ry
     estimated scf accuracy    <       0.00078313 Ry

     iteration # 20     ecut=    30.00 Ry     beta= 0.50
     Davidson diagonalization with overlap
     ethr =  3.06E-07,  avg # of iterations =  2.0

     total cpu time spent up to now is        6.5 secs

     total energy              =    -501.40761542 Ry
     estimated scf accuracy    <       0.00080128 Ry

     iteration # 21     ecut=    30.00 Ry     beta= 0.50
     Davidson diagonalization with overlap
     ethr =  3.06E-07,  avg # of iterations =  1.0

     total cpu time spent up to now is        6.6 secs

     total energy              =    -501.40760386 Ry
     estimated scf accuracy    <       0.00078930 Ry

     iteration # 22     ecut=    30.00 Ry     beta= 0.50
     Davidson diagonalization with overlap
     ethr =  3.06E-07,  avg # of iterations =  2.0

     total cpu time spent up to now is        6.6 secs

     total energy              =    -501.40760363 Ry
     estimated scf accuracy    <       0.00076261 Ry

     iteration # 23     ecut=    30.00 Ry     beta= 0.50
     Davidson diagonalization with overlap
     ethr =  2.98E-07,  avg # of iterations =  1.0

     total cpu time spent up to now is        6.7 secs

     total energy              =    -501.40759533 Ry
     estimated scf accuracy    <       0.00074050 Ry

     iteration # 24     ecut=    30.00 Ry     beta= 0.50
     Davidson diagonalization with overlap
     ethr =  2.89E-07,  avg # of iterations =  1.0

     total cpu time spent up to now is        6.8 secs

     total energy              =    -501.40760141 Ry
     estimated scf accuracy    <       0.00069793 Ry

     iteration # 25     ecut=    30.00 Ry     beta= 0.50
     Davidson diagonalization with overlap
     ethr =  2.73E-07,  avg # of iterations =  1.0

     total cpu time spent up to now is        6.8 secs

     total energy              =    -501.40760079 Ry
     estimated scf accuracy    <       0.00071011 Ry

     iteration # 26     ecut=    30.00 Ry     beta= 0.50
     Davidson diagonalization with overlap
     ethr =  2.73E-07,  avg # of iterations =  1.0

     total cpu time spent up to now is        6.9 secs

     total energy              =    -501.40733997 Ry
     estimated scf accuracy    <       0.00071460 Ry

     iteration # 27     ecut=    30.00 Ry     beta= 0.50
     Davidson diagonalization with overlap
     c_bands:  1 eigenvalues not converged
     ethr =  2.73E-07,  avg # of iterations = 20.0

     total cpu time spent up to now is        7.1 secs

     total energy              =    -501.40670684 Ry
     estimated scf accuracy    <       0.00969761 Ry

     iteration # 28     ecut=    30.00 Ry     beta= 0.50
     Davidson diagonalization with overlap
     c_bands:  1 eigenvalues not converged
     ethr =  2.73E-07,  avg # of iterations = 20.0

     total cpu time spent up to now is        7.3 secs

     total energy              =    -501.40746403 Ry
     estimated scf accuracy    <       0.00343580 Ry

     iteration # 29     ecut=    30.00 Ry     beta= 0.50
     Davidson diagonalization with overlap
     ethr =  2.73E-07,  avg # of iterations = 13.0

     total cpu time spent up to now is        7.4 secs

     total energy              =    -501.40745115 Ry
     estimated scf accuracy    <       0.00204814 Ry

     iteration # 30     ecut=    30.00 Ry     beta= 0.50
     Davidson diagonalization with overlap
     ethr =  2.73E-07,  avg # of iterations =  2.0

     total cpu time spent up to now is        7.4 secs

     total energy              =    -501.40743679 Ry
     estimated scf accuracy    <       0.00141634 Ry

     iteration # 31     ecut=    30.00 Ry     beta= 0.50
     Davidson diagonalization with overlap
     ethr =  2.73E-07,  avg # of iterations =  2.0

     total cpu time spent up to now is        7.5 secs

     total energy              =    -501.40739399 Ry
     estimated scf accuracy    <       0.00113265 Ry

     iteration # 32     ecut=    30.00 Ry     beta= 0.50
     Davidson diagonalization with overlap
     ethr =  2.73E-07,  avg # of iterations =  2.0

     total cpu time spent up to now is        7.6 secs

     total energy              =    -501.40729171 Ry
     estimated scf accuracy    <       0.00085282 Ry

     iteration # 33     ecut=    30.00 Ry     beta= 0.50
     Davidson diagonalization with overlap
     c_bands:  1 eigenvalues not converged
     ethr =  2.73E-07,  avg # of iterations = 20.0

     total cpu time spent up to now is        7.7 secs

     total energy              =    -501.40771635 Ry
     estimated scf accuracy    <       0.00661870 Ry

     iteration # 34     ecut=    30.00 Ry     beta= 0.50
     Davidson diagonalization with overlap
     ethr =  2.73E-07,  avg # of iterations = 19.0

     total cpu time spent up to now is        7.9 secs

     total energy              =    -501.40790907 Ry
     estimated scf accuracy    <       0.00649057 Ry

     iteration # 35     ecut=    30.00 Ry     beta= 0.50
     Davidson diagonalization with overlap
     ethr =  2.73E-07,  avg # of iterations =  1.0

     total cpu time spent up to now is        8.0 secs

     total energy              =    -501.40822023 Ry
     estimated scf accuracy    <       0.00651223 Ry

     iteration # 36     ecut=    30.00 Ry     beta= 0.50
     Davidson diagonalization with overlap
     c_bands:  1 eigenvalues not converged
     ethr =  2.73E-07,  avg # of iterations = 20.0

     total cpu time spent up to now is        8.1 secs

     total energy              =    -501.40786348 Ry
     estimated scf accuracy    <       0.00924404 Ry

     iteration # 37     ecut=    30.00 Ry     beta= 0.50
     Davidson diagonalization with overlap
     ethr =  2.73E-07,  avg # of iterations = 11.0

     total cpu time spent up to now is        8.2 secs

     total energy              =    -501.40774537 Ry
     estimated scf accuracy    <       0.00771042 Ry

     iteration # 38     ecut=    30.00 Ry     beta= 0.50
     Davidson diagonalization with overlap
     ethr =  2.73E-07,  avg # of iterations =  1.0

     total cpu time spent up to now is        8.3 secs

     total energy              =    -501.40762561 Ry
     estimated scf accuracy    <       0.00705161 Ry

     iteration # 39     ecut=    30.00 Ry     beta= 0.50
     Davidson diagonalization with overlap
     ethr =  2.73E-07,  avg # of iterations =  2.0

     total cpu time spent up to now is        8.3 secs

     total energy              =    -501.40746701 Ry
     estimated scf accuracy    <       0.00648966 Ry

     iteration # 40     ecut=    30.00 Ry     beta= 0.50
     Davidson diagonalization with overlap
     ethr =  2.73E-07,  avg # of iterations =  2.0

     total cpu time spent up to now is        8.4 secs

     total energy              =    -501.40744604 Ry
     estimated scf accuracy    <       0.00580769 Ry

     iteration # 41     ecut=    30.00 Ry     beta= 0.50
     Davidson diagonalization with overlap
     ethr =  2.73E-07,  avg # of iterations =  2.0

     total cpu time spent up to now is        8.5 secs

     total energy              =    -501.40572726 Ry
     estimated scf accuracy    <       0.00554049 Ry

     iteration # 42     ecut=    30.00 Ry     beta= 0.50
     Davidson diagonalization with overlap
     c_bands:  1 eigenvalues not converged
     ethr =  2.73E-07,  avg # of iterations = 20.0

     total cpu time spent up to now is        8.7 secs

     total energy              =    -501.40857703 Ry
     estimated scf accuracy    <       0.04860212 Ry

     iteration # 43     ecut=    30.00 Ry     beta= 0.50
     Davidson diagonalization with overlap
     c_bands:  1 eigenvalues not converged
     ethr =  2.73E-07,  avg # of iterations = 20.0

     total cpu time spent up to now is        8.8 secs

     total energy              =    -501.40603329 Ry
     estimated scf accuracy    <       0.03121235 Ry

     iteration # 44     ecut=    30.00 Ry     beta= 0.50
     Davidson diagonalization with overlap
     c_bands:  1 eigenvalues not converged
     ethr =  2.73E-07,  avg # of iterations = 20.0

     total cpu time spent up to now is        9.0 secs

     total energy              =    -501.40709514 Ry
     estimated scf accuracy    <       0.01154698 Ry

     iteration # 45     ecut=    30.00 Ry     beta= 0.50
     Davidson diagonalization with overlap
     ethr =  2.73E-07,  avg # of iterations = 12.0

     total cpu time spent up to now is        9.2 secs

     total energy              =    -501.40750243 Ry
     estimated scf accuracy    <       0.00379211 Ry

     iteration # 46     ecut=    30.00 Ry     beta= 0.50
     Davidson diagonalization with overlap
     ethr =  2.73E-07,  avg # of iterations =  7.0

     total cpu time spent up to now is        9.3 secs

     total energy              =    -501.40760836 Ry
     estimated scf accuracy    <       0.00170895 Ry

     iteration # 47     ecut=    30.00 Ry     beta= 0.50
     Davidson diagonalization with overlap
     ethr =  2.73E-07,  avg # of iterations =  2.0

     total cpu time spent up to now is        9.3 secs

     total energy              =    -501.40759440 Ry
     estimated scf accuracy    <       0.00139043 Ry

     iteration # 48     ecut=    30.00 Ry     beta= 0.50
     Davidson diagonalization with overlap
     ethr =  2.73E-07,  avg # of iterations =  2.0

     total cpu time spent up to now is        9.4 secs

     total energy              =    -501.40758518 Ry
     estimated scf accuracy    <       0.00130161 Ry

     iteration # 49     ecut=    30.00 Ry     beta= 0.50
     Davidson diagonalization with overlap
     ethr =  2.73E-07,  avg # of iterations =  1.0

     total cpu time spent up to now is        9.5 secs

     total energy              =    -501.40755360 Ry
     estimated scf accuracy    <       0.00119948 Ry

     iteration # 50     ecut=    30.00 Ry     beta= 0.50
     Davidson diagonalization with overlap
     ethr =  2.73E-07,  avg # of iterations =  1.0

     total cpu time spent up to now is        9.6 secs

     total energy              =    -501.40724892 Ry
     estimated scf accuracy    <       0.00103958 Ry

     iteration # 51     ecut=    30.00 Ry     beta= 0.50
     Davidson diagonalization with overlap
     c_bands:  1 eigenvalues not converged
     ethr =  2.73E-07,  avg # of iterations = 20.0

     total cpu time spent up to now is        9.7 secs

     total energy              =    -501.40687083 Ry
     estimated scf accuracy    <       0.02351313 Ry

     iteration # 52     ecut=    30.00 Ry     beta= 0.50
     Davidson diagonalization with overlap
     c_bands:  1 eigenvalues not converged
     ethr =  2.73E-07,  avg # of iterations = 20.0

     total cpu time spent up to now is        9.9 secs

     total energy              =    -501.40685500 Ry
     estimated scf accuracy    <       0.01355948 Ry

     iteration # 53     ecut=    30.00 Ry     beta= 0.50
     Davidson diagonalization with overlap
     c_bands:  1 eigenvalues not converged
     ethr =  2.73E-07,  avg # of iterations = 20.0

     total cpu time spent up to now is       10.1 secs

     total energy              =    -501.40746880 Ry
     estimated scf accuracy    <       0.00176657 Ry

     iteration # 54     ecut=    30.00 Ry     beta= 0.50
     Davidson diagonalization with overlap
     ethr =  2.73E-07,  avg # of iterations = 18.0

     total cpu time spent up to now is       10.2 secs

     total energy              =    -501.40757465 Ry
     estimated scf accuracy    <       0.00072943 Ry

     iteration # 55     ecut=    30.00 Ry     beta= 0.50
     Davidson diagonalization with overlap
     ethr =  2.73E-07,  avg # of iterations =  1.0

     total cpu time spent up to now is       10.3 secs

     total energy              =    -501.40757058 Ry
     estimated scf accuracy    <       0.00058758 Ry

     iteration # 56     ecut=    30.00 Ry     beta= 0.50
     Davidson diagonalization with overlap
     ethr =  2.30E-07,  avg # of iterations =  1.0

     total cpu time spent up to now is       10.3 secs

     total energy              =    -501.40756840 Ry
     estimated scf accuracy    <       0.00048860 Ry

     iteration # 57     ecut=    30.00 Ry     beta= 0.50
     Davidson diagonalization with overlap
     ethr =  1.91E-07,  avg # of iterations =  1.0

     total cpu time spent up to now is       10.4 secs

     total energy              =    -501.40756753 Ry
     estimated scf accuracy    <       0.00042559 Ry

     iteration # 58     ecut=    30.00 Ry     beta= 0.50
     Davidson diagonalization with overlap
     ethr =  1.66E-07,  avg # of iterations =  1.0

     total cpu time spent up to now is       10.5 secs

     total energy              =    -501.40756461 Ry
     estimated scf accuracy    <       0.00038109 Ry

     iteration # 59     ecut=    30.00 Ry     beta= 0.50
     Davidson diagonalization with overlap
     ethr =  1.49E-07,  avg # of iterations =  2.0

     total cpu time spent up to now is       10.5 secs

     total energy              =    -501.40751649 Ry
     estimated scf accuracy    <       0.00033288 Ry

     iteration # 60     ecut=    30.00 Ry     beta= 0.50
     Davidson diagonalization with overlap
     ethr =  1.30E-07,  avg # of iterations = 12.0

     total cpu time spent up to now is       10.7 secs

     total energy              =    -501.40754962 Ry
     estimated scf accuracy    <       0.00076489 Ry

     iteration # 61     ecut=    30.00 Ry     beta= 0.50
     Davidson diagonalization with overlap
     c_bands:  1 eigenvalues not converged
     ethr =  1.30E-07,  avg # of iterations = 20.0

     total cpu time spent up to now is       10.8 secs

     total energy              =    -501.40761061 Ry
     estimated scf accuracy    <       0.00627313 Ry

     iteration # 62     ecut=    30.00 Ry     beta= 0.50
     Davidson diagonalization with overlap
     c_bands:  1 eigenvalues not converged
     ethr =  1.30E-07,  avg # of iterations = 20.0

     total cpu time spent up to now is       11.0 secs

     total energy              =    -501.40771722 Ry
     estimated scf accuracy    <       0.00627216 Ry

     iteration # 63     ecut=    30.00 Ry     beta= 0.50
     Davidson diagonalization with overlap
     c_bands:  1 eigenvalues not converged
     ethr =  1.30E-07,  avg # of iterations = 20.0

     total cpu time spent up to now is       11.1 secs

     total energy              =    -501.40780805 Ry
     estimated scf accuracy    <       0.00883312 Ry

     iteration # 64     ecut=    30.00 Ry     beta= 0.50
     Davidson diagonalization with overlap
     c_bands:  1 eigenvalues not converged
     ethr =  1.30E-07,  avg # of iterations = 20.0

     total cpu time spent up to now is       11.3 secs

     total energy              =    -501.40788826 Ry
     estimated scf accuracy    <       0.01273421 Ry

     iteration # 65     ecut=    30.00 Ry     beta= 0.50
     Davidson diagonalization with overlap
     c_bands:  1 eigenvalues not converged
     ethr =  1.30E-07,  avg # of iterations = 20.0

     total cpu time spent up to now is       11.4 secs

     total energy              =    -501.40765875 Ry
     estimated scf accuracy    <       0.01569469 Ry

     iteration # 66     ecut=    30.00 Ry     beta= 0.50
     Davidson diagonalization with overlap
     ethr =  1.30E-07,  avg # of iterations = 15.0

     total cpu time spent up to now is       11.6 secs

     total energy              =    -501.40733450 Ry
     estimated scf accuracy    <       0.01453207 Ry

     iteration # 67     ecut=    30.00 Ry     beta= 0.50
     Davidson diagonalization with overlap
     c_bands:  1 eigenvalues not converged
     ethr =  1.30E-07,  avg # of iterations = 20.0

     total cpu time spent up to now is       11.7 secs

     total energy              =    -501.40736168 Ry
     estimated scf accuracy    <       0.00423184 Ry

     iteration # 68     ecut=    30.00 Ry     beta= 0.50
     Davidson diagonalization with overlap
     c_bands:  1 eigenvalues not converged
     ethr =  1.30E-07,  avg # of iterations = 20.0

     total cpu time spent up to now is       11.9 secs

     total energy              =    -501.40749871 Ry
     estimated scf accuracy    <       0.00074382 Ry

     iteration # 69     ecut=    30.00 Ry     beta= 0.50
     Davidson diagonalization with overlap
     ethr =  1.30E-07,  avg # of iterations = 19.0

     total cpu time spent up to now is       12.1 secs

     total energy              =    -501.40751350 Ry
     estimated scf accuracy    <       0.00116742 Ry

     iteration # 70     ecut=    30.00 Ry     beta= 0.50
     Davidson diagonalization with overlap
     ethr =  1.30E-07,  avg # of iterations = 10.0

     total cpu time spent up to now is       12.2 secs

     total energy              =    -501.40750784 Ry
     estimated scf accuracy    <       0.00141489 Ry

     iteration # 71     ecut=    30.00 Ry     beta= 0.50
     Davidson diagonalization with overlap
     ethr =  1.30E-07,  avg # of iterations =  6.0

     total cpu time spent up to now is       12.3 secs

     total energy              =    -501.40747219 Ry
     estimated scf accuracy    <       0.00072529 Ry

     iteration # 72     ecut=    30.00 Ry     beta= 0.50
     Davidson diagonalization with overlap
     c_bands:  1 eigenvalues not converged
     ethr =  1.30E-07,  avg # of iterations = 20.0

     total cpu time spent up to now is       12.5 secs

     total energy              =    -501.40740983 Ry
     estimated scf accuracy    <       0.00250771 Ry

     iteration # 73     ecut=    30.00 Ry     beta= 0.50
     Davidson diagonalization with overlap
     ethr =  1.30E-07,  avg # of iterations = 18.0

     total cpu time spent up to now is       12.6 secs

     total energy              =    -501.40752275 Ry
     estimated scf accuracy    <       0.00083186 Ry

     iteration # 74     ecut=    30.00 Ry     beta= 0.50
     Davidson diagonalization with overlap
     ethr =  1.30E-07,  avg # of iterations = 11.0

     total cpu time spent up to now is       12.8 secs

     total energy              =    -501.40751465 Ry
     estimated scf accuracy    <       0.00076001 Ry

     iteration # 75     ecut=    30.00 Ry     beta= 0.50
     Davidson diagonalization with overlap
     ethr =  1.30E-07,  avg # of iterations =  8.0

     total cpu time spent up to now is       12.9 secs

     total energy              =    -501.40752928 Ry
     estimated scf accuracy    <       0.00074726 Ry

     iteration # 76     ecut=    30.00 Ry     beta= 0.50
     Davidson diagonalization with overlap
     ethr =  1.30E-07,  avg # of iterations =  3.0

     total cpu time spent up to now is       12.9 secs

     total energy              =    -501.40753279 Ry
     estimated scf accuracy    <       0.00051877 Ry

     iteration # 77     ecut=    30.00 Ry     beta= 0.50
     Davidson diagonalization with overlap
     ethr =  1.30E-07,  avg # of iterations =  2.0

     total cpu time spent up to now is       13.0 secs

     total energy              =    -501.40751586 Ry
     estimated scf accuracy    <       0.00044232 Ry

     iteration # 78     ecut=    30.00 Ry     beta= 0.50
     Davidson diagonalization with overlap
     ethr =  1.30E-07,  avg # of iterations =  8.0

     total cpu time spent up to now is       13.1 secs

     total energy              =    -501.40752641 Ry
     estimated scf accuracy    <       0.00058451 Ry

     iteration # 79     ecut=    30.00 Ry     beta= 0.50
     Davidson diagonalization with overlap
     ethr =  1.30E-07,  avg # of iterations =  2.0

     total cpu time spent up to now is       13.2 secs

     total energy              =    -501.40751186 Ry
     estimated scf accuracy    <       0.00047827 Ry

     iteration # 80     ecut=    30.00 Ry     beta= 0.50
     Davidson diagonalization with overlap
     ethr =  1.30E-07,  avg # of iterations =  3.0

     total cpu time spent up to now is       13.3 secs

     total energy              =    -501.40736181 Ry
     estimated scf accuracy    <       0.00035245 Ry

     iteration # 81     ecut=    30.00 Ry     beta= 0.50
     Davidson diagonalization with overlap
     c_bands:  1 eigenvalues not converged
     ethr =  1.30E-07,  avg # of iterations = 20.0

     total cpu time spent up to now is       13.4 secs

     total energy              =    -501.40736089 Ry
     estimated scf accuracy    <       0.01852772 Ry

     iteration # 82     ecut=    30.00 Ry     beta= 0.50
     Davidson diagonalization with overlap
     c_bands:  1 eigenvalues not converged
     ethr =  1.30E-07,  avg # of iterations = 20.0

     total cpu time spent up to now is       13.6 secs

     total energy              =    -501.40737655 Ry
     estimated scf accuracy    <       0.00920500 Ry

     iteration # 83     ecut=    30.00 Ry     beta= 0.50
     Davidson diagonalization with overlap
     c_bands:  1 eigenvalues not converged
     ethr =  1.30E-07,  avg # of iterations = 20.0

     total cpu time spent up to now is       13.8 secs

     total energy              =    -501.40734371 Ry
     estimated scf accuracy    <       0.00690413 Ry

     iteration # 84     ecut=    30.00 Ry     beta= 0.50
     Davidson diagonalization with overlap
     c_bands:  1 eigenvalues not converged
     ethr =  1.30E-07,  avg # of iterations = 20.0

     total cpu time spent up to now is       13.9 secs

     total energy              =    -501.40735899 Ry
     estimated scf accuracy    <       0.00449011 Ry

     iteration # 85     ecut=    30.00 Ry     beta= 0.50
     Davidson diagonalization with overlap
     c_bands:  1 eigenvalues not converged
     ethr =  1.30E-07,  avg # of iterations = 20.0

     total cpu time spent up to now is       14.1 secs

     total energy              =    -501.40739594 Ry
     estimated scf accuracy    <       0.00342154 Ry

     iteration # 86     ecut=    30.00 Ry     beta= 0.50
     Davidson diagonalization with overlap
     c_bands:  1 eigenvalues not converged
     ethr =  1.30E-07,  avg # of iterations = 20.0

     total cpu time spent up to now is       14.2 secs

     total energy              =    -501.40750613 Ry
     estimated scf accuracy    <       0.00196616 Ry

     iteration # 87     ecut=    30.00 Ry     beta= 0.50
     Davidson diagonalization with overlap
     ethr =  1.30E-07,  avg # of iterations = 17.0

     total cpu time spent up to now is       14.3 secs

     total energy              =    -501.40752065 Ry
     estimated scf accuracy    <       0.00233398 Ry

     iteration # 88     ecut=    30.00 Ry     beta= 0.50
     Davidson diagonalization with overlap
     ethr =  1.30E-07,  avg # of iterations =  8.0

     total cpu time spent up to now is       14.4 secs

     total energy              =    -501.40754292 Ry
     estimated scf accuracy    <       0.00216318 Ry

     iteration # 89     ecut=    30.00 Ry     beta= 0.50
     Davidson diagonalization with overlap
     ethr =  1.30E-07,  avg # of iterations =  1.0

     total cpu time spent up to now is       14.5 secs

     total energy              =    -501.40749637 Ry
     estimated scf accuracy    <       0.00217662 Ry

     iteration # 90     ecut=    30.00 Ry     beta= 0.50
     Davidson diagonalization with overlap
     ethr =  1.30E-07,  avg # of iterations =  8.0

     total cpu time spent up to now is       14.6 secs

     total energy              =    -501.40744576 Ry
     estimated scf accuracy    <       0.00319241 Ry

     iteration # 91     ecut=    30.00 Ry     beta= 0.50
     Davidson diagonalization with overlap
     ethr =  1.30E-07,  avg # of iterations =  7.0

     total cpu time spent up to now is       14.7 secs

     total energy              =    -501.40752550 Ry
     estimated scf accuracy    <       0.00290503 Ry

     iteration # 92     ecut=    30.00 Ry     beta= 0.50
     Davidson diagonalization with overlap
     ethr =  1.30E-07,  avg # of iterations =  3.0

     total cpu time spent up to now is       14.8 secs

     total energy              =    -501.40758259 Ry
     estimated scf accuracy    <       0.00271663 Ry

     iteration # 93     ecut=    30.00 Ry     beta= 0.50
     Davidson diagonalization with overlap
     ethr =  1.30E-07,  avg # of iterations = 13.0

     total cpu time spent up to now is       14.9 secs

     total energy              =    -501.40747746 Ry
     estimated scf accuracy    <       0.00313161 Ry

     iteration # 94     ecut=    30.00 Ry     beta= 0.50
     Davidson diagonalization with overlap
     c_bands:  1 eigenvalues not converged
     ethr =  1.30E-07,  avg # of iterations = 20.0

     total cpu time spent up to now is       15.1 secs

     total energy              =    -501.40544240 Ry
     estimated scf accuracy    <       0.03765004 Ry

     iteration # 95     ecut=    30.00 Ry     beta= 0.50
     Davidson diagonalization with overlap
     c_bands:  1 eigenvalues not converged
     ethr =  1.30E-07,  avg # of iterations = 20.0

     total cpu time spent up to now is       15.3 secs

     total energy              =    -501.40589524 Ry
     estimated scf accuracy    <       0.02370975 Ry

     iteration # 96     ecut=    30.00 Ry     beta= 0.50
     Davidson diagonalization with overlap
     c_bands:  1 eigenvalues not converged
     ethr =  1.30E-07,  avg # of iterations = 20.0

     total cpu time spent up to now is       15.5 secs

     total energy              =    -501.40681584 Ry
     estimated scf accuracy    <       0.01703284 Ry

     iteration # 97     ecut=    30.00 Ry     beta= 0.50
     Davidson diagonalization with overlap
     c_bands:  1 eigenvalues not converged
     ethr =  1.30E-07,  avg # of iterations = 20.0

     total cpu time spent up to now is       15.7 secs

     total energy              =    -501.40758881 Ry
     estimated scf accuracy    <       0.00238820 Ry

     iteration # 98     ecut=    30.00 Ry     beta= 0.50
     Davidson diagonalization with overlap
     ethr =  1.30E-07,  avg # of iterations =  8.0

     total cpu time spent up to now is       15.8 secs

     total energy              =    -501.40760031 Ry
     estimated scf accuracy    <       0.00205733 Ry

     iteration # 99     ecut=    30.00 Ry     beta= 0.50
     Davidson diagonalization with overlap
     ethr =  1.30E-07,  avg # of iterations =  7.0

     total cpu time spent up to now is       15.9 secs

     total energy              =    -501.40758704 Ry
     estimated scf accuracy    <       0.00330045 Ry

     iteration #100     ecut=    30.00 Ry     beta= 0.50
     Davidson diagonalization with overlap
     c_bands:  1 eigenvalues not converged
     ethr =  1.30E-07,  avg # of iterations = 20.0

     total cpu time spent up to now is       16.0 secs

     total energy              =    -501.40768616 Ry
     estimated scf accuracy    <       0.00592382 Ry

     End of self-consistent calculation

     convergence NOT achieved after 100 iterations: stopping

     Writing config to output data dir ./pwscf.save/
     Message from routine punch:
     wavefunctions written to file
 
     init_run     :      1.18s CPU      4.04s WALL (       1 calls)
     electrons    :     11.38s CPU     11.95s WALL (       1 calls)

     Called by init_run:
     wfcinit      :      0.67s CPU      3.39s WALL (       1 calls)
                                        3.39s GPU  (       1 calls)
     potinit      :      0.04s CPU      0.12s WALL (       1 calls)
     hinit0       :      0.45s CPU      0.47s WALL (       1 calls)

     Called by electrons:
     c_bands      :      8.27s CPU      8.55s WALL (     101 calls)
     sum_band     :      1.41s CPU      1.61s WALL (     101 calls)
     v_of_rho     :      0.59s CPU      0.69s WALL (     101 calls)
     mix_rho      :      0.90s CPU      0.94s WALL (     101 calls)

     Called by c_bands:
     init_us_2    :      0.25s CPU      0.27s WALL (     203 calls)
     init_us_2:gp :      0.25s CPU      0.27s WALL (     203 calls)
     regterg      :      7.55s CPU      7.80s WALL (     101 calls)

     Called by *egterg:
     rdiaghg      :      3.82s CPU      4.44s WALL (    1214 calls)
                                        4.27s GPU  (    1214 calls)
     h_psi        :      3.35s CPU      5.64s WALL (    1216 calls)
                                        5.62s GPU  (    1216 calls)
     g_psi        :      0.00s CPU      0.03s WALL (    1114 calls)
                                        0.02s GPU  (    1114 calls)

     Called by h_psi:
     h_psi:calbec :      0.95s CPU      3.10s WALL (    1216 calls)
                                        3.09s GPU  (    1216 calls)
     vloc_psi     :      1.74s CPU      1.89s WALL (    1216 calls)
                                        1.86s GPU  (    1216 calls)
     add_vuspsi   :      0.50s CPU      0.60s WALL (    1216 calls)
                                        0.59s GPU  (    1216 calls)

     General routines
     calbec       :      0.94s CPU      3.07s WALL (    1216 calls)
     fft          :      0.91s CPU      1.05s WALL (     809 calls)
                                        0.17s GPU  (     505 calls)
     ffts         :      0.15s CPU      0.16s WALL (     101 calls)
     fftw         :      2.02s CPU      2.51s WALL (   10366 calls)
                                        2.18s GPU  (   10366 calls)
     davcio       :      0.00s CPU      0.00s WALL (      19 calls)
 
     Parallel routines
 
     PWSCF        :     12.60s CPU     16.08s WALL

 
   This run was terminated on:  15:12:11   9May2023            

=------------------------------------------------------------------------------=
   JOB DONE.
=------------------------------------------------------------------------------=
