An instance of this daemon is already running
An instance of this daemon is already running

     Program PWSCF v.7.1 starts on  9May2023 at 15:20:27 

     This program is part of the open-source Quantum ESPRESSO suite
     for quantum simulation of materials; please cite
         "P. Giannozzi et al., J. Phys.:Condens. Matter 21 395502 (2009);
         "P. Giannozzi et al., J. Phys.:Condens. Matter 29 465901 (2017);
         "P. Giannozzi et al., J. Chem. Phys. 152 154105 (2020);
          URL http://www.quantum-espresso.org", 
     in publications or presentations arising from this work. More details at
     http://www.quantum-espresso.org/quote

     Parallel version (MPI & OpenMP), running on       4 processor cores
     Number of MPI processes:                 4
     Threads/MPI process:                     1

     MPI processes distributed on     1 nodes
     7872 MiB available memory on the printing compute node when the environment starts
 
     Reading input from pw-si-64.in
Warning: card &CELL ignored
Warning: card / ignored

     Current dimensions of program PWSCF are:
     Max number of different atomic species (ntypx) = 10
     Max number of k-points (npk) =  40000
     Max angular momentum in pseudopotentials (lmaxx) =  4

     IMPORTANT: XC functional enforced from input :
     Exchange-correlation= PBE
                           (   1   4   3   4   0   0   0)
     Any further DFT definition will be discarded
     Please, verify this is what you really want


     gamma-point specific algorithms are used
 
     K-points division:     npool     =       2
     R & G space division:  proc/nbgrp/npool/nimage =       2
     Subspace diagonalization in iterative solution of the eigenvalue problem:
     a serial algorithm will be used

     Message from routine divide_et_impera:
     suboptimal parallelization: some nodes have no k-points
 
     Parallelization info
     --------------------
     sticks:   dense  smooth     PW     G-vecs:    dense   smooth      PW
     Min        1904    1904    502                88764    88764   12054
     Max        1905    1905    503                88769    88769   12057
     Sum        3809    3809   1005               177533   177533   24111
 
     Using Slab Decomposition
 


     bravais-lattice index     =            0
     lattice parameter (alat)  =      20.0086  a.u.
     unit-cell volume          =    8010.3661 (a.u.)^3
     number of atoms/cell      =           64
     number of atomic types    =            1
     number of electrons       =       256.00
     number of Kohn-Sham states=          128
     kinetic-energy cutoff     =      30.0000  Ry
     charge density cutoff     =     120.0000  Ry
     scf convergence threshold =      1.0E-06
     mixing beta               =       0.5000
     number of iterations used =            8  plain     mixing
     Exchange-correlation= PBE
                           (   1   4   3   4   0   0   0)

     GPU acceleration is ACTIVE.
     GPU-aware MPI enabled

     Message from routine print_cuda_info:
     High GPU oversubscription detected. Are you sure this is what you want?

     celldm(1)=  20.008635  celldm(2)=   0.000000  celldm(3)=   0.000000
     celldm(4)=   0.000000  celldm(5)=   0.000000  celldm(6)=   0.000000

     crystal axes: (cart. coord. in units of alat)
               a(1) = (   1.000000   0.000000   0.000000 )  
               a(2) = (   0.000000   1.000000   0.000000 )  
               a(3) = (   0.000000   0.000000   1.000000 )  

     reciprocal axes: (cart. coord. in units 2 pi/alat)
               b(1) = (  1.000000  0.000000  0.000000 )  
               b(2) = (  0.000000  1.000000  0.000000 )  
               b(3) = (  0.000000  0.000000  1.000000 )  


     PseudoPot. # 1 for Si read from file:
     /home/ppiaggi/pseudos/Si_ONCV_PBE_sr.upf
     MD5 check sum: 8553c464762ac42b85b1eed164b4d029
     Pseudo is Norm-conserving, Zval =  4.0
     Generated using ONCVPSP code by D. R. Hamann
     Using radial grid of 1510 points,  4 beta functions with: 
                l(1) =   0
                l(2) =   0
                l(3) =   1
                l(4) =   1

     atomic species   valence    mass     pseudopotential
        Si             4.00    28.08500     Si( 1.00)

     No symmetry found



   Cartesian axes

     site n.     atom                  positions (alat units)
         1           Si  tau(   1) = (   0.0844879   0.1814850   0.2568840  )
         2           Si  tau(   2) = (   0.5883840   0.3689350   0.8424620  )
         3           Si  tau(   3) = (   0.5788100   0.7325290   0.9839330  )
         4           Si  tau(   4) = (   0.8429590   0.9466480   0.7924390  )
         5           Si  tau(   5) = (   0.5015780   0.7280860   0.4169510  )
         6           Si  tau(   6) = (   0.4198810   0.5302550   0.7406380  )
         7           Si  tau(   7) = (   0.7048590   0.7579630   0.7823310  )
         8           Si  tau(   8) = (   0.0974349   0.2948350   0.5717410  )
         9           Si  tau(   9) = (   0.4265060   0.2760430   0.3997420  )
        10           Si  tau(  10) = (   0.0579164   0.8074640   0.7171590  )
        11           Si  tau(  11) = (   0.8929970   0.6462460   0.8610240  )
        12           Si  tau(  12) = (   0.6584010   0.2407910   0.1077870  )
        13           Si  tau(  13) = (   0.2052480   0.3605640   0.3747690  )
        14           Si  tau(  14) = (   0.5243850   0.1112670   0.4670390  )
        15           Si  tau(  15) = (   0.2335380   0.7302810   0.6093270  )
        16           Si  tau(  16) = (   0.6692830   0.7007520   0.5614740  )
        17           Si  tau(  17) = (   0.7343040   0.1983990   0.6309590  )
        18           Si  tau(  18) = (   0.2094770   0.7473620   0.3557540  )
        19           Si  tau(  19) = (   0.4011460   0.3284610   0.1544920  )
        20           Si  tau(  20) = (   0.0651487   0.5670920   0.4243950  )
        21           Si  tau(  21) = (   0.5582770   0.9275500   0.7664910  )
        22           Si  tau(  22) = (   0.2681340   0.1565670   0.8388190  )
        23           Si  tau(  23) = (   0.3292420   0.2762010   0.6399700  )
        24           Si  tau(  24) = (   0.7800700   0.7392200   0.2018460  )
        25           Si  tau(  25) = (   0.8949920   0.3074560   0.1080330  )
        26           Si  tau(  26) = (   0.0400489   0.5549660   0.6915720  )
        27           Si  tau(  27) = (   0.8254570   0.4387910   0.3348750  )
        28           Si  tau(  28) = (   0.2321990   0.0640153   0.4926900  )
        29           Si  tau(  29) = (   0.5569880   0.4821630   0.0498967  )
        30           Si  tau(  30) = (   0.2666790   0.9894190   0.1475820  )
        31           Si  tau(  31) = (   0.7083510   0.1146060   0.9238800  )
        32           Si  tau(  32) = (   0.2259510   0.4361150   0.7754780  )
        33           Si  tau(  33) = (   0.2480270   0.7954310   0.0175586  )
        34           Si  tau(  34) = (   0.3550780   0.9346300   0.6841540  )
        35           Si  tau(  35) = (   0.8184930   0.0287616   0.1767690  )
        36           Si  tau(  36) = (   0.9104220   0.9039670   0.0214410  )
        37           Si  tau(  37) = (   0.5493120   0.6221020   0.2273670  )
        38           Si  tau(  38) = (   0.3685500   0.5662990   0.5081120  )
        39           Si  tau(  39) = (   0.2098800   0.4678870   0.1563640  )
        40           Si  tau(  40) = (   0.8546510   0.6705500   0.3977250  )
        41           Si  tau(  41) = (   0.9802640   0.0983173   0.6784630  )
        42           Si  tau(  42) = (   0.3561160   0.9231900   0.3729110  )
        43           Si  tau(  43) = (   0.5678620   0.9666810   0.0672790  )
        44           Si  tau(  44) = (   0.6346520   0.4857290   0.6005980  )
        45           Si  tau(  45) = (   0.5272790   0.1724650   0.7712670  )
        46           Si  tau(  46) = (   0.7171180   0.1906430   0.3579270  )
        47           Si  tau(  47) = (   0.0070940   0.5121420   0.1854970  )
        48           Si  tau(  48) = (   0.3944930   0.6980840   0.8686090  )
        49           Si  tau(  49) = (   0.9120380   0.8890620   0.5276720  )
        50           Si  tau(  50) = (   0.6330660   0.9272440   0.2891650  )
        51           Si  tau(  51) = (   0.8072090   0.4353200   0.8084140  )
        52           Si  tau(  52) = (   0.8893460   0.2467170   0.8753200  )
        53           Si  tau(  53) = (   0.3493290   0.6621590   0.1745990  )
        54           Si  tau(  54) = (   0.0613340   0.9044250   0.2924810  )
        55           Si  tau(  55) = (   0.5846300   0.4196860   0.3749200  )
        56           Si  tau(  56) = (   0.9443590   0.1041260   0.4208330  )
        57           Si  tau(  57) = (   0.8758220   0.3992830   0.5697600  )
        58           Si  tau(  58) = (   0.1231470   0.3330000   0.9778420  )
        59           Si  tau(  59) = (   0.0876599   0.0761060   0.0363384  )
        60           Si  tau(  60) = (   0.0466893   0.7145780   0.1072120  )
        61           Si  tau(  61) = (   0.4080000   0.1364300   0.0249516  )
        62           Si  tau(  62) = (   0.7845770   0.5408730   0.0536152  )
        63           Si  tau(  63) = (   0.6784000   0.9452220   0.5359960  )
        64           Si  tau(  64) = (   0.1641980   0.9452800   0.8343000  )

     number of k points=     1
                       cart. coord. in units 2pi/alat
        k(    1) = (   0.0000000   0.0000000   0.0000000), wk =   2.0000000

     Dense  grid:    88767 G-vectors     FFT dimensions: (  72,  72,  72)

     Estimated max dynamical RAM per process >     131.20 MB

     Estimated total dynamical RAM >     503.14 MB

     Initial potential from superposition of free atoms

     starting charge     255.9608, renormalised to     256.0000
     Starting wfcs are  256 randomized atomic wfcs

     total cpu time spent up to now is        4.2 secs

     Self-consistent Calculation

     iteration #  1     ecut=    30.00 Ry     beta= 0.50
     Davidson diagonalization with overlap
     ethr =  1.00E-02,  avg # of iterations =  2.0

     Threshold (ethr) on eigenvalues was too large:
     Diagonalizing with lowered threshold

     Davidson diagonalization with overlap
     ethr =  3.60E-04,  avg # of iterations =  5.0

     total cpu time spent up to now is        4.4 secs

     total energy              =    -501.16634664 Ry
     estimated scf accuracy    <       1.12357979 Ry

     iteration #  2     ecut=    30.00 Ry     beta= 0.50
     Davidson diagonalization with overlap
     ethr =  4.39E-04,  avg # of iterations = 10.0

     total cpu time spent up to now is        4.5 secs

     total energy              =    -500.89529463 Ry
     estimated scf accuracy    <       2.91334069 Ry

     iteration #  3     ecut=    30.00 Ry     beta= 0.50
     Davidson diagonalization with overlap
     ethr =  4.39E-04,  avg # of iterations = 10.0

     total cpu time spent up to now is        4.7 secs

     total energy              =    -501.21764521 Ry
     estimated scf accuracy    <       1.58521813 Ry

     iteration #  4     ecut=    30.00 Ry     beta= 0.50
     Davidson diagonalization with overlap
     ethr =  4.39E-04,  avg # of iterations =  5.0

     total cpu time spent up to now is        4.7 secs

     total energy              =    -501.33789335 Ry
     estimated scf accuracy    <       0.31281635 Ry

     iteration #  5     ecut=    30.00 Ry     beta= 0.50
     Davidson diagonalization with overlap
     ethr =  1.22E-04,  avg # of iterations =  5.0

     total cpu time spent up to now is        4.8 secs

     total energy              =    -501.37401266 Ry
     estimated scf accuracy    <       0.05972328 Ry

     iteration #  6     ecut=    30.00 Ry     beta= 0.50
     Davidson diagonalization with overlap
     ethr =  2.33E-05,  avg # of iterations = 11.0

     total cpu time spent up to now is        4.9 secs

     total energy              =    -501.38228031 Ry
     estimated scf accuracy    <       0.09075839 Ry

     iteration #  7     ecut=    30.00 Ry     beta= 0.50
     Davidson diagonalization with overlap
     ethr =  2.33E-05,  avg # of iterations =  5.0

     total cpu time spent up to now is        5.0 secs

     total energy              =    -501.38880856 Ry
     estimated scf accuracy    <       0.01015820 Ry

     iteration #  8     ecut=    30.00 Ry     beta= 0.50
     Davidson diagonalization with overlap
     ethr =  3.97E-06,  avg # of iterations = 13.0

     total cpu time spent up to now is        5.2 secs

     total energy              =    -501.39068450 Ry
     estimated scf accuracy    <       0.01380383 Ry

     iteration #  9     ecut=    30.00 Ry     beta= 0.50
     Davidson diagonalization with overlap
     ethr =  3.97E-06,  avg # of iterations =  3.0

     total cpu time spent up to now is        5.2 secs

     total energy              =    -501.39046414 Ry
     estimated scf accuracy    <       0.00718237 Ry

     iteration # 10     ecut=    30.00 Ry     beta= 0.50
     Davidson diagonalization with overlap
     ethr =  2.81E-06,  avg # of iterations =  8.0

     total cpu time spent up to now is        5.3 secs

     total energy              =    -501.39087977 Ry
     estimated scf accuracy    <       0.00107784 Ry

     iteration # 11     ecut=    30.00 Ry     beta= 0.50
     Davidson diagonalization with overlap
     ethr =  4.21E-07,  avg # of iterations =  6.0

     total cpu time spent up to now is        5.4 secs

     total energy              =    -501.39114665 Ry
     estimated scf accuracy    <       0.00147409 Ry

     iteration # 12     ecut=    30.00 Ry     beta= 0.50
     Davidson diagonalization with overlap
     ethr =  4.21E-07,  avg # of iterations =  2.0

     total cpu time spent up to now is        5.5 secs

     total energy              =    -501.39106730 Ry
     estimated scf accuracy    <       0.00077406 Ry

     iteration # 13     ecut=    30.00 Ry     beta= 0.50
     Davidson diagonalization with overlap
     ethr =  3.02E-07,  avg # of iterations =  3.0

     total cpu time spent up to now is        5.6 secs

     total energy              =    -501.39112251 Ry
     estimated scf accuracy    <       0.00005309 Ry

     iteration # 14     ecut=    30.00 Ry     beta= 0.50
     Davidson diagonalization with overlap
     ethr =  2.07E-08,  avg # of iterations = 15.0

     total cpu time spent up to now is        5.8 secs

     total energy              =    -501.39115458 Ry
     estimated scf accuracy    <       0.00062780 Ry

     iteration # 15     ecut=    30.00 Ry     beta= 0.50
     Davidson diagonalization with overlap
     ethr =  2.07E-08,  avg # of iterations =  8.0

     total cpu time spent up to now is        5.9 secs

     total energy              =    -501.39115092 Ry
     estimated scf accuracy    <       0.00020940 Ry

     iteration # 16     ecut=    30.00 Ry     beta= 0.50
     Davidson diagonalization with overlap
     ethr =  2.07E-08,  avg # of iterations =  6.0

     total cpu time spent up to now is        6.0 secs

     total energy              =    -501.39114882 Ry
     estimated scf accuracy    <       0.00005740 Ry

     iteration # 17     ecut=    30.00 Ry     beta= 0.50
     Davidson diagonalization with overlap
     ethr =  2.07E-08,  avg # of iterations =  9.0

     total cpu time spent up to now is        6.1 secs

     total energy              =    -501.39115859 Ry
     estimated scf accuracy    <       0.00001162 Ry

     iteration # 18     ecut=    30.00 Ry     beta= 0.50
     Davidson diagonalization with overlap
     ethr =  4.54E-09,  avg # of iterations =  8.0

     total cpu time spent up to now is        6.2 secs

     total energy              =    -501.39116055 Ry
     estimated scf accuracy    <       0.00001626 Ry

     iteration # 19     ecut=    30.00 Ry     beta= 0.50
     Davidson diagonalization with overlap
     ethr =  4.54E-09,  avg # of iterations =  2.0

     total cpu time spent up to now is        6.2 secs

     total energy              =    -501.39115822 Ry
     estimated scf accuracy    <       0.00002289 Ry

     iteration # 20     ecut=    30.00 Ry     beta= 0.50
     Davidson diagonalization with overlap
     ethr =  4.54E-09,  avg # of iterations =  2.0

     total cpu time spent up to now is        6.3 secs

     total energy              =    -501.39115834 Ry
     estimated scf accuracy    <       0.00000928 Ry

     iteration # 21     ecut=    30.00 Ry     beta= 0.50
     Davidson diagonalization with overlap
     ethr =  3.63E-09,  avg # of iterations =  2.0

     total cpu time spent up to now is        6.4 secs

     total energy              =    -501.39115806 Ry
     estimated scf accuracy    <       0.00000442 Ry

     iteration # 22     ecut=    30.00 Ry     beta= 0.50
     Davidson diagonalization with overlap
     ethr =  1.73E-09,  avg # of iterations =  9.0

     total cpu time spent up to now is        6.5 secs

     End of self-consistent calculation

          k = 0.0000 0.0000 0.0000 ( 11072 PWs)   bands (ev):

    -5.2284  -4.2466  -4.1080  -4.0864  -4.0235  -3.9680  -3.8645  -3.2743
    -3.1161  -3.1127  -2.9877  -2.9596  -2.8662  -2.8080  -2.6988  -2.6501
    -2.5580  -2.4680  -2.3799  -1.9919  -1.8219  -1.7075  -1.5959  -1.4525
    -1.3503  -1.2806  -1.2056  -0.7526  -0.6684  -0.4841  -0.3959  -0.2875
    -0.1101   0.0381   0.1363   0.2179   0.2507   0.3349   0.4395   0.4932
     0.5566   0.6354   0.7228   0.8067   0.8868   0.9705   1.0520   1.1523
     1.2250   1.2570   1.3396   1.4648   1.5076   1.6069   1.7847   1.8761
     1.9341   2.0335   2.1746   2.2298   2.2570   2.3348   2.4391   2.5514
     2.7050   2.7347   2.8181   2.8937   2.9630   3.0514   3.0897   3.1198
     3.1820   3.2619   3.3696   3.4699   3.4934   3.5798   3.6990   3.7926
     3.8445   4.3864   4.4833   4.5803   4.6444   4.7188   4.7958   4.8865
     5.0141   5.0626   5.0941   5.1503   5.2492   5.2734   5.3903   5.4673
     5.5090   5.5554   5.5795   5.6389   5.7315   5.7690   5.8464   5.9427
     5.9691   6.0436   6.0974   6.1441   6.2194   6.2606   6.3210   6.3778
     6.4012   6.4780   6.5132   6.5688   6.6516   6.6667   6.7682   6.8357
     6.8558   6.8790   6.9387   7.0062   7.0328   7.1030   7.1518   7.1850

     highest occupied level (ev):     7.1850

!    total energy              =    -501.39115830 Ry
     estimated scf accuracy    <       0.00000065 Ry

     The total energy is the sum of the following terms:
     one-electron contribution =     197.46579669 Ry
     hartree contribution      =      21.18489272 Ry
     xc contribution           =    -151.05916909 Ry
     ewald contribution        =    -568.98267862 Ry

     convergence has been achieved in  22 iterations

     Forces acting on atoms (cartesian axes, Ry/au):

     atom    1 type  1   force =    -0.01471800    0.01268654   -0.00728555
     atom    2 type  1   force =    -0.00122936    0.03708105    0.00832007
     atom    3 type  1   force =     0.00941663    0.00363501   -0.01406467
     atom    4 type  1   force =     0.00166495   -0.00141332    0.02667134
     atom    5 type  1   force =    -0.01865609    0.04806691    0.00483737
     atom    6 type  1   force =     0.03925891   -0.03154226   -0.04423168
     atom    7 type  1   force =     0.03382555   -0.00743824    0.01514667
     atom    8 type  1   force =    -0.01247601   -0.01426757    0.00726856
     atom    9 type  1   force =    -0.09966739    0.06967446   -0.05649722
     atom   10 type  1   force =    -0.08349831   -0.04301767   -0.05279762
     atom   11 type  1   force =     0.00336629   -0.00580658    0.01172328
     atom   12 type  1   force =     0.01896140    0.01375675    0.02226956
     atom   13 type  1   force =     0.00217196   -0.00014866   -0.01361681
     atom   14 type  1   force =     0.06915243   -0.10208946    0.02794327
     atom   15 type  1   force =     0.02358852    0.00522697   -0.02891104
     atom   16 type  1   force =     0.04498426    0.01057850   -0.00297836
     atom   17 type  1   force =     0.01677163   -0.00772542   -0.01183208
     atom   18 type  1   force =    -0.00000000   -0.03534616    0.00309660
     atom   19 type  1   force =     0.02059298   -0.00387922    0.00835057
     atom   20 type  1   force =    -0.01012770    0.01161498   -0.00448676
     atom   21 type  1   force =    -0.01646261    0.03714538   -0.00398917
     atom   22 type  1   force =    -0.01570368    0.00669445    0.02131758
     atom   23 type  1   force =    -0.01947903   -0.03397972    0.01526483
     atom   24 type  1   force =    -0.02897170    0.00213682   -0.01232922
     atom   25 type  1   force =     0.00649282    0.00600520    0.00818767
     atom   26 type  1   force =     0.00358030    0.01445172   -0.02237724
     atom   27 type  1   force =     0.00033551   -0.00112125    0.01744706
     atom   28 type  1   force =     0.01291616    0.00857038    0.04006515
     atom   29 type  1   force =    -0.00086197   -0.03248922   -0.03401565
     atom   30 type  1   force =     0.00159520   -0.00622862    0.02248733
     atom   31 type  1   force =    -0.00094393   -0.02677293   -0.01244743
     atom   32 type  1   force =    -0.05430602   -0.03735548    0.01568872
     atom   33 type  1   force =    -0.01167363   -0.00276982   -0.00492026
     atom   34 type  1   force =    -0.04650015   -0.01311092   -0.04166177
     atom   35 type  1   force =    -0.02435072    0.02627728    0.03770417
     atom   36 type  1   force =     0.03669969   -0.04207257   -0.01590604
     atom   37 type  1   force =     0.06430554   -0.00972086    0.02776880
     atom   38 type  1   force =    -0.01220570   -0.00708268    0.02523606
     atom   39 type  1   force =     0.08210898   -0.01147442    0.01383087
     atom   40 type  1   force =    -0.00148964    0.01405961    0.04316667
     atom   41 type  1   force =    -0.01572193    0.02638767    0.01312171
     atom   42 type  1   force =     0.03340910   -0.01103908   -0.02633998
     atom   43 type  1   force =     0.01079293   -0.00833665    0.00087954
     atom   44 type  1   force =    -0.00470768   -0.01225233   -0.01713078
     atom   45 type  1   force =     0.01925952   -0.02148655   -0.01210904
     atom   46 type  1   force =     0.00955292   -0.00132355   -0.02986561
     atom   47 type  1   force =    -0.04739234    0.00197328    0.03687277
     atom   48 type  1   force =     0.00765893    0.05313304    0.02847526
     atom   49 type  1   force =     0.00526572   -0.01517792   -0.01357636
     atom   50 type  1   force =    -0.00070437    0.00145712   -0.01298534
     atom   51 type  1   force =    -0.01272041    0.01910049   -0.01167554
     atom   52 type  1   force =     0.04309471   -0.02099021    0.00861647
     atom   53 type  1   force =    -0.08646461   -0.01110169   -0.00111798
     atom   54 type  1   force =    -0.02321903    0.01766578   -0.01403313
     atom   55 type  1   force =     0.03008576    0.04409491    0.00777363
     atom   56 type  1   force =    -0.01065971   -0.02115148    0.01007231
     atom   57 type  1   force =     0.00170319   -0.01842487    0.01262928
     atom   58 type  1   force =     0.00405030   -0.03216713   -0.03554223
     atom   59 type  1   force =     0.00545203    0.01149889   -0.01903563
     atom   60 type  1   force =    -0.02016087    0.06656288   -0.01795350
     atom   61 type  1   force =    -0.01190935   -0.01120545    0.00590397
     atom   62 type  1   force =    -0.00154235    0.01473806   -0.01902603
     atom   63 type  1   force =     0.00503418    0.01151473    0.01797874
     atom   64 type  1   force =     0.04137530    0.06572109    0.04862384

     Total force =     0.392127     Total SCF correction =     0.001626


     Computing stress (Cartesian axis) and pressure

          total   stress  (Ry/bohr**3)                   (kbar)     P=      -32.19
  -0.00014629  -0.00000829   0.00002513          -21.52       -1.22        3.70
  -0.00000829  -0.00013943   0.00001884           -1.22      -20.51        2.77
   0.00002513   0.00001884  -0.00037084            3.70        2.77      -54.55

 
     init_run     :      0.95s CPU      4.18s WALL (       1 calls)
     electrons    :      2.10s CPU      2.25s WALL (       1 calls)
     forces       :      0.03s CPU      0.03s WALL (       1 calls)
     stress       :      0.12s CPU      0.12s WALL (       1 calls)

     Called by init_run:
     wfcinit      :      0.44s CPU      3.53s WALL (       1 calls)
                                        3.53s GPU  (       1 calls)
     potinit      :      0.04s CPU      0.12s WALL (       1 calls)
     hinit0       :      0.45s CPU      0.48s WALL (       1 calls)

     Called by electrons:
     c_bands      :      1.45s CPU      1.52s WALL (      23 calls)
     sum_band     :      0.32s CPU      0.37s WALL (      23 calls)
     v_of_rho     :      0.15s CPU      0.24s WALL (      23 calls)
     mix_rho      :      0.16s CPU      0.17s WALL (      23 calls)

     Called by c_bands:
     init_us_2    :      0.06s CPU      0.06s WALL (      47 calls)
     init_us_2:gp :      0.06s CPU      0.06s WALL (      47 calls)
     regterg      :      1.28s CPU      1.34s WALL (      23 calls)

     Called by *egterg:
     rdiaghg      :      0.59s CPU      1.24s WALL (     171 calls)
                                        1.21s GPU  (     171 calls)
     h_psi        :      0.93s CPU      3.41s WALL (     173 calls)
                                        3.40s GPU  (     173 calls)
     g_psi        :      0.00s CPU      0.00s WALL (     149 calls)
                                        0.00s GPU  (     149 calls)

     Called by h_psi:
     h_psi:calbec :      0.44s CPU      2.85s WALL (     173 calls)
                                        2.85s GPU  (     173 calls)
     vloc_psi     :      0.40s CPU      0.46s WALL (     173 calls)
                                        0.46s GPU  (     173 calls)
     add_vuspsi   :      0.06s CPU      0.09s WALL (     173 calls)
                                        0.08s GPU  (     173 calls)

     General routines
     calbec       :      0.44s CPU      2.86s WALL (     178 calls)
     fft          :      0.56s CPU      0.67s WALL (     191 calls)
                                        0.12s GPU  (     121 calls)
     ffts         :      0.03s CPU      0.03s WALL (      23 calls)
     fftw         :      0.47s CPU      0.61s WALL (    2180 calls)
                                        0.53s GPU  (    2180 calls)
 
     Parallel routines
 
     PWSCF        :      3.23s CPU      6.65s WALL

 
   This run was terminated on:  15:20:33   9May2023            

=------------------------------------------------------------------------------=
   JOB DONE.
=------------------------------------------------------------------------------=
