An instance of this daemon is already running

     Program PWSCF v.7.1 starts on  9May2023 at 15:27:24 

     This program is part of the open-source Quantum ESPRESSO suite
     for quantum simulation of materials; please cite
         "P. Giannozzi et al., J. Phys.:Condens. Matter 21 395502 (2009);
         "P. Giannozzi et al., J. Phys.:Condens. Matter 29 465901 (2017);
         "P. Giannozzi et al., J. Chem. Phys. 152 154105 (2020);
          URL http://www.quantum-espresso.org", 
     in publications or presentations arising from this work. More details at
     http://www.quantum-espresso.org/quote

     Parallel version (MPI & OpenMP), running on       4 processor cores
     Number of MPI processes:                 4
     Threads/MPI process:                     1

     MPI processes distributed on     1 nodes
     11009 MiB available memory on the printing compute node when the environment starts
 
     Reading input from pw-si-95.in
Warning: card &CELL ignored
Warning: card / ignored

     Current dimensions of program PWSCF are:
     Max number of different atomic species (ntypx) = 10
     Max number of k-points (npk) =  40000
     Max angular momentum in pseudopotentials (lmaxx) =  4

     IMPORTANT: XC functional enforced from input :
     Exchange-correlation= PBE
                           (   1   4   3   4   0   0   0)
     Any further DFT definition will be discarded
     Please, verify this is what you really want


     gamma-point specific algorithms are used
 
     K-points division:     npool     =       2
     R & G space division:  proc/nbgrp/npool/nimage =       2
     Subspace diagonalization in iterative solution of the eigenvalue problem:
     a serial algorithm will be used

     Message from routine divide_et_impera:
     suboptimal parallelization: some nodes have no k-points
 
     Parallelization info
     --------------------
     sticks:   dense  smooth     PW     G-vecs:    dense   smooth      PW
     Min        1945    1945    519                91431    91431   12442
     Max        1948    1948    522                91436    91436   12443
     Sum        3893    3893   1041               182867   182867   24885
 
     Using Slab Decomposition
 


     bravais-lattice index     =            0
     lattice parameter (alat)  =      20.2040  a.u.
     unit-cell volume          =    8247.3326 (a.u.)^3
     number of atoms/cell      =           64
     number of atomic types    =            1
     number of electrons       =       256.00
     number of Kohn-Sham states=          128
     kinetic-energy cutoff     =      30.0000  Ry
     charge density cutoff     =     120.0000  Ry
     scf convergence threshold =      1.0E-06
     mixing beta               =       0.5000
     number of iterations used =            8  plain     mixing
     Exchange-correlation= PBE
                           (   1   4   3   4   0   0   0)

     GPU acceleration is ACTIVE.
     GPU-aware MPI enabled

     Message from routine print_cuda_info:
     High GPU oversubscription detected. Are you sure this is what you want?

     celldm(1)=  20.204022  celldm(2)=   0.000000  celldm(3)=   0.000000
     celldm(4)=   0.000000  celldm(5)=   0.000000  celldm(6)=   0.000000

     crystal axes: (cart. coord. in units of alat)
               a(1) = (   1.000000   0.000000   0.000000 )  
               a(2) = (   0.000000   1.000000   0.000000 )  
               a(3) = (   0.000000   0.000000   1.000000 )  

     reciprocal axes: (cart. coord. in units 2 pi/alat)
               b(1) = (  1.000000  0.000000  0.000000 )  
               b(2) = (  0.000000  1.000000  0.000000 )  
               b(3) = (  0.000000  0.000000  1.000000 )  


     PseudoPot. # 1 for Si read from file:
     /home/ppiaggi/pseudos/Si_ONCV_PBE_sr.upf
     MD5 check sum: 8553c464762ac42b85b1eed164b4d029
     Pseudo is Norm-conserving, Zval =  4.0
     Generated using ONCVPSP code by D. R. Hamann
     Using radial grid of 1510 points,  4 beta functions with: 
                l(1) =   0
                l(2) =   0
                l(3) =   1
                l(4) =   1

     atomic species   valence    mass     pseudopotential
        Si             4.00    28.08500     Si( 1.00)

     No symmetry found



   Cartesian axes

     site n.     atom                  positions (alat units)
         1           Si  tau(   1) = (   0.7863730   0.4628720   0.4815270  )
         2           Si  tau(   2) = (   0.2454140   0.2518130   0.2567930  )
         3           Si  tau(   3) = (   0.8189670   0.8845570   0.7583410  )
         4           Si  tau(   4) = (   0.5280950   0.0822905   0.3937070  )
         5           Si  tau(   5) = (   0.3398940   0.4100450   0.3586470  )
         6           Si  tau(   6) = (   0.1340340   0.4931130   0.9395870  )
         7           Si  tau(   7) = (   0.1608100   0.1365470   0.0520104  )
         8           Si  tau(   8) = (   0.0931299   0.6783680   0.5331870  )
         9           Si  tau(   9) = (   0.9029800   0.6449970   0.3893320  )
        10           Si  tau(  10) = (   0.2926360   0.9552620   0.4932020  )
        11           Si  tau(  11) = (   0.6846240   0.3035000   0.3097790  )
        12           Si  tau(  12) = (   0.2172330   0.9532820   0.7096430  )
        13           Si  tau(  13) = (   0.5738420   0.7284370   0.3200990  )
        14           Si  tau(  14) = (   0.9710530   0.3067930   0.6799160  )
        15           Si  tau(  15) = (   0.5355450   0.5721140   0.5143590  )
        16           Si  tau(  16) = (   0.5248580   0.0649355   0.8002540  )
        17           Si  tau(  17) = (   0.5308960   0.8309250   0.0392868  )
        18           Si  tau(  18) = (   0.6483970   0.9523000   0.2477970  )
        19           Si  tau(  19) = (   0.7804100   0.5214880   0.7140490  )
        20           Si  tau(  20) = (   0.7024240   0.2913550   0.6757540  )
        21           Si  tau(  21) = (   0.2320590   0.4932500   0.7157500  )
        22           Si  tau(  22) = (   0.9013100   0.6162710   0.1625750  )
        23           Si  tau(  23) = (   0.6823280   0.1846080   0.0815723  )
        24           Si  tau(  24) = (   0.6093570   0.9620840   0.5578150  )
        25           Si  tau(  25) = (   0.6098480   0.8585950   0.8158450  )
        26           Si  tau(  26) = (   0.9954930   0.0152147   0.6640320  )
        27           Si  tau(  27) = (   0.0827422   0.4372380   0.5561440  )
        28           Si  tau(  28) = (   0.4417200   0.7103060   0.7807000  )
        29           Si  tau(  29) = (   0.8421510   0.9171560   0.4616200  )
        30           Si  tau(  30) = (   0.2915190   0.7963280   0.9230520  )
        31           Si  tau(  31) = (   0.7983910   0.1345130   0.8380160  )
        32           Si  tau(  32) = (   0.4633240   0.0543868   0.0942347  )
        33           Si  tau(  33) = (   0.8774850   0.9363140   0.2163280  )
        34           Si  tau(  34) = (   0.3825820   0.1389470   0.6439300  )
        35           Si  tau(  35) = (   0.7663060   0.4301990   0.0897556  )
        36           Si  tau(  36) = (   0.1405960   0.1886520   0.7809640  )
        37           Si  tau(  37) = (   0.3662410   0.2804480   0.8438360  )
        38           Si  tau(  38) = (   0.0535145   0.9066780   0.4812200  )
        39           Si  tau(  39) = (   0.8149200   0.1362650   0.5321560  )
        40           Si  tau(  40) = (   0.2737560   0.6412510   0.3768770  )
        41           Si  tau(  41) = (   0.6348060   0.5713270   0.9069840  )
        42           Si  tau(  42) = (   0.1061210   0.9242580   0.1643810  )
        43           Si  tau(  43) = (   0.4688970   0.5056320   0.7300320  )
        44           Si  tau(  44) = (   0.2802420   0.3718180   0.0544245  )
        45           Si  tau(  45) = (   0.8924210   0.1452320   0.1419240  )
        46           Si  tau(  46) = (   0.5344240   0.4875600   0.2421970  )
        47           Si  tau(  47) = (   0.1339010   0.5443630   0.2003970  )
        48           Si  tau(  48) = (   0.8447500   0.8076310   0.0329787  )
        49           Si  tau(  49) = (   0.1391730   0.7328370   0.7488810  )
        50           Si  tau(  50) = (   0.7482810   0.7232000   0.5886880  )
        51           Si  tau(  51) = (   0.9023350   0.2275900   0.3418750  )
        52           Si  tau(  52) = (   0.6603200   0.6873190   0.1051970  )
        53           Si  tau(  53) = (   0.4123430   0.5770770   0.0493380  )
        54           Si  tau(  54) = (   0.1137680   0.7416900   0.0488464  )
        55           Si  tau(  55) = (   0.5966840   0.3230650   0.8959420  )
        56           Si  tau(  56) = (   0.5110960   0.3094240   0.5031830  )
        57           Si  tau(  57) = (   0.3455290   0.0481175   0.2749120  )
        58           Si  tau(  58) = (   0.3558120   0.7825120   0.2051280  )
        59           Si  tau(  59) = (   0.9686990   0.2297100   0.9566680  )
        60           Si  tau(  60) = (   0.0518175   0.3779130   0.3436050  )
        61           Si  tau(  61) = (   0.9448560   0.7032880   0.8154890  )
        62           Si  tau(  62) = (   0.3255270   0.0358344   0.9343920  )
        63           Si  tau(  63) = (   0.4376540   0.7911540   0.5339510  )
        64           Si  tau(  64) = (   0.9255120   0.4466640   0.9147910  )

     number of k points=     1
                       cart. coord. in units 2pi/alat
        k(    1) = (   0.0000000   0.0000000   0.0000000), wk =   2.0000000

     Dense  grid:    91434 G-vectors     FFT dimensions: (  72,  72,  72)

     Estimated max dynamical RAM per process >     134.64 MB

     Estimated total dynamical RAM >     516.23 MB

     Initial potential from superposition of free atoms

     starting charge     255.9608, renormalised to     256.0000
     Starting wfcs are  256 randomized atomic wfcs

     total cpu time spent up to now is        4.2 secs

     Self-consistent Calculation

     iteration #  1     ecut=    30.00 Ry     beta= 0.50
     Davidson diagonalization with overlap
     ethr =  1.00E-02,  avg # of iterations =  2.0

     Threshold (ethr) on eigenvalues was too large:
     Diagonalizing with lowered threshold

     Davidson diagonalization with overlap
     ethr =  3.77E-04,  avg # of iterations =  6.0

     total cpu time spent up to now is        4.3 secs

     total energy              =    -501.02436299 Ry
     estimated scf accuracy    <       1.21701586 Ry

     iteration #  2     ecut=    30.00 Ry     beta= 0.50
     Davidson diagonalization with overlap
     ethr =  4.75E-04,  avg # of iterations = 13.0

     total cpu time spent up to now is        4.5 secs

     total energy              =    -500.62690401 Ry
     estimated scf accuracy    <       4.63559105 Ry

     iteration #  3     ecut=    30.00 Ry     beta= 0.50
     Davidson diagonalization with overlap
     ethr =  4.75E-04,  avg # of iterations = 11.0

     total cpu time spent up to now is        4.6 secs

     total energy              =    -501.03335540 Ry
     estimated scf accuracy    <       2.66948763 Ry

     iteration #  4     ecut=    30.00 Ry     beta= 0.50
     Davidson diagonalization with overlap
     ethr =  4.75E-04,  avg # of iterations = 11.0

     total cpu time spent up to now is        4.7 secs

     total energy              =    -501.19023360 Ry
     estimated scf accuracy    <       0.63835484 Ry

     iteration #  5     ecut=    30.00 Ry     beta= 0.50
     Davidson diagonalization with overlap
     ethr =  2.49E-04,  avg # of iterations =  7.0

     total cpu time spent up to now is        4.8 secs

     total energy              =    -501.24417289 Ry
     estimated scf accuracy    <       0.37626508 Ry

     iteration #  6     ecut=    30.00 Ry     beta= 0.50
     Davidson diagonalization with overlap
     ethr =  1.47E-04,  avg # of iterations =  5.0

     total cpu time spent up to now is        4.9 secs

     total energy              =    -501.28212300 Ry
     estimated scf accuracy    <       0.03855989 Ry

     iteration #  7     ecut=    30.00 Ry     beta= 0.50
     Davidson diagonalization with overlap
     ethr =  1.51E-05,  avg # of iterations = 11.0

     total cpu time spent up to now is        5.1 secs

     total energy              =    -501.28855356 Ry
     estimated scf accuracy    <       0.05052796 Ry

     iteration #  8     ecut=    30.00 Ry     beta= 0.50
     Davidson diagonalization with overlap
     ethr =  1.51E-05,  avg # of iterations =  9.0

     total cpu time spent up to now is        5.2 secs

     total energy              =    -501.29235334 Ry
     estimated scf accuracy    <       0.01622597 Ry

     iteration #  9     ecut=    30.00 Ry     beta= 0.50
     Davidson diagonalization with overlap
     ethr =  6.34E-06,  avg # of iterations =  7.0

     total cpu time spent up to now is        5.3 secs

     total energy              =    -501.29318177 Ry
     estimated scf accuracy    <       0.00405308 Ry

     iteration # 10     ecut=    30.00 Ry     beta= 0.50
     Davidson diagonalization with overlap
     ethr =  1.58E-06,  avg # of iterations =  8.0

     total cpu time spent up to now is        5.4 secs

     total energy              =    -501.29388704 Ry
     estimated scf accuracy    <       0.00518687 Ry

     iteration # 11     ecut=    30.00 Ry     beta= 0.50
     Davidson diagonalization with overlap
     ethr =  1.58E-06,  avg # of iterations =  6.0

     total cpu time spent up to now is        5.5 secs

     total energy              =    -501.29397326 Ry
     estimated scf accuracy    <       0.00256982 Ry

     iteration # 12     ecut=    30.00 Ry     beta= 0.50
     Davidson diagonalization with overlap
     ethr =  1.00E-06,  avg # of iterations =  3.0

     total cpu time spent up to now is        5.6 secs

     total energy              =    -501.29396453 Ry
     estimated scf accuracy    <       0.00084259 Ry

     iteration # 13     ecut=    30.00 Ry     beta= 0.50
     Davidson diagonalization with overlap
     ethr =  3.29E-07,  avg # of iterations =  8.0

     total cpu time spent up to now is        5.7 secs

     total energy              =    -501.29416064 Ry
     estimated scf accuracy    <       0.00131418 Ry

     iteration # 14     ecut=    30.00 Ry     beta= 0.50
     Davidson diagonalization with overlap
     ethr =  3.29E-07,  avg # of iterations =  2.0

     total cpu time spent up to now is        5.7 secs

     total energy              =    -501.29409541 Ry
     estimated scf accuracy    <       0.00086551 Ry

     iteration # 15     ecut=    30.00 Ry     beta= 0.50
     Davidson diagonalization with overlap
     ethr =  3.29E-07,  avg # of iterations =  3.0

     total cpu time spent up to now is        5.8 secs

     total energy              =    -501.29413212 Ry
     estimated scf accuracy    <       0.00018261 Ry

     iteration # 16     ecut=    30.00 Ry     beta= 0.50
     Davidson diagonalization with overlap
     ethr =  7.13E-08,  avg # of iterations = 14.0

     total cpu time spent up to now is        6.0 secs

     total energy              =    -501.29416757 Ry
     estimated scf accuracy    <       0.00015543 Ry

     iteration # 17     ecut=    30.00 Ry     beta= 0.50
     Davidson diagonalization with overlap
     ethr =  6.07E-08,  avg # of iterations =  1.0

     total cpu time spent up to now is        6.0 secs

     total energy              =    -501.29415809 Ry
     estimated scf accuracy    <       0.00011565 Ry

     iteration # 18     ecut=    30.00 Ry     beta= 0.50
     Davidson diagonalization with overlap
     ethr =  4.52E-08,  avg # of iterations =  3.0

     total cpu time spent up to now is        6.1 secs

     total energy              =    -501.29415530 Ry
     estimated scf accuracy    <       0.00004103 Ry

     iteration # 19     ecut=    30.00 Ry     beta= 0.50
     Davidson diagonalization with overlap
     c_bands:  1 eigenvalues not converged
     ethr =  1.60E-08,  avg # of iterations = 20.0

     total cpu time spent up to now is        6.3 secs

     total energy              =    -501.29416551 Ry
     estimated scf accuracy    <       0.00011420 Ry

     iteration # 20     ecut=    30.00 Ry     beta= 0.50
     Davidson diagonalization with overlap
     ethr =  1.60E-08,  avg # of iterations =  8.0

     total cpu time spent up to now is        6.4 secs

     total energy              =    -501.29416422 Ry
     estimated scf accuracy    <       0.00005456 Ry

     iteration # 21     ecut=    30.00 Ry     beta= 0.50
     Davidson diagonalization with overlap
     ethr =  1.60E-08,  avg # of iterations =  2.0

     total cpu time spent up to now is        6.4 secs

     total energy              =    -501.29416453 Ry
     estimated scf accuracy    <       0.00002527 Ry

     iteration # 22     ecut=    30.00 Ry     beta= 0.50
     Davidson diagonalization with overlap
     ethr =  9.87E-09,  avg # of iterations = 17.0

     total cpu time spent up to now is        6.6 secs

     total energy              =    -501.29416686 Ry
     estimated scf accuracy    <       0.00000297 Ry

     iteration # 23     ecut=    30.00 Ry     beta= 0.50
     Davidson diagonalization with overlap
     ethr =  1.16E-09,  avg # of iterations = 17.0

     total cpu time spent up to now is        6.7 secs

     total energy              =    -501.29416755 Ry
     estimated scf accuracy    <       0.00000177 Ry

     iteration # 24     ecut=    30.00 Ry     beta= 0.50
     Davidson diagonalization with overlap
     ethr =  6.93E-10,  avg # of iterations =  3.0

     total cpu time spent up to now is        6.8 secs

     End of self-consistent calculation

          k = 0.0000 0.0000 0.0000 ( 11492 PWs)   bands (ev):

    -5.4732  -4.5812  -4.4243  -4.3802  -4.3192  -4.1649  -4.0993  -3.4576
    -3.4380  -3.3792  -3.3162  -3.2302  -3.0637  -3.0416  -3.0139  -2.9824
    -2.7676  -2.7478  -2.6703  -2.2013  -2.0366  -1.9969  -1.8982  -1.8155
    -1.8026  -1.6371  -1.3891  -1.0287  -0.8942  -0.8496  -0.7259  -0.6418
    -0.3241  -0.2454  -0.1974  -0.1662  -0.0705   0.0500   0.1167   0.1728
     0.2090   0.3063   0.4652   0.5705   0.5787   0.6171   0.7047   0.8181
     0.9007   0.9176   1.0208   1.1493   1.1530   1.3640   1.4313   1.4473
     1.5562   1.6453   1.7014   1.8355   1.9979   2.1255   2.2269   2.2613
     2.3087   2.4746   2.5383   2.7033   2.7941   2.8076   2.8548   2.9568
     2.9914   3.0701   3.1980   3.2301   3.2410   3.3892   3.5263   3.6203
     3.8225   3.9474   4.1958   4.2425   4.2997   4.3870   4.4166   4.4544
     4.5843   4.6840   4.7450   4.7913   4.8376   4.8927   4.9663   5.0017
     5.1207   5.1405   5.2692   5.3210   5.4261   5.4816   5.4927   5.5638
     5.6858   5.7077   5.7446   5.8214   5.8625   5.9094   5.9267   5.9763
     6.0692   6.1396   6.2323   6.2439   6.2976   6.3443   6.4511   6.4883
     6.6147   6.6807   6.6900   6.7517   6.7859   6.8453   6.9172   6.9303

     highest occupied level (ev):     6.9303

!    total energy              =    -501.29416686 Ry
     estimated scf accuracy    <       0.00000089 Ry

     The total energy is the sum of the following terms:
     one-electron contribution =     178.83048281 Ry
     hartree contribution      =      27.39524531 Ry
     xc contribution           =    -150.67498582 Ry
     ewald contribution        =    -556.84490917 Ry

     convergence has been achieved in  24 iterations

     Forces acting on atoms (cartesian axes, Ry/au):

     atom    1 type  1   force =    -0.02385249    0.01333920    0.00247574
     atom    2 type  1   force =    -0.06273087   -0.02093851   -0.04319642
     atom    3 type  1   force =     0.02636375    0.01613199   -0.00742141
     atom    4 type  1   force =     0.02041397    0.03399311    0.00391334
     atom    5 type  1   force =     0.08304677    0.08177846    0.03406909
     atom    6 type  1   force =     0.00925219    0.02319025   -0.01964391
     atom    7 type  1   force =    -0.02361380   -0.00784313    0.00945558
     atom    8 type  1   force =    -0.01969953    0.00472816   -0.04761757
     atom    9 type  1   force =     0.00940135    0.01356410    0.02598830
     atom   10 type  1   force =    -0.02112450    0.01702777   -0.00477076
     atom   11 type  1   force =    -0.01253248    0.01333454   -0.00158401
     atom   12 type  1   force =    -0.00212852    0.01793089    0.00848001
     atom   13 type  1   force =    -0.00678314    0.00806679   -0.00646057
     atom   14 type  1   force =    -0.05217317   -0.02435020    0.02950503
     atom   15 type  1   force =     0.03408256    0.02490351   -0.01232253
     atom   16 type  1   force =    -0.00767790    0.00411251   -0.00731224
     atom   17 type  1   force =    -0.06454742    0.09091945   -0.01458500
     atom   18 type  1   force =     0.01086226   -0.01636137    0.01327310
     atom   19 type  1   force =     0.02587417   -0.00564236    0.03238106
     atom   20 type  1   force =     0.01085365   -0.00948758   -0.01725839
     atom   21 type  1   force =     0.01402066    0.02165322    0.02992417
     atom   22 type  1   force =    -0.01030948   -0.00078490    0.01531453
     atom   23 type  1   force =    -0.04132595    0.03595961   -0.00364679
     atom   24 type  1   force =     0.00462470   -0.02358795    0.03675262
     atom   25 type  1   force =    -0.03315997   -0.00748911    0.01330300
     atom   26 type  1   force =    -0.02774367    0.03121601    0.00501710
     atom   27 type  1   force =     0.01745107    0.03690445   -0.02841318
     atom   28 type  1   force =    -0.00036472    0.05296172   -0.01921518
     atom   29 type  1   force =    -0.04737174   -0.00890540   -0.03689153
     atom   30 type  1   force =     0.02080124    0.02055466   -0.00116850
     atom   31 type  1   force =    -0.03205647   -0.01788872   -0.00537979
     atom   32 type  1   force =     0.08520283   -0.01904011    0.01042286
     atom   33 type  1   force =     0.01746367    0.00160530    0.01287841
     atom   34 type  1   force =     0.01474263    0.00419770   -0.02606469
     atom   35 type  1   force =     0.00616490    0.00028646   -0.01902858
     atom   36 type  1   force =     0.00070841   -0.02843762    0.00343107
     atom   37 type  1   force =    -0.00057251    0.01209784    0.01262745
     atom   38 type  1   force =     0.06902157   -0.02843112    0.00025689
     atom   39 type  1   force =     0.02279460   -0.00802418    0.01971707
     atom   40 type  1   force =    -0.01811478   -0.01741324   -0.00761811
     atom   41 type  1   force =    -0.00725764   -0.02252959    0.01066043
     atom   42 type  1   force =    -0.01139292    0.04140186    0.01758441
     atom   43 type  1   force =    -0.03163599   -0.05096380   -0.00466051
     atom   44 type  1   force =     0.00893162    0.01444067   -0.00463025
     atom   45 type  1   force =    -0.00486192   -0.01969050    0.00886051
     atom   46 type  1   force =    -0.01817728    0.01107507   -0.00301781
     atom   47 type  1   force =    -0.01052000    0.00660151    0.00945029
     atom   48 type  1   force =     0.02554278   -0.04389944   -0.00959377
     atom   49 type  1   force =     0.05615697   -0.01304965   -0.02578188
     atom   50 type  1   force =     0.00267972   -0.00204554   -0.02510426
     atom   51 type  1   force =    -0.04653649    0.00005528    0.01978374
     atom   52 type  1   force =     0.06983952   -0.07103296    0.02048895
     atom   53 type  1   force =     0.01686878   -0.01737001   -0.00419693
     atom   54 type  1   force =    -0.01939408   -0.04630437   -0.02466528
     atom   55 type  1   force =    -0.00794880    0.00928618    0.01022341
     atom   56 type  1   force =    -0.00584510   -0.02118987    0.00367956
     atom   57 type  1   force =    -0.03390575   -0.01708400    0.03668047
     atom   58 type  1   force =     0.02959404   -0.02962382    0.00867104
     atom   59 type  1   force =     0.02845118    0.00880464   -0.00497592
     atom   60 type  1   force =     0.04928269    0.00372331   -0.00436664
     atom   61 type  1   force =    -0.05711691   -0.02425778    0.04655335
     atom   62 type  1   force =    -0.00902476   -0.01605639   -0.06371719
     atom   63 type  1   force =     0.01425972   -0.03370308    0.01514884
     atom   64 type  1   force =    -0.03325322   -0.00241996   -0.02266180

     Total force =     0.382972     Total SCF correction =     0.001885


     Computing stress (Cartesian axis) and pressure

          total   stress  (Ry/bohr**3)                   (kbar)     P=      -32.06
  -0.00007766   0.00002204   0.00006911          -11.42        3.24       10.17
   0.00002204  -0.00036505   0.00000094            3.24      -53.70        0.14
   0.00006911   0.00000094  -0.00021105           10.17        0.14      -31.05

 
     init_run     :      0.95s CPU      4.11s WALL (       1 calls)
     electrons    :      2.46s CPU      2.64s WALL (       1 calls)
     forces       :      0.03s CPU      0.03s WALL (       1 calls)
     stress       :      0.12s CPU      0.12s WALL (       1 calls)

     Called by init_run:
     wfcinit      :      0.44s CPU      3.45s WALL (       1 calls)
                                        3.45s GPU  (       1 calls)
     potinit      :      0.04s CPU      0.13s WALL (       1 calls)
     hinit0       :      0.45s CPU      0.48s WALL (       1 calls)

     Called by electrons:
     c_bands      :      1.72s CPU      1.81s WALL (      25 calls)
     sum_band     :      0.35s CPU      0.41s WALL (      25 calls)
     v_of_rho     :      0.17s CPU      0.26s WALL (      25 calls)
     mix_rho      :      0.18s CPU      0.20s WALL (      25 calls)

     Called by c_bands:
     init_us_2    :      0.06s CPU      0.07s WALL (      51 calls)
     init_us_2:gp :      0.06s CPU      0.07s WALL (      51 calls)
     regterg      :      1.55s CPU      1.63s WALL (      25 calls)

     Called by *egterg:
     rdiaghg      :      0.76s CPU      1.38s WALL (     221 calls)
                                        1.35s GPU  (     221 calls)
     h_psi        :      0.98s CPU      3.42s WALL (     223 calls)
                                        3.42s GPU  (     223 calls)
     g_psi        :      0.00s CPU      0.01s WALL (     197 calls)
                                        0.00s GPU  (     197 calls)

     Called by h_psi:
     h_psi:calbec :      0.45s CPU      2.81s WALL (     223 calls)
                                        2.81s GPU  (     223 calls)
     vloc_psi     :      0.42s CPU      0.50s WALL (     223 calls)
                                        0.49s GPU  (     223 calls)
     add_vuspsi   :      0.08s CPU      0.10s WALL (     223 calls)
                                        0.10s GPU  (     223 calls)

     General routines
     calbec       :      0.45s CPU      2.81s WALL (     228 calls)
     fft          :      0.58s CPU      0.69s WALL (     207 calls)
                                        0.12s GPU  (     131 calls)
     ffts         :      0.04s CPU      0.04s WALL (      25 calls)
     fftw         :      0.50s CPU      0.65s WALL (    2414 calls)
                                        0.57s GPU  (    2414 calls)
 
     Parallel routines
 
     PWSCF        :      3.60s CPU      6.98s WALL

 
   This run was terminated on:  15:27:31   9May2023            

=------------------------------------------------------------------------------=
   JOB DONE.
=------------------------------------------------------------------------------=
