An instance of this daemon is already running

     Program PWSCF v.7.1 starts on  9May2023 at 15:18:30 

     This program is part of the open-source Quantum ESPRESSO suite
     for quantum simulation of materials; please cite
         "P. Giannozzi et al., J. Phys.:Condens. Matter 21 395502 (2009);
         "P. Giannozzi et al., J. Phys.:Condens. Matter 29 465901 (2017);
         "P. Giannozzi et al., J. Chem. Phys. 152 154105 (2020);
          URL http://www.quantum-espresso.org", 
     in publications or presentations arising from this work. More details at
     http://www.quantum-espresso.org/quote

     Parallel version (MPI & OpenMP), running on       4 processor cores
     Number of MPI processes:                 4
     Threads/MPI process:                     1

     MPI processes distributed on     1 nodes
     9957 MiB available memory on the printing compute node when the environment starts
 
     Reading input from pw-si-56.in
Warning: card &CELL ignored
Warning: card / ignored

     Current dimensions of program PWSCF are:
     Max number of different atomic species (ntypx) = 10
     Max number of k-points (npk) =  40000
     Max angular momentum in pseudopotentials (lmaxx) =  4

     IMPORTANT: XC functional enforced from input :
     Exchange-correlation= PBE
                           (   1   4   3   4   0   0   0)
     Any further DFT definition will be discarded
     Please, verify this is what you really want


     gamma-point specific algorithms are used
 
     K-points division:     npool     =       2
     R & G space division:  proc/nbgrp/npool/nimage =       2
     Subspace diagonalization in iterative solution of the eigenvalue problem:
     a serial algorithm will be used

     Message from routine divide_et_impera:
     suboptimal parallelization: some nodes have no k-points
 
     Parallelization info
     --------------------
     sticks:   dense  smooth     PW     G-vecs:    dense   smooth      PW
     Min        1904    1904    502                88752    88752   12054
     Max        1905    1905    503                88757    88757   12057
     Sum        3809    3809   1005               177509   177509   24111
 
     Using Slab Decomposition
 


     bravais-lattice index     =            0
     lattice parameter (alat)  =      19.9986  a.u.
     unit-cell volume          =    7998.3559 (a.u.)^3
     number of atoms/cell      =           64
     number of atomic types    =            1
     number of electrons       =       256.00
     number of Kohn-Sham states=          128
     kinetic-energy cutoff     =      30.0000  Ry
     charge density cutoff     =     120.0000  Ry
     scf convergence threshold =      1.0E-06
     mixing beta               =       0.5000
     number of iterations used =            8  plain     mixing
     Exchange-correlation= PBE
                           (   1   4   3   4   0   0   0)

     GPU acceleration is ACTIVE.
     GPU-aware MPI enabled

     Message from routine print_cuda_info:
     High GPU oversubscription detected. Are you sure this is what you want?

     celldm(1)=  19.998630  celldm(2)=   0.000000  celldm(3)=   0.000000
     celldm(4)=   0.000000  celldm(5)=   0.000000  celldm(6)=   0.000000

     crystal axes: (cart. coord. in units of alat)
               a(1) = (   1.000000   0.000000   0.000000 )  
               a(2) = (   0.000000   1.000000   0.000000 )  
               a(3) = (   0.000000   0.000000   1.000000 )  

     reciprocal axes: (cart. coord. in units 2 pi/alat)
               b(1) = (  1.000000  0.000000  0.000000 )  
               b(2) = (  0.000000  1.000000  0.000000 )  
               b(3) = (  0.000000  0.000000  1.000000 )  


     PseudoPot. # 1 for Si read from file:
     /home/ppiaggi/pseudos/Si_ONCV_PBE_sr.upf
     MD5 check sum: 8553c464762ac42b85b1eed164b4d029
     Pseudo is Norm-conserving, Zval =  4.0
     Generated using ONCVPSP code by D. R. Hamann
     Using radial grid of 1510 points,  4 beta functions with: 
                l(1) =   0
                l(2) =   0
                l(3) =   1
                l(4) =   1

     atomic species   valence    mass     pseudopotential
        Si             4.00    28.08500     Si( 1.00)

     No symmetry found



   Cartesian axes

     site n.     atom                  positions (alat units)
         1           Si  tau(   1) = (   0.8700180   0.8298360   0.8820340  )
         2           Si  tau(   2) = (   0.9656900   0.6357520   0.7976610  )
         3           Si  tau(   3) = (   0.8486560   0.0644226   0.4578470  )
         4           Si  tau(   4) = (   0.7746560   0.5542600   0.5187470  )
         5           Si  tau(   5) = (   0.3664990   0.3112220   0.2588390  )
         6           Si  tau(   6) = (   0.0312052   0.7700120   0.2189850  )
         7           Si  tau(   7) = (   0.5693030   0.0331307   0.0325041  )
         8           Si  tau(   8) = (   0.8155830   0.4018470   0.0989875  )
         9           Si  tau(   9) = (   0.0126973   0.1844570   0.2135970  )
        10           Si  tau(  10) = (   0.8195930   0.0293319   0.1335240  )
        11           Si  tau(  11) = (   0.3136660   0.2589770   0.0281848  )
        12           Si  tau(  12) = (   0.4014720   0.8834840   0.6057480  )
        13           Si  tau(  13) = (   0.1181870   0.4694390   0.8242200  )
        14           Si  tau(  14) = (   0.8284060   0.7405410   0.2283030  )
        15           Si  tau(  15) = (   0.9636300   0.5841690   0.0375427  )
        16           Si  tau(  16) = (   0.2986830   0.5650050   0.6946130  )
        17           Si  tau(  17) = (   0.2441890   0.4797740   0.9879100  )
        18           Si  tau(  18) = (   0.5246160   0.7227560   0.8328070  )
        19           Si  tau(  19) = (   0.3205280   0.6956850   0.0944602  )
        20           Si  tau(  20) = (   0.1286060   0.8686410   0.5388510  )
        21           Si  tau(  21) = (   0.4797130   0.0744831   0.5042300  )
        22           Si  tau(  22) = (   0.0365363   0.9563120   0.3428190  )
        23           Si  tau(  23) = (   0.1601100   0.7589610   0.7474070  )
        24           Si  tau(  24) = (   0.2817890   0.4907720   0.4548670  )
        25           Si  tau(  25) = (   0.5378620   0.5303810   0.2841300  )
        26           Si  tau(  26) = (   0.9850660   0.3091810   0.9114880  )
        27           Si  tau(  27) = (   0.3149470   0.8388060   0.3629430  )
        28           Si  tau(  28) = (   0.6619160   0.1484690   0.6427250  )
        29           Si  tau(  29) = (   0.8580090   0.2730580   0.7193210  )
        30           Si  tau(  30) = (   0.7505340   0.8072490   0.5137320  )
        31           Si  tau(  31) = (   0.0364873   0.9995110   0.0088677  )
        32           Si  tau(  32) = (   0.0996465   0.4336740   0.1704120  )
        33           Si  tau(  33) = (   0.7047320   0.9379350   0.3203460  )
        34           Si  tau(  34) = (   0.5039460   0.8203660   0.1088940  )
        35           Si  tau(  35) = (   0.6866870   0.8756170   0.7517550  )
        36           Si  tau(  36) = (   0.1560690   0.0689214   0.6821110  )
        37           Si  tau(  37) = (   0.7881730   0.2453140   0.3255680  )
        38           Si  tau(  38) = (   0.6747390   0.5700440   0.9656950  )
        39           Si  tau(  39) = (   0.5382110   0.0430653   0.8148380  )
        40           Si  tau(  40) = (   0.5092130   0.3003260   0.9273650  )
        41           Si  tau(  41) = (   0.1914090   0.6156920   0.2829870  )
        42           Si  tau(  42) = (   0.9125920   0.9902690   0.6608700  )
        43           Si  tau(  43) = (   0.3149250   0.1983410   0.5761860  )
        44           Si  tau(  44) = (   0.4892130   0.0937301   0.2739220  )
        45           Si  tau(  45) = (   0.3031040   0.9761420   0.0448862  )
        46           Si  tau(  46) = (   0.3991650   0.3361730   0.7275050  )
        47           Si  tau(  47) = (   0.5365770   0.7562480   0.3563250  )
        48           Si  tau(  48) = (   0.7203610   0.7762220   0.0490304  )
        49           Si  tau(  49) = (   0.1517170   0.1546700   0.8928140  )
        50           Si  tau(  50) = (   0.5854920   0.3249180   0.3886860  )
        51           Si  tau(  51) = (   0.1946490   0.2421290   0.3900200  )
        52           Si  tau(  52) = (   0.7973160   0.4985670   0.7451070  )
        53           Si  tau(  53) = (   0.7403050   0.2085640   0.9650080  )
        54           Si  tau(  54) = (   0.5975460   0.3982540   0.6054570  )
        55           Si  tau(  55) = (   0.0755328   0.5116560   0.5592810  )
        56           Si  tau(  56) = (   0.4888220   0.5076210   0.0697571  )
        57           Si  tau(  57) = (   0.5026160   0.6357880   0.5863070  )
        58           Si  tau(  58) = (   0.1198870   0.7864250   0.0096611  )
        59           Si  tau(  59) = (   0.0023447   0.6967000   0.4748570  )
        60           Si  tau(  60) = (   0.2397580   0.0306221   0.2704260  )
        61           Si  tau(  61) = (   0.9525790   0.4194260   0.3659510  )
        62           Si  tau(  62) = (   0.3363680   0.9205770   0.8248840  )
        63           Si  tau(  63) = (   0.0381590   0.2646760   0.5831150  )
        64           Si  tau(  64) = (   0.7615180   0.5503170   0.2699720  )

     number of k points=     1
                       cart. coord. in units 2pi/alat
        k(    1) = (   0.0000000   0.0000000   0.0000000), wk =   2.0000000

     Dense  grid:    88755 G-vectors     FFT dimensions: (  72,  72,  72)

     Estimated max dynamical RAM per process >     131.04 MB

     Estimated total dynamical RAM >     502.50 MB

     Initial potential from superposition of free atoms

     starting charge     255.9608, renormalised to     256.0000
     Starting wfcs are  256 randomized atomic wfcs

     total cpu time spent up to now is        4.1 secs

     Self-consistent Calculation

     iteration #  1     ecut=    30.00 Ry     beta= 0.50
     Davidson diagonalization with overlap
     ethr =  1.00E-02,  avg # of iterations =  2.0

     Threshold (ethr) on eigenvalues was too large:
     Diagonalizing with lowered threshold

     Davidson diagonalization with overlap
     ethr =  4.11E-04,  avg # of iterations =  6.0

     total cpu time spent up to now is        4.3 secs

     total energy              =    -501.03261969 Ry
     estimated scf accuracy    <       1.39588841 Ry

     iteration #  2     ecut=    30.00 Ry     beta= 0.50
     Davidson diagonalization with overlap
     ethr =  5.45E-04,  avg # of iterations = 14.0

     total cpu time spent up to now is        4.4 secs

     total energy              =    -500.47197453 Ry
     estimated scf accuracy    <       7.62744768 Ry

     iteration #  3     ecut=    30.00 Ry     beta= 0.50
     Davidson diagonalization with overlap
     ethr =  5.45E-04,  avg # of iterations = 13.0

     total cpu time spent up to now is        4.5 secs

     total energy              =    -501.14429683 Ry
     estimated scf accuracy    <       2.52809481 Ry

     iteration #  4     ecut=    30.00 Ry     beta= 0.50
     Davidson diagonalization with overlap
     ethr =  5.45E-04,  avg # of iterations =  7.0

     total cpu time spent up to now is        4.6 secs

     total energy              =    -501.35322553 Ry
     estimated scf accuracy    <       0.32424100 Ry

     iteration #  5     ecut=    30.00 Ry     beta= 0.50
     Davidson diagonalization with overlap
     ethr =  1.27E-04,  avg # of iterations = 17.0

     total cpu time spent up to now is        4.8 secs

     total energy              =    -501.38444158 Ry
     estimated scf accuracy    <       0.42232529 Ry

     iteration #  6     ecut=    30.00 Ry     beta= 0.50
     Davidson diagonalization with overlap
     ethr =  1.27E-04,  avg # of iterations = 13.0

     total cpu time spent up to now is        4.9 secs

     total energy              =    -501.41391503 Ry
     estimated scf accuracy    <       0.20741772 Ry

     iteration #  7     ecut=    30.00 Ry     beta= 0.50
     Davidson diagonalization with overlap
     ethr =  8.10E-05,  avg # of iterations =  3.0

     total cpu time spent up to now is        5.0 secs

     total energy              =    -501.41077558 Ry
     estimated scf accuracy    <       0.08855209 Ry

     iteration #  8     ecut=    30.00 Ry     beta= 0.50
     Davidson diagonalization with overlap
     ethr =  3.46E-05,  avg # of iterations = 10.0

     total cpu time spent up to now is        5.1 secs

     total energy              =    -501.42374242 Ry
     estimated scf accuracy    <       0.00809168 Ry

     iteration #  9     ecut=    30.00 Ry     beta= 0.50
     Davidson diagonalization with overlap
     ethr =  3.16E-06,  avg # of iterations = 13.0

     total cpu time spent up to now is        5.2 secs

     total energy              =    -501.42484916 Ry
     estimated scf accuracy    <       0.01782853 Ry

     iteration # 10     ecut=    30.00 Ry     beta= 0.50
     Davidson diagonalization with overlap
     ethr =  3.16E-06,  avg # of iterations =  8.0

     total cpu time spent up to now is        5.3 secs

     total energy              =    -501.42461001 Ry
     estimated scf accuracy    <       0.00644168 Ry

     iteration # 11     ecut=    30.00 Ry     beta= 0.50
     Davidson diagonalization with overlap
     ethr =  2.52E-06,  avg # of iterations = 13.0

     total cpu time spent up to now is        5.5 secs

     total energy              =    -501.42535491 Ry
     estimated scf accuracy    <       0.00278700 Ry

     iteration # 12     ecut=    30.00 Ry     beta= 0.50
     Davidson diagonalization with overlap
     ethr =  1.09E-06,  avg # of iterations = 10.0

     total cpu time spent up to now is        5.6 secs

     total energy              =    -501.42548216 Ry
     estimated scf accuracy    <       0.00091436 Ry

     iteration # 13     ecut=    30.00 Ry     beta= 0.50
     Davidson diagonalization with overlap
     ethr =  3.57E-07,  avg # of iterations = 12.0

     total cpu time spent up to now is        5.7 secs

     total energy              =    -501.42558955 Ry
     estimated scf accuracy    <       0.00013717 Ry

     iteration # 14     ecut=    30.00 Ry     beta= 0.50
     Davidson diagonalization with overlap
     ethr =  5.36E-08,  avg # of iterations = 12.0

     total cpu time spent up to now is        5.8 secs

     total energy              =    -501.42560485 Ry
     estimated scf accuracy    <       0.00016818 Ry

     iteration # 15     ecut=    30.00 Ry     beta= 0.50
     Davidson diagonalization with overlap
     ethr =  5.36E-08,  avg # of iterations =  3.0

     total cpu time spent up to now is        5.9 secs

     total energy              =    -501.42561065 Ry
     estimated scf accuracy    <       0.00005251 Ry

     iteration # 16     ecut=    30.00 Ry     beta= 0.50
     Davidson diagonalization with overlap
     ethr =  2.05E-08,  avg # of iterations = 10.0

     total cpu time spent up to now is        6.0 secs

     total energy              =    -501.42561411 Ry
     estimated scf accuracy    <       0.00003096 Ry

     iteration # 17     ecut=    30.00 Ry     beta= 0.50
     Davidson diagonalization with overlap
     ethr =  1.21E-08,  avg # of iterations = 14.0

     total cpu time spent up to now is        6.1 secs

     total energy              =    -501.42561665 Ry
     estimated scf accuracy    <       0.00002337 Ry

     iteration # 18     ecut=    30.00 Ry     beta= 0.50
     Davidson diagonalization with overlap
     ethr =  9.13E-09,  avg # of iterations =  2.0

     total cpu time spent up to now is        6.2 secs

     total energy              =    -501.42561620 Ry
     estimated scf accuracy    <       0.00001221 Ry

     iteration # 19     ecut=    30.00 Ry     beta= 0.50
     Davidson diagonalization with overlap
     ethr =  4.77E-09,  avg # of iterations = 10.0

     total cpu time spent up to now is        6.3 secs

     total energy              =    -501.42561714 Ry
     estimated scf accuracy    <       0.00000490 Ry

     iteration # 20     ecut=    30.00 Ry     beta= 0.50
     Davidson diagonalization with overlap
     ethr =  1.92E-09,  avg # of iterations =  8.0

     total cpu time spent up to now is        6.4 secs

     total energy              =    -501.42561737 Ry
     estimated scf accuracy    <       0.00000145 Ry

     iteration # 21     ecut=    30.00 Ry     beta= 0.50
     Davidson diagonalization with overlap
     ethr =  5.66E-10,  avg # of iterations = 12.0

     total cpu time spent up to now is        6.5 secs

     total energy              =    -501.42561751 Ry
     estimated scf accuracy    <       0.00000173 Ry

     iteration # 22     ecut=    30.00 Ry     beta= 0.50
     Davidson diagonalization with overlap
     ethr =  5.66E-10,  avg # of iterations =  3.0

     total cpu time spent up to now is        6.6 secs

     End of self-consistent calculation

          k = 0.0000 0.0000 0.0000 ( 11060 PWs)   bands (ev):

    -5.2829  -4.2770  -4.1947  -4.0821  -4.0353  -3.8520  -3.6510  -3.1043
    -3.0544  -3.0370  -2.9829  -2.9274  -2.8259  -2.7772  -2.7199  -2.6973
    -2.4577  -2.3921  -2.1721  -1.8725  -1.8062  -1.7205  -1.7173  -1.6161
    -1.4095  -1.2083  -1.1793  -0.7815  -0.6730  -0.4890  -0.3700  -0.2870
    -0.0123   0.1196   0.1587   0.2152   0.2763   0.3401   0.4279   0.4824
     0.5270   0.6109   0.7083   0.7653   0.7928   0.9794   1.1035   1.1204
     1.2943   1.3319   1.4127   1.4349   1.5219   1.6595   1.6766   1.8324
     1.9297   2.0288   2.1750   2.2150   2.2721   2.3544   2.5188   2.6046
     2.6468   2.6922   2.8093   2.8970   2.9980   3.0816   3.1579   3.2541
     3.3124   3.3286   3.3998   3.4861   3.5207   3.6541   3.6706   3.8228
     3.9389   4.2763   4.4903   4.5088   4.5832   4.6993   4.8164   4.8581
     4.9422   4.9707   5.0632   5.1474   5.2380   5.2684   5.3657   5.4046
     5.5374   5.5480   5.6451   5.7142   5.7195   5.7636   5.8508   5.8985
     5.9549   6.0211   6.1064   6.1209   6.1685   6.2004   6.2071   6.3145
     6.3906   6.4489   6.5102   6.6074   6.6172   6.7440   6.7785   6.8474
     6.9187   6.9471   6.9824   7.0440   7.1166   7.1745   7.2882   7.3068

     highest occupied level (ev):     7.3068

!    total energy              =    -501.42561721 Ry
     estimated scf accuracy    <       0.00000047 Ry

     The total energy is the sum of the following terms:
     one-electron contribution =     195.56803086 Ry
     hartree contribution      =      22.29726944 Ry
     xc contribution           =    -151.14053552 Ry
     ewald contribution        =    -568.15038199 Ry

     convergence has been achieved in  22 iterations

     Forces acting on atoms (cartesian axes, Ry/au):

     atom    1 type  1   force =     0.01347482    0.01733115   -0.00339725
     atom    2 type  1   force =     0.01903143    0.00431627    0.03343961
     atom    3 type  1   force =    -0.00333529    0.00066938   -0.02422062
     atom    4 type  1   force =    -0.00937795    0.02807474   -0.02007455
     atom    5 type  1   force =     0.01993832   -0.02475347   -0.03058696
     atom    6 type  1   force =     0.06011433   -0.00339266    0.01302395
     atom    7 type  1   force =     0.02469024    0.01697288    0.03029717
     atom    8 type  1   force =     0.01063078   -0.00367149   -0.03270417
     atom    9 type  1   force =    -0.01793441   -0.00733865    0.00217436
     atom   10 type  1   force =     0.00204252    0.04321493   -0.02314068
     atom   11 type  1   force =     0.00162552    0.00588103    0.02324513
     atom   12 type  1   force =    -0.00983849   -0.02303034   -0.01142417
     atom   13 type  1   force =    -0.03819881    0.01399170   -0.06032320
     atom   14 type  1   force =    -0.03848571    0.03571800    0.02492231
     atom   15 type  1   force =     0.00149371   -0.00594405   -0.01133752
     atom   16 type  1   force =    -0.00154703    0.00931713    0.01008393
     atom   17 type  1   force =     0.03749062   -0.00040773    0.06815369
     atom   18 type  1   force =     0.00741483    0.00727676   -0.02469948
     atom   19 type  1   force =    -0.02929469   -0.04016332    0.02571611
     atom   20 type  1   force =     0.03364270    0.01755066    0.01805144
     atom   21 type  1   force =     0.03495101    0.00163536   -0.01285951
     atom   22 type  1   force =    -0.00180532    0.03529841    0.01515890
     atom   23 type  1   force =     0.03530323   -0.01993636    0.00302347
     atom   24 type  1   force =     0.01178260   -0.00865253   -0.00735677
     atom   25 type  1   force =     0.00649805   -0.01595329    0.01163322
     atom   26 type  1   force =    -0.02162948    0.00913476   -0.00403142
     atom   27 type  1   force =    -0.00325127   -0.00975334    0.03976961
     atom   28 type  1   force =    -0.00257308    0.00774123   -0.00552223
     atom   29 type  1   force =    -0.03047457    0.01494300    0.03492131
     atom   30 type  1   force =     0.02139396   -0.00815551    0.02388083
     atom   31 type  1   force =    -0.02076649   -0.02275954   -0.00530068
     atom   32 type  1   force =    -0.02413358    0.01462811    0.00700590
     atom   33 type  1   force =    -0.00522743   -0.02197009    0.01616535
     atom   34 type  1   force =    -0.00256945    0.02257177    0.02529589
     atom   35 type  1   force =    -0.00934380   -0.00042911   -0.02282775
     atom   36 type  1   force =     0.00797629    0.01221015   -0.00341933
     atom   37 type  1   force =     0.04148084   -0.02126408   -0.01099362
     atom   38 type  1   force =     0.00231446    0.02220410   -0.04083005
     atom   39 type  1   force =     0.01955891   -0.00000572   -0.01113562
     atom   40 type  1   force =    -0.00135072   -0.00285557   -0.00206363
     atom   41 type  1   force =     0.02370362    0.02005962   -0.00089633
     atom   42 type  1   force =     0.00142334   -0.00701693    0.01712772
     atom   43 type  1   force =    -0.03472377   -0.02129692   -0.00429781
     atom   44 type  1   force =    -0.00504289    0.00777764    0.01677371
     atom   45 type  1   force =    -0.01939230   -0.01137095   -0.00435723
     atom   46 type  1   force =     0.03097206    0.05533640    0.00843308
     atom   47 type  1   force =    -0.00745432    0.00752595   -0.00705235
     atom   48 type  1   force =     0.00476516   -0.02290905   -0.04833486
     atom   49 type  1   force =    -0.00792965   -0.02648350    0.00366387
     atom   50 type  1   force =    -0.01196637    0.01178994    0.01542661
     atom   51 type  1   force =    -0.01042009    0.00895717    0.01214373
     atom   52 type  1   force =    -0.02810306   -0.03981898    0.01200495
     atom   53 type  1   force =    -0.00778252   -0.00195373    0.00585703
     atom   54 type  1   force =    -0.00225777   -0.01412193   -0.01881304
     atom   55 type  1   force =    -0.00050642   -0.05381326    0.00008975
     atom   56 type  1   force =    -0.00837816   -0.02024503   -0.01377733
     atom   57 type  1   force =    -0.01861472    0.01927673    0.01603681
     atom   58 type  1   force =     0.01729119    0.01355618   -0.02067079
     atom   59 type  1   force =    -0.05411452    0.00561703   -0.02702651
     atom   60 type  1   force =     0.00671710    0.01639885   -0.01134676
     atom   61 type  1   force =    -0.01617478    0.02209870   -0.00914185
     atom   62 type  1   force =     0.00598286   -0.01785973   -0.02160821
     atom   63 type  1   force =     0.00064284    0.00920754   -0.01068460
     atom   64 type  1   force =    -0.00034845   -0.06095639    0.03273742

     Total force =     0.300163     Total SCF correction =     0.001333


     Computing stress (Cartesian axis) and pressure

          total   stress  (Ry/bohr**3)                   (kbar)     P=      -27.49
  -0.00013499   0.00002443   0.00008872          -19.86        3.59       13.05
   0.00002443  -0.00023462  -0.00005068            3.59      -34.51       -7.45
   0.00008872  -0.00005068  -0.00019096           13.05       -7.45      -28.09

 
     init_run     :      0.91s CPU      4.03s WALL (       1 calls)
     electrons    :      2.38s CPU      2.52s WALL (       1 calls)
     forces       :      0.03s CPU      0.03s WALL (       1 calls)
     stress       :      0.12s CPU      0.12s WALL (       1 calls)

     Called by init_run:
     wfcinit      :      0.41s CPU      3.39s WALL (       1 calls)
                                        3.39s GPU  (       1 calls)
     potinit      :      0.04s CPU      0.11s WALL (       1 calls)
     hinit0       :      0.45s CPU      0.47s WALL (       1 calls)

     Called by electrons:
     c_bands      :      1.74s CPU      1.81s WALL (      23 calls)
     sum_band     :      0.31s CPU      0.36s WALL (      23 calls)
     v_of_rho     :      0.15s CPU      0.23s WALL (      23 calls)
     mix_rho      :      0.16s CPU      0.17s WALL (      23 calls)

     Called by c_bands:
     init_us_2    :      0.06s CPU      0.06s WALL (      47 calls)
     init_us_2:gp :      0.06s CPU      0.06s WALL (      47 calls)
     regterg      :      1.58s CPU      1.64s WALL (      23 calls)

     Called by *egterg:
     rdiaghg      :      0.82s CPU      1.42s WALL (     237 calls)
                                        1.39s GPU  (     237 calls)
     h_psi        :      0.94s CPU      3.36s WALL (     239 calls)
                                        3.35s GPU  (     239 calls)
     g_psi        :      0.00s CPU      0.01s WALL (     215 calls)
                                        0.00s GPU  (     215 calls)

     Called by h_psi:
     h_psi:calbec :      0.42s CPU      2.77s WALL (     239 calls)
                                        2.77s GPU  (     239 calls)
     vloc_psi     :      0.40s CPU      0.47s WALL (     239 calls)
                                        0.46s GPU  (     239 calls)
     add_vuspsi   :      0.09s CPU      0.11s WALL (     239 calls)
                                        0.11s GPU  (     239 calls)

     General routines
     calbec       :      0.42s CPU      2.77s WALL (     244 calls)
     fft          :      0.56s CPU      0.66s WALL (     191 calls)
                                        0.11s GPU  (     121 calls)
     ffts         :      0.03s CPU      0.03s WALL (      23 calls)
     fftw         :      0.47s CPU      0.61s WALL (    2302 calls)
                                        0.53s GPU  (    2302 calls)
 
     Parallel routines
 
     PWSCF        :      3.48s CPU      6.78s WALL

 
   This run was terminated on:  15:18:37   9May2023            

=------------------------------------------------------------------------------=
   JOB DONE.
=------------------------------------------------------------------------------=
