An instance of this daemon is already running

     Program PWSCF v.7.1 starts on  9May2023 at 15:14: 9 

     This program is part of the open-source Quantum ESPRESSO suite
     for quantum simulation of materials; please cite
         "P. Giannozzi et al., J. Phys.:Condens. Matter 21 395502 (2009);
         "P. Giannozzi et al., J. Phys.:Condens. Matter 29 465901 (2017);
         "P. Giannozzi et al., J. Chem. Phys. 152 154105 (2020);
          URL http://www.quantum-espresso.org", 
     in publications or presentations arising from this work. More details at
     http://www.quantum-espresso.org/quote

     Parallel version (MPI & OpenMP), running on       4 processor cores
     Number of MPI processes:                 4
     Threads/MPI process:                     1

     MPI processes distributed on     1 nodes
     7931 MiB available memory on the printing compute node when the environment starts
 
     Reading input from pw-si-36.in
Warning: card &CELL ignored
Warning: card / ignored

     Current dimensions of program PWSCF are:
     Max number of different atomic species (ntypx) = 10
     Max number of k-points (npk) =  40000
     Max angular momentum in pseudopotentials (lmaxx) =  4

     IMPORTANT: XC functional enforced from input :
     Exchange-correlation= PBE
                           (   1   4   3   4   0   0   0)
     Any further DFT definition will be discarded
     Please, verify this is what you really want


     gamma-point specific algorithms are used
 
     K-points division:     npool     =       2
     R & G space division:  proc/nbgrp/npool/nimage =       2
     Subspace diagonalization in iterative solution of the eigenvalue problem:
     a serial algorithm will be used

     Message from routine divide_et_impera:
     suboptimal parallelization: some nodes have no k-points
 
     Parallelization info
     --------------------
     sticks:   dense  smooth     PW     G-vecs:    dense   smooth      PW
     Min        1953    1953    519                91863    91863   12442
     Max        1956    1956    522                91868    91868   12443
     Sum        3909    3909   1041               183731   183731   24885
 
     Using Slab Decomposition
 


     bravais-lattice index     =            0
     lattice parameter (alat)  =      20.2252  a.u.
     unit-cell volume          =    8273.3406 (a.u.)^3
     number of atoms/cell      =           64
     number of atomic types    =            1
     number of electrons       =       256.00
     number of Kohn-Sham states=          128
     kinetic-energy cutoff     =      30.0000  Ry
     charge density cutoff     =     120.0000  Ry
     scf convergence threshold =      1.0E-06
     mixing beta               =       0.5000
     number of iterations used =            8  plain     mixing
     Exchange-correlation= PBE
                           (   1   4   3   4   0   0   0)

     GPU acceleration is ACTIVE.
     GPU-aware MPI enabled

     Message from routine print_cuda_info:
     High GPU oversubscription detected. Are you sure this is what you want?

     celldm(1)=  20.225238  celldm(2)=   0.000000  celldm(3)=   0.000000
     celldm(4)=   0.000000  celldm(5)=   0.000000  celldm(6)=   0.000000

     crystal axes: (cart. coord. in units of alat)
               a(1) = (   1.000000   0.000000   0.000000 )  
               a(2) = (   0.000000   1.000000   0.000000 )  
               a(3) = (   0.000000   0.000000   1.000000 )  

     reciprocal axes: (cart. coord. in units 2 pi/alat)
               b(1) = (  1.000000  0.000000  0.000000 )  
               b(2) = (  0.000000  1.000000  0.000000 )  
               b(3) = (  0.000000  0.000000  1.000000 )  


     PseudoPot. # 1 for Si read from file:
     /home/ppiaggi/pseudos/Si_ONCV_PBE_sr.upf
     MD5 check sum: 8553c464762ac42b85b1eed164b4d029
     Pseudo is Norm-conserving, Zval =  4.0
     Generated using ONCVPSP code by D. R. Hamann
     Using radial grid of 1510 points,  4 beta functions with: 
                l(1) =   0
                l(2) =   0
                l(3) =   1
                l(4) =   1

     atomic species   valence    mass     pseudopotential
        Si             4.00    28.08500     Si( 1.00)

     No symmetry found



   Cartesian axes

     site n.     atom                  positions (alat units)
         1           Si  tau(   1) = (   0.5886570   0.2064340   0.5124100  )
         2           Si  tau(   2) = (   0.0865894   0.1645400   0.5202510  )
         3           Si  tau(   3) = (   0.9653940   0.4587140   0.2758290  )
         4           Si  tau(   4) = (   0.9269700   0.1738100   0.3317520  )
         5           Si  tau(   5) = (   0.7418580   0.6684490   0.4558990  )
         6           Si  tau(   6) = (   0.1767440   0.1574840   0.9099690  )
         7           Si  tau(   7) = (   0.3492100   0.2259060   0.5659630  )
         8           Si  tau(   8) = (   0.5765220   0.7778440   0.2926450  )
         9           Si  tau(   9) = (   0.2308630   0.1338270   0.3206340  )
        10           Si  tau(  10) = (   0.1792820   0.9517710   0.8010140  )
        11           Si  tau(  11) = (   0.2728020   0.5584020   0.8334330  )
        12           Si  tau(  12) = (   0.0240577   0.4409130   0.8899290  )
        13           Si  tau(  13) = (   0.2907450   0.2903380   0.1693940  )
        14           Si  tau(  14) = (   0.6119740   0.2612170   0.7144310  )
        15           Si  tau(  15) = (   0.7086640   0.7903460   0.8348550  )
        16           Si  tau(  16) = (   0.3878860   0.6951680   0.3433900  )
        17           Si  tau(  17) = (   0.1500510   0.5218510   0.6038890  )
        18           Si  tau(  18) = (   0.7717720   0.3199210   0.2240500  )
        19           Si  tau(  19) = (   0.7272100   0.4481480   0.8083830  )
        20           Si  tau(  20) = (   0.5471790   0.6128170   0.8013110  )
        21           Si  tau(  21) = (   0.3907590   0.3634220   0.7997020  )
        22           Si  tau(  22) = (   0.8429850   0.0437275   0.7932200  )
        23           Si  tau(  23) = (   0.1857980   0.8936560   0.4490110  )
        24           Si  tau(  24) = (   0.6194330   0.5425810   0.5849100  )
        25           Si  tau(  25) = (   0.0706482   0.6729780   0.9307300  )
        26           Si  tau(  26) = (   0.9099050   0.6469130   0.0863182  )
        27           Si  tau(  27) = (   0.3642550   0.9899230   0.6741060  )
        28           Si  tau(  28) = (   0.1756290   0.3165460   0.7274590  )
        29           Si  tau(  29) = (   0.5774010   0.0306838   0.7702530  )
        30           Si  tau(  30) = (   0.7060480   0.1406800   0.0689479  )
        31           Si  tau(  31) = (   0.2599490   0.6874020   0.1161820  )
        32           Si  tau(  32) = (   0.3262280   0.4913980   0.0306129  )
        33           Si  tau(  33) = (   0.8688350   0.3815370   0.5031780  )
        34           Si  tau(  34) = (   0.3389400   0.7983910   0.9021010  )
        35           Si  tau(  35) = (   0.6013730   0.7767010   0.0680119  )
        36           Si  tau(  36) = (   0.8008410   0.0994177   0.5456520  )
        37           Si  tau(  37) = (   0.3989290   0.4571460   0.2964230  )
        38           Si  tau(  38) = (   0.1668740   0.4045410   0.4231930  )
        39           Si  tau(  39) = (   0.5329220   0.5607770   0.0287525  )
        40           Si  tau(  40) = (   0.2008660   0.9807880   0.1479290  )
        41           Si  tau(  41) = (   0.8979410   0.3022790   0.7138560  )
        42           Si  tau(  42) = (   0.9389090   0.5803140   0.6052450  )
        43           Si  tau(  43) = (   0.2566290   0.7200050   0.5412830  )
        44           Si  tau(  44) = (   0.0293102   0.1467140   0.1078840  )
        45           Si  tau(  45) = (   0.9795960   0.9380840   0.9493030  )
        46           Si  tau(  46) = (   0.8638030   0.2154300   0.9589220  )
        47           Si  tau(  47) = (   0.6524880   0.3779650   0.3975800  )
        48           Si  tau(  48) = (   0.3759730   0.2212730   0.9710520  )
        49           Si  tau(  49) = (   0.0406862   0.8431920   0.2286270  )
        50           Si  tau(  50) = (   0.8693480   0.8630930   0.4654950  )
        51           Si  tau(  51) = (   0.8266290   0.8513320   0.0755139  )
        52           Si  tau(  52) = (   0.7653340   0.4574250   0.0078852  )
        53           Si  tau(  53) = (   0.9344550   0.7424220   0.7651260  )
        54           Si  tau(  54) = (   0.6497890   0.8619780   0.6052860  )
        55           Si  tau(  55) = (   0.3967910   0.9986260   0.4444870  )
        56           Si  tau(  56) = (   0.0142687   0.6680450   0.3907540  )
        57           Si  tau(  57) = (   0.0316943   0.9343540   0.6122400  )
        58           Si  tau(  58) = (   0.5939900   0.9786620   0.3905820  )
        59           Si  tau(  59) = (   0.4188270   0.9252710   0.0798899  )
        60           Si  tau(  60) = (   0.7852160   0.0086279   0.2483760  )
        61           Si  tau(  61) = (   0.0944001   0.3673470   0.1147150  )
        62           Si  tau(  62) = (   0.4082000   0.4689240   0.5200920  )
        63           Si  tau(  63) = (   0.5297480   0.0684519   0.9775070  )
        64           Si  tau(  64) = (   0.4251550   0.7819910   0.6900670  )

     number of k points=     1
                       cart. coord. in units 2pi/alat
        k(    1) = (   0.0000000   0.0000000   0.0000000), wk =   2.0000000

     Dense  grid:    91866 G-vectors     FFT dimensions: (  72,  72,  72)

     Estimated max dynamical RAM per process >     135.05 MB

     Estimated total dynamical RAM >     517.75 MB

     Initial potential from superposition of free atoms

     starting charge     255.9608, renormalised to     256.0000
     Starting wfcs are  256 randomized atomic wfcs

     total cpu time spent up to now is        4.2 secs

     Self-consistent Calculation

     iteration #  1     ecut=    30.00 Ry     beta= 0.50
     Davidson diagonalization with overlap
     ethr =  1.00E-02,  avg # of iterations =  2.0

     Threshold (ethr) on eigenvalues was too large:
     Diagonalizing with lowered threshold

     Davidson diagonalization with overlap
     ethr =  3.96E-04,  avg # of iterations =  4.0

     total cpu time spent up to now is        4.3 secs

     total energy              =    -501.17987013 Ry
     estimated scf accuracy    <       1.27341103 Ry

     iteration #  2     ecut=    30.00 Ry     beta= 0.50
     Davidson diagonalization with overlap
     ethr =  4.97E-04,  avg # of iterations =  7.0

     total cpu time spent up to now is        4.4 secs

     total energy              =    -501.10501482 Ry
     estimated scf accuracy    <       1.46168001 Ry

     iteration #  3     ecut=    30.00 Ry     beta= 0.50
     Davidson diagonalization with overlap
     ethr =  4.97E-04,  avg # of iterations =  4.0

     total cpu time spent up to now is        4.5 secs

     total energy              =    -501.30022168 Ry
     estimated scf accuracy    <       0.99465625 Ry

     iteration #  4     ecut=    30.00 Ry     beta= 0.50
     Davidson diagonalization with overlap
     ethr =  3.89E-04,  avg # of iterations =  3.0

     total cpu time spent up to now is        4.6 secs

     total energy              =    -501.39082449 Ry
     estimated scf accuracy    <       0.14388190 Ry

     iteration #  5     ecut=    30.00 Ry     beta= 0.50
     Davidson diagonalization with overlap
     ethr =  5.62E-05,  avg # of iterations =  5.0

     total cpu time spent up to now is        4.7 secs

     total energy              =    -501.41214650 Ry
     estimated scf accuracy    <       0.06608724 Ry

     iteration #  6     ecut=    30.00 Ry     beta= 0.50
     Davidson diagonalization with overlap
     c_bands:  1 eigenvalues not converged
     ethr =  2.58E-05,  avg # of iterations = 20.0

     total cpu time spent up to now is        4.9 secs

     total energy              =    -501.42510786 Ry
     estimated scf accuracy    <       0.20180906 Ry

     iteration #  7     ecut=    30.00 Ry     beta= 0.50
     Davidson diagonalization with overlap
     ethr =  2.58E-05,  avg # of iterations =  3.0

     total cpu time spent up to now is        4.9 secs

     total energy              =    -501.42798327 Ry
     estimated scf accuracy    <       0.05525636 Ry

     iteration #  8     ecut=    30.00 Ry     beta= 0.50
     Davidson diagonalization with overlap
     ethr =  2.16E-05,  avg # of iterations =  3.0

     total cpu time spent up to now is        5.0 secs

     total energy              =    -501.42894430 Ry
     estimated scf accuracy    <       0.02007379 Ry

     iteration #  9     ecut=    30.00 Ry     beta= 0.50
     Davidson diagonalization with overlap
     ethr =  7.84E-06,  avg # of iterations = 12.0

     total cpu time spent up to now is        5.1 secs

     total energy              =    -501.43139859 Ry
     estimated scf accuracy    <       0.00659935 Ry

     iteration # 10     ecut=    30.00 Ry     beta= 0.50
     Davidson diagonalization with overlap
     ethr =  2.58E-06,  avg # of iterations = 12.0

     total cpu time spent up to now is        5.3 secs

     total energy              =    -501.43145981 Ry
     estimated scf accuracy    <       0.00248207 Ry

     iteration # 11     ecut=    30.00 Ry     beta= 0.50
     Davidson diagonalization with overlap
     ethr =  9.70E-07,  avg # of iterations = 16.0

     total cpu time spent up to now is        5.4 secs

     total energy              =    -501.43153771 Ry
     estimated scf accuracy    <       0.00666205 Ry

     iteration # 12     ecut=    30.00 Ry     beta= 0.50
     Davidson diagonalization with overlap
     ethr =  9.70E-07,  avg # of iterations = 17.0

     total cpu time spent up to now is        5.6 secs

     total energy              =    -501.43180329 Ry
     estimated scf accuracy    <       0.00335320 Ry

     iteration # 13     ecut=    30.00 Ry     beta= 0.50
     Davidson diagonalization with overlap
     ethr =  9.70E-07,  avg # of iterations = 11.0

     total cpu time spent up to now is        5.7 secs

     total energy              =    -501.43188470 Ry
     estimated scf accuracy    <       0.00138648 Ry

     iteration # 14     ecut=    30.00 Ry     beta= 0.50
     Davidson diagonalization with overlap
     ethr =  5.42E-07,  avg # of iterations =  8.0

     total cpu time spent up to now is        5.8 secs

     total energy              =    -501.43197094 Ry
     estimated scf accuracy    <       0.00025539 Ry

     iteration # 15     ecut=    30.00 Ry     beta= 0.50
     Davidson diagonalization with overlap
     c_bands:  1 eigenvalues not converged
     ethr =  9.98E-08,  avg # of iterations = 20.0

     total cpu time spent up to now is        6.0 secs

     total energy              =    -501.43199636 Ry
     estimated scf accuracy    <       0.00107774 Ry

     iteration # 16     ecut=    30.00 Ry     beta= 0.50
     Davidson diagonalization with overlap
     c_bands:  1 eigenvalues not converged
     ethr =  9.98E-08,  avg # of iterations = 20.0

     total cpu time spent up to now is        6.1 secs

     total energy              =    -501.43201839 Ry
     estimated scf accuracy    <       0.00035825 Ry

     iteration # 17     ecut=    30.00 Ry     beta= 0.50
     Davidson diagonalization with overlap
     c_bands:  1 eigenvalues not converged
     ethr =  9.98E-08,  avg # of iterations = 20.0

     total cpu time spent up to now is        6.3 secs

     total energy              =    -501.43202596 Ry
     estimated scf accuracy    <       0.00015880 Ry

     iteration # 18     ecut=    30.00 Ry     beta= 0.50
     Davidson diagonalization with overlap
     ethr =  6.20E-08,  avg # of iterations = 16.0

     total cpu time spent up to now is        6.4 secs

     total energy              =    -501.43203553 Ry
     estimated scf accuracy    <       0.00008349 Ry

     iteration # 19     ecut=    30.00 Ry     beta= 0.50
     Davidson diagonalization with overlap
     c_bands:  1 eigenvalues not converged
     ethr =  3.26E-08,  avg # of iterations = 20.0

     total cpu time spent up to now is        6.6 secs

     total energy              =    -501.43203910 Ry
     estimated scf accuracy    <       0.00003000 Ry

     iteration # 20     ecut=    30.00 Ry     beta= 0.50
     Davidson diagonalization with overlap
     c_bands:  1 eigenvalues not converged
     ethr =  1.17E-08,  avg # of iterations = 20.0

     total cpu time spent up to now is        6.7 secs

     total energy              =    -501.43204288 Ry
     estimated scf accuracy    <       0.00001677 Ry

     iteration # 21     ecut=    30.00 Ry     beta= 0.50
     Davidson diagonalization with overlap
     c_bands:  1 eigenvalues not converged
     ethr =  6.55E-09,  avg # of iterations = 20.0

     total cpu time spent up to now is        6.9 secs

     total energy              =    -501.43204315 Ry
     estimated scf accuracy    <       0.00002146 Ry

     iteration # 22     ecut=    30.00 Ry     beta= 0.50
     Davidson diagonalization with overlap
     ethr =  6.55E-09,  avg # of iterations = 10.0

     total cpu time spent up to now is        7.0 secs

     total energy              =    -501.43204308 Ry
     estimated scf accuracy    <       0.00002656 Ry

     iteration # 23     ecut=    30.00 Ry     beta= 0.50
     Davidson diagonalization with overlap
     ethr =  6.55E-09,  avg # of iterations =  3.0

     total cpu time spent up to now is        7.1 secs

     total energy              =    -501.43204298 Ry
     estimated scf accuracy    <       0.00001733 Ry

     iteration # 24     ecut=    30.00 Ry     beta= 0.50
     Davidson diagonalization with overlap
     ethr =  6.55E-09,  avg # of iterations =  2.0

     total cpu time spent up to now is        7.2 secs

     total energy              =    -501.43204225 Ry
     estimated scf accuracy    <       0.00001272 Ry

     iteration # 25     ecut=    30.00 Ry     beta= 0.50
     Davidson diagonalization with overlap
     ethr =  4.97E-09,  avg # of iterations =  3.0

     total cpu time spent up to now is        7.2 secs

     total energy              =    -501.43204160 Ry
     estimated scf accuracy    <       0.00000809 Ry

     iteration # 26     ecut=    30.00 Ry     beta= 0.50
     Davidson diagonalization with overlap
     c_bands:  1 eigenvalues not converged
     ethr =  3.16E-09,  avg # of iterations = 20.0

     total cpu time spent up to now is        7.4 secs

     total energy              =    -501.43204289 Ry
     estimated scf accuracy    <       0.00010361 Ry

     iteration # 27     ecut=    30.00 Ry     beta= 0.50
     Davidson diagonalization with overlap
     c_bands:  2 eigenvalues not converged
     ethr =  3.16E-09,  avg # of iterations = 20.0

     total cpu time spent up to now is        7.6 secs

     total energy              =    -501.43204231 Ry
     estimated scf accuracy    <       0.00006157 Ry

     iteration # 28     ecut=    30.00 Ry     beta= 0.50
     Davidson diagonalization with overlap
     c_bands:  1 eigenvalues not converged
     ethr =  3.16E-09,  avg # of iterations = 20.0

     total cpu time spent up to now is        7.7 secs

     total energy              =    -501.43204249 Ry
     estimated scf accuracy    <       0.00003508 Ry

     iteration # 29     ecut=    30.00 Ry     beta= 0.50
     Davidson diagonalization with overlap
     c_bands:  1 eigenvalues not converged
     ethr =  3.16E-09,  avg # of iterations = 20.0

     total cpu time spent up to now is        7.9 secs

     total energy              =    -501.43204298 Ry
     estimated scf accuracy    <       0.00001550 Ry

     iteration # 30     ecut=    30.00 Ry     beta= 0.50
     Davidson diagonalization with overlap
     ethr =  3.16E-09,  avg # of iterations = 19.0

     total cpu time spent up to now is        8.0 secs

     total energy              =    -501.43204302 Ry
     estimated scf accuracy    <       0.00000996 Ry

     iteration # 31     ecut=    30.00 Ry     beta= 0.50
     Davidson diagonalization with overlap
     ethr =  3.16E-09,  avg # of iterations =  2.0

     total cpu time spent up to now is        8.1 secs

     total energy              =    -501.43204285 Ry
     estimated scf accuracy    <       0.00000744 Ry

     iteration # 32     ecut=    30.00 Ry     beta= 0.50
     Davidson diagonalization with overlap
     ethr =  2.90E-09,  avg # of iterations =  2.0

     total cpu time spent up to now is        8.2 secs

     total energy              =    -501.43204285 Ry
     estimated scf accuracy    <       0.00000561 Ry

     iteration # 33     ecut=    30.00 Ry     beta= 0.50
     Davidson diagonalization with overlap
     c_bands:  1 eigenvalues not converged
     ethr =  2.19E-09,  avg # of iterations = 20.0

     total cpu time spent up to now is        8.3 secs

     End of self-consistent calculation

          k = 0.0000 0.0000 0.0000 ( 11492 PWs)   bands (ev):

    -5.4669  -4.5952  -4.4691  -4.4390  -4.2490  -4.1785  -3.8996  -3.5317
    -3.5246  -3.4318  -3.3204  -3.2835  -3.1516  -3.0697  -2.9712  -2.9430
    -2.8984  -2.6193  -2.4187  -2.3277  -2.2335  -2.1025  -2.0774  -1.8210
    -1.6646  -1.5373  -1.2254  -1.1323  -1.0538  -0.8818  -0.8718  -0.5176
    -0.4294  -0.3521  -0.2715  -0.2023  -0.0396   0.0375   0.0675   0.0886
     0.1892   0.2874   0.3353   0.4889   0.5930   0.6787   0.7627   0.7898
     0.8901   0.9595   1.0393   1.0755   1.2435   1.2868   1.4324   1.4973
     1.6320   1.7152   1.7712   1.8560   1.9381   2.0053   2.0654   2.1818
     2.3147   2.4655   2.5736   2.6083   2.6912   2.7653   2.7954   2.8453
     2.9582   3.0653   3.2303   3.2530   3.2937   3.4344   3.5286   3.7129
     3.8634   3.9385   4.1115   4.2526   4.2808   4.3513   4.3635   4.4907
     4.5479   4.6589   4.7113   4.7777   4.8161   4.8997   4.9427   4.9669
     5.1493   5.1802   5.2069   5.2951   5.3171   5.3455   5.4238   5.4734
     5.5083   5.5336   5.5963   5.6427   5.7170   5.7756   5.8501   6.0211
     6.0648   6.0972   6.1125   6.1686   6.2036   6.2617   6.2890   6.4165
     6.4494   6.4980   6.5900   6.6227   6.6602   6.7107   6.8343   6.8567

     highest occupied level (ev):     6.8567

!    total energy              =    -501.43204295 Ry
     estimated scf accuracy    <       0.00000082 Ry

     The total energy is the sum of the following terms:
     one-electron contribution =     175.00749854 Ry
     hartree contribution      =      28.99489064 Ry
     xc contribution           =    -150.73227370 Ry
     ewald contribution        =    -554.70215843 Ry

     convergence has been achieved in  33 iterations

     Forces acting on atoms (cartesian axes, Ry/au):

     atom    1 type  1   force =    -0.00644287   -0.01975052   -0.01257855
     atom    2 type  1   force =     0.00052476    0.00932440   -0.04144321
     atom    3 type  1   force =    -0.00499070    0.03018831    0.00640844
     atom    4 type  1   force =    -0.01606031    0.00018296   -0.00699894
     atom    5 type  1   force =     0.01033144    0.01870773   -0.02513864
     atom    6 type  1   force =    -0.00722348   -0.00448639   -0.00177154
     atom    7 type  1   force =     0.02437093   -0.00065185    0.01332530
     atom    8 type  1   force =     0.03231642   -0.00355932    0.00061491
     atom    9 type  1   force =     0.01371256   -0.02698775    0.04664238
     atom   10 type  1   force =     0.00063456    0.00423098    0.00214504
     atom   11 type  1   force =    -0.03371355    0.02343395   -0.04377704
     atom   12 type  1   force =     0.01678794   -0.00352887    0.02245552
     atom   13 type  1   force =     0.03116297    0.02685203    0.00453373
     atom   14 type  1   force =    -0.01336001   -0.00558503    0.03144430
     atom   15 type  1   force =     0.03519868   -0.00203420   -0.02157185
     atom   16 type  1   force =    -0.04554383   -0.06579144   -0.01668517
     atom   17 type  1   force =     0.04657338    0.02432798    0.02694189
     atom   18 type  1   force =     0.02861637   -0.00816703   -0.03271424
     atom   19 type  1   force =    -0.01357651   -0.01951202   -0.10098269
     atom   20 type  1   force =     0.01749663    0.00226844   -0.01033352
     atom   21 type  1   force =     0.02097782   -0.01555391   -0.00159650
     atom   22 type  1   force =    -0.00443441    0.00149331   -0.01443772
     atom   23 type  1   force =    -0.01808792    0.03696425   -0.03523556
     atom   24 type  1   force =    -0.01205360   -0.01869403    0.02978062
     atom   25 type  1   force =     0.01272679   -0.01665536    0.00983345
     atom   26 type  1   force =     0.00825990   -0.04080817    0.01021937
     atom   27 type  1   force =     0.01417430    0.05742743   -0.00968859
     atom   28 type  1   force =    -0.01873966   -0.00503298   -0.00484441
     atom   29 type  1   force =     0.01252844    0.01389924   -0.03492218
     atom   30 type  1   force =     0.00180998   -0.00087377    0.08448375
     atom   31 type  1   force =    -0.01229185    0.01629170   -0.00064041
     atom   32 type  1   force =    -0.01582773   -0.02952214    0.03551540
     atom   33 type  1   force =    -0.01421383    0.01052945   -0.01276656
     atom   34 type  1   force =    -0.03104375   -0.00533316    0.00840321
     atom   35 type  1   force =    -0.02119276   -0.01191105    0.01920127
     atom   36 type  1   force =    -0.02110638   -0.02156192    0.02060525
     atom   37 type  1   force =    -0.00602998    0.02047915    0.02315097
     atom   38 type  1   force =     0.01195522   -0.03181058   -0.03193209
     atom   39 type  1   force =     0.05889424    0.01388915   -0.02253411
     atom   40 type  1   force =    -0.01536499    0.01888435    0.01742232
     atom   41 type  1   force =    -0.00307148   -0.00792317    0.00922342
     atom   42 type  1   force =    -0.02408274    0.00885929   -0.01232095
     atom   43 type  1   force =     0.03001194   -0.06710387    0.01375885
     atom   44 type  1   force =     0.01734117    0.00657038   -0.01459807
     atom   45 type  1   force =     0.01001855    0.01771522   -0.02395116
     atom   46 type  1   force =     0.05005211    0.01607469   -0.04156283
     atom   47 type  1   force =    -0.00938864    0.02966278    0.01390282
     atom   48 type  1   force =    -0.01371845    0.03491767    0.00266380
     atom   49 type  1   force =     0.01705363   -0.01568964    0.01702633
     atom   50 type  1   force =    -0.00758901    0.01862127   -0.01114378
     atom   51 type  1   force =    -0.02082033    0.00128691    0.02525473
     atom   52 type  1   force =     0.00220136    0.01813147    0.11480372
     atom   53 type  1   force =    -0.02509452    0.01699847   -0.00325029
     atom   54 type  1   force =    -0.01648496    0.03143665    0.00553448
     atom   55 type  1   force =    -0.10329329    0.04586356   -0.00012029
     atom   56 type  1   force =    -0.02383463   -0.00546117   -0.00445358
     atom   57 type  1   force =    -0.00322605    0.01098991    0.02720499
     atom   58 type  1   force =     0.07551773   -0.01555586    0.00658205
     atom   59 type  1   force =    -0.01485703   -0.05742165   -0.00416169
     atom   60 type  1   force =    -0.00392121   -0.00201179    0.02140007
     atom   61 type  1   force =    -0.01630077   -0.01452020   -0.04135247
     atom   62 type  1   force =    -0.00104450   -0.02216491   -0.01428628
     atom   63 type  1   force =     0.00163945    0.01449162   -0.01561504
     atom   64 type  1   force =     0.01513646   -0.03533094   -0.00107242

     Total force =     0.373767     Total SCF correction =     0.001359


     Computing stress (Cartesian axis) and pressure

          total   stress  (Ry/bohr**3)                   (kbar)     P=      -31.44
  -0.00019934  -0.00001491  -0.00003311          -29.32       -2.19       -4.87
  -0.00001491  -0.00018820  -0.00004041           -2.19      -27.69       -5.94
  -0.00003311  -0.00004041  -0.00025354           -4.87       -5.94      -37.30

 
     init_run     :      0.93s CPU      4.10s WALL (       1 calls)
     electrons    :      3.93s CPU      4.17s WALL (       1 calls)
     forces       :      0.03s CPU      0.03s WALL (       1 calls)
     stress       :      0.12s CPU      0.13s WALL (       1 calls)

     Called by init_run:
     wfcinit      :      0.43s CPU      3.45s WALL (       1 calls)
                                        3.45s GPU  (       1 calls)
     potinit      :      0.03s CPU      0.12s WALL (       1 calls)
     hinit0       :      0.45s CPU      0.48s WALL (       1 calls)

     Called by electrons:
     c_bands      :      2.90s CPU      3.02s WALL (      34 calls)
     sum_band     :      0.49s CPU      0.57s WALL (      34 calls)
     v_of_rho     :      0.21s CPU      0.30s WALL (      34 calls)
     mix_rho      :      0.28s CPU      0.29s WALL (      34 calls)

     Called by c_bands:
     init_us_2    :      0.08s CPU      0.09s WALL (      69 calls)
     init_us_2:gp :      0.08s CPU      0.09s WALL (      69 calls)
     regterg      :      2.64s CPU      2.75s WALL (      34 calls)

     Called by *egterg:
     rdiaghg      :      1.36s CPU      2.00s WALL (     437 calls)
                                        1.93s GPU  (     437 calls)
     h_psi        :      1.32s CPU      3.79s WALL (     439 calls)
                                        3.78s GPU  (     439 calls)
     g_psi        :      0.00s CPU      0.01s WALL (     404 calls)
                                        0.01s GPU  (     404 calls)

     Called by h_psi:
     h_psi:calbec :      0.48s CPU      2.86s WALL (     439 calls)
                                        2.86s GPU  (     439 calls)
     vloc_psi     :      0.58s CPU      0.66s WALL (     439 calls)
                                        0.65s GPU  (     439 calls)
     add_vuspsi   :      0.20s CPU      0.25s WALL (     439 calls)
                                        0.24s GPU  (     439 calls)

     General routines
     calbec       :      0.48s CPU      2.86s WALL (     444 calls)
     fft          :      0.61s CPU      0.72s WALL (     279 calls)
                                        0.12s GPU  (     176 calls)
     ffts         :      0.05s CPU      0.05s WALL (      34 calls)
     fftw         :      0.68s CPU      0.88s WALL (    3540 calls)
                                        0.77s GPU  (    3540 calls)
 
     Parallel routines
 
     PWSCF        :      5.05s CPU      8.50s WALL

 
   This run was terminated on:  15:14:18   9May2023            

=------------------------------------------------------------------------------=
   JOB DONE.
=------------------------------------------------------------------------------=
