An instance of this daemon is already running

     Program PWSCF v.7.1 starts on  9May2023 at 15:23:16 

     This program is part of the open-source Quantum ESPRESSO suite
     for quantum simulation of materials; please cite
         "P. Giannozzi et al., J. Phys.:Condens. Matter 21 395502 (2009);
         "P. Giannozzi et al., J. Phys.:Condens. Matter 29 465901 (2017);
         "P. Giannozzi et al., J. Chem. Phys. 152 154105 (2020);
          URL http://www.quantum-espresso.org", 
     in publications or presentations arising from this work. More details at
     http://www.quantum-espresso.org/quote

     Parallel version (MPI & OpenMP), running on       4 processor cores
     Number of MPI processes:                 4
     Threads/MPI process:                     1

     MPI processes distributed on     1 nodes
     9625 MiB available memory on the printing compute node when the environment starts
 
     Reading input from pw-si-78.in
Warning: card &CELL ignored
Warning: card / ignored

     Current dimensions of program PWSCF are:
     Max number of different atomic species (ntypx) = 10
     Max number of k-points (npk) =  40000
     Max angular momentum in pseudopotentials (lmaxx) =  4

     IMPORTANT: XC functional enforced from input :
     Exchange-correlation= PBE
                           (   1   4   3   4   0   0   0)
     Any further DFT definition will be discarded
     Please, verify this is what you really want


     gamma-point specific algorithms are used
 
     K-points division:     npool     =       2
     R & G space division:  proc/nbgrp/npool/nimage =       2
     Subspace diagonalization in iterative solution of the eigenvalue problem:
     a serial algorithm will be used

     Message from routine divide_et_impera:
     suboptimal parallelization: some nodes have no k-points
 
     Parallelization info
     --------------------
     sticks:   dense  smooth     PW     G-vecs:    dense   smooth      PW
     Min        1953    1953    519                91863    91863   12442
     Max        1956    1956    522                91868    91868   12443
     Sum        3909    3909   1041               183731   183731   24885
 
     Using Slab Decomposition
 


     bravais-lattice index     =            0
     lattice parameter (alat)  =      20.2302  a.u.
     unit-cell volume          =    8279.4109 (a.u.)^3
     number of atoms/cell      =           64
     number of atomic types    =            1
     number of electrons       =       256.00
     number of Kohn-Sham states=          128
     kinetic-energy cutoff     =      30.0000  Ry
     charge density cutoff     =     120.0000  Ry
     scf convergence threshold =      1.0E-06
     mixing beta               =       0.5000
     number of iterations used =            8  plain     mixing
     Exchange-correlation= PBE
                           (   1   4   3   4   0   0   0)

     GPU acceleration is ACTIVE.
     GPU-aware MPI enabled

     Message from routine print_cuda_info:
     High GPU oversubscription detected. Are you sure this is what you want?

     celldm(1)=  20.230183  celldm(2)=   0.000000  celldm(3)=   0.000000
     celldm(4)=   0.000000  celldm(5)=   0.000000  celldm(6)=   0.000000

     crystal axes: (cart. coord. in units of alat)
               a(1) = (   1.000000   0.000000   0.000000 )  
               a(2) = (   0.000000   1.000000   0.000000 )  
               a(3) = (   0.000000   0.000000   1.000000 )  

     reciprocal axes: (cart. coord. in units 2 pi/alat)
               b(1) = (  1.000000  0.000000  0.000000 )  
               b(2) = (  0.000000  1.000000  0.000000 )  
               b(3) = (  0.000000  0.000000  1.000000 )  


     PseudoPot. # 1 for Si read from file:
     /home/ppiaggi/pseudos/Si_ONCV_PBE_sr.upf
     MD5 check sum: 8553c464762ac42b85b1eed164b4d029
     Pseudo is Norm-conserving, Zval =  4.0
     Generated using ONCVPSP code by D. R. Hamann
     Using radial grid of 1510 points,  4 beta functions with: 
                l(1) =   0
                l(2) =   0
                l(3) =   1
                l(4) =   1

     atomic species   valence    mass     pseudopotential
        Si             4.00    28.08500     Si( 1.00)

     No symmetry found



   Cartesian axes

     site n.     atom                  positions (alat units)
         1           Si  tau(   1) = (   0.3802130   0.6518110   0.8081930  )
         2           Si  tau(   2) = (   0.4355490   0.5050560   0.2816480  )
         3           Si  tau(   3) = (   0.9533150   0.2726080   0.7489170  )
         4           Si  tau(   4) = (   0.1002440   0.6442520   0.6654910  )
         5           Si  tau(   5) = (   0.7687620   0.0671125   0.8001400  )
         6           Si  tau(   6) = (   0.0627755   0.5486960   0.4175870  )
         7           Si  tau(   7) = (   0.5026970   0.6672210   0.4584210  )
         8           Si  tau(   8) = (   0.5824870   0.8016160   0.9473080  )
         9           Si  tau(   9) = (   0.2579720   0.4276390   0.4065670  )
        10           Si  tau(  10) = (   0.0321540   0.2535850   0.3920790  )
        11           Si  tau(  11) = (   0.3512690   0.9838250   0.5393950  )
        12           Si  tau(  12) = (   0.3023670   0.6109120   0.6056010  )
        13           Si  tau(  13) = (   0.1061350   0.1867490   0.6199170  )
        14           Si  tau(  14) = (   0.0620436   0.1662260   0.9308500  )
        15           Si  tau(  15) = (   0.7539370   0.3371390   0.8752330  )
        16           Si  tau(  16) = (   0.3160920   0.3215060   0.6173410  )
        17           Si  tau(  17) = (   0.6961210   0.5365390   0.7911270  )
        18           Si  tau(  18) = (   0.3203070   0.0910862   0.0555941  )
        19           Si  tau(  19) = (   0.6344760   0.1736270   0.1739590  )
        20           Si  tau(  20) = (   0.8452040   0.1444790   0.3317580  )
        21           Si  tau(  21) = (   0.2148960   0.8431610   0.2791010  )
        22           Si  tau(  22) = (   0.9054760   0.0402463   0.5635720  )
        23           Si  tau(  23) = (   0.4248510   0.9817280   0.8243700  )
        24           Si  tau(  24) = (   0.1601310   0.9304890   0.6354140  )
        25           Si  tau(  25) = (   0.3589590   0.2874340   0.1117460  )
        26           Si  tau(  26) = (   0.2887650   0.7674110   0.0700137  )
        27           Si  tau(  27) = (   0.3519310   0.5455610   0.0683028  )
        28           Si  tau(  28) = (   0.0878653   0.2629250   0.1432200  )
        29           Si  tau(  29) = (   0.6521440   0.9506040   0.3157430  )
        30           Si  tau(  30) = (   0.5603250   0.5739680   0.9395770  )
        31           Si  tau(  31) = (   0.1393790   0.4703100   0.0711864  )
        32           Si  tau(  32) = (   0.5999050   0.0750526   0.9608150  )
        33           Si  tau(  33) = (   0.4550460   0.9070540   0.1086770  )
        34           Si  tau(  34) = (   0.8272130   0.7106500   0.6981380  )
        35           Si  tau(  35) = (   0.9551710   0.9966910   0.2301820  )
        36           Si  tau(  36) = (   0.6822550   0.8708120   0.7306730  )
        37           Si  tau(  37) = (   0.8788960   0.0534157   0.0100288  )
        38           Si  tau(  38) = (   0.6481230   0.2366700   0.6834120  )
        39           Si  tau(  39) = (   0.1529730   0.7474350   0.8835510  )
        40           Si  tau(  40) = (   0.1130580   0.4611560   0.8593750  )
        41           Si  tau(  41) = (   0.1832810   0.9713580   0.8580140  )
        42           Si  tau(  42) = (   0.7468120   0.6566660   0.4700680  )
        43           Si  tau(  43) = (   0.6533610   0.0332384   0.5352830  )
        44           Si  tau(  44) = (   0.4949140   0.2964940   0.3043160  )
        45           Si  tau(  45) = (   0.8509370   0.4336870   0.4558460  )
        46           Si  tau(  46) = (   0.0113708   0.7742070   0.3486370  )
        47           Si  tau(  47) = (   0.3606300   0.4036430   0.8251350  )
        48           Si  tau(  48) = (   0.9739590   0.8433330   0.5539190  )
        49           Si  tau(  49) = (   0.4988390   0.2873010   0.9302330  )
        50           Si  tau(  50) = (   0.6194030   0.6204070   0.1971180  )
        51           Si  tau(  51) = (   0.9639640   0.5960180   0.1733830  )
        52           Si  tau(  52) = (   0.4721270   0.8026600   0.6603260  )
        53           Si  tau(  53) = (   0.6534910   0.3374950   0.4844440  )
        54           Si  tau(  54) = (   0.8282580   0.2916370   0.0890968  )
        55           Si  tau(  55) = (   0.1774600   0.0755253   0.2506880  )
        56           Si  tau(  56) = (   0.9256610   0.4949900   0.6698760  )
        57           Si  tau(  57) = (   0.3238890   0.1665310   0.4110320  )
        58           Si  tau(  58) = (   0.4565540   0.1636460   0.6837540  )
        59           Si  tau(  59) = (   0.7964800   0.7784000   0.2784790  )
        60           Si  tau(  60) = (   0.7893710   0.4819540   0.2203520  )
        61           Si  tau(  61) = (   0.9447160   0.6877020   0.9483160  )
        62           Si  tau(  62) = (   0.5319200   0.4787300   0.6332100  )
        63           Si  tau(  63) = (   0.4417400   0.8461920   0.3559820  )
        64           Si  tau(  64) = (   0.8116100   0.8326420   0.0261615  )

     number of k points=     1
                       cart. coord. in units 2pi/alat
        k(    1) = (   0.0000000   0.0000000   0.0000000), wk =   2.0000000

     Dense  grid:    91866 G-vectors     FFT dimensions: (  72,  72,  72)

     Estimated max dynamical RAM per process >     135.12 MB

     Estimated total dynamical RAM >     518.04 MB

     Initial potential from superposition of free atoms

     starting charge     255.9608, renormalised to     256.0000
     Starting wfcs are  256 randomized atomic wfcs

     total cpu time spent up to now is        4.4 secs

     Self-consistent Calculation

     iteration #  1     ecut=    30.00 Ry     beta= 0.50
     Davidson diagonalization with overlap
     ethr =  1.00E-02,  avg # of iterations =  2.0

     Threshold (ethr) on eigenvalues was too large:
     Diagonalizing with lowered threshold

     Davidson diagonalization with overlap
     ethr =  3.63E-04,  avg # of iterations =  4.0

     total cpu time spent up to now is        4.6 secs

     total energy              =    -501.49508913 Ry
     estimated scf accuracy    <       1.14766973 Ry

     iteration #  2     ecut=    30.00 Ry     beta= 0.50
     Davidson diagonalization with overlap
     ethr =  4.48E-04,  avg # of iterations =  7.0

     total cpu time spent up to now is        4.7 secs

     total energy              =    -501.33446641 Ry
     estimated scf accuracy    <       1.45917590 Ry

     iteration #  3     ecut=    30.00 Ry     beta= 0.50
     Davidson diagonalization with overlap
     ethr =  4.48E-04,  avg # of iterations = 10.0

     total cpu time spent up to now is        4.8 secs

     total energy              =    -501.44934490 Ry
     estimated scf accuracy    <       2.33646254 Ry

     iteration #  4     ecut=    30.00 Ry     beta= 0.50
     Davidson diagonalization with overlap
     ethr =  4.48E-04,  avg # of iterations =  7.0

     total cpu time spent up to now is        4.9 secs

     total energy              =    -501.61485311 Ry
     estimated scf accuracy    <       0.29832166 Ry

     iteration #  5     ecut=    30.00 Ry     beta= 0.50
     Davidson diagonalization with overlap
     ethr =  1.17E-04,  avg # of iterations = 19.0

     total cpu time spent up to now is        5.1 secs

     total energy              =    -501.65928166 Ry
     estimated scf accuracy    <       0.15028498 Ry

     iteration #  6     ecut=    30.00 Ry     beta= 0.50
     Davidson diagonalization with overlap
     ethr =  5.87E-05,  avg # of iterations =  8.0

     total cpu time spent up to now is        5.2 secs

     total energy              =    -501.67036388 Ry
     estimated scf accuracy    <       0.07489782 Ry

     iteration #  7     ecut=    30.00 Ry     beta= 0.50
     Davidson diagonalization with overlap
     ethr =  2.93E-05,  avg # of iterations =  6.0

     total cpu time spent up to now is        5.3 secs

     total energy              =    -501.67398604 Ry
     estimated scf accuracy    <       0.01893974 Ry

     iteration #  8     ecut=    30.00 Ry     beta= 0.50
     Davidson diagonalization with overlap
     c_bands:  1 eigenvalues not converged
     ethr =  7.40E-06,  avg # of iterations = 20.0

     total cpu time spent up to now is        5.5 secs

     total energy              =    -501.67710891 Ry
     estimated scf accuracy    <       0.03328274 Ry

     iteration #  9     ecut=    30.00 Ry     beta= 0.50
     Davidson diagonalization with overlap
     ethr =  7.40E-06,  avg # of iterations =  7.0

     total cpu time spent up to now is        5.6 secs

     total energy              =    -501.67755452 Ry
     estimated scf accuracy    <       0.01300281 Ry

     iteration # 10     ecut=    30.00 Ry     beta= 0.50
     Davidson diagonalization with overlap
     ethr =  5.08E-06,  avg # of iterations =  2.0

     total cpu time spent up to now is        5.7 secs

     total energy              =    -501.67644219 Ry
     estimated scf accuracy    <       0.00760898 Ry

     iteration # 11     ecut=    30.00 Ry     beta= 0.50
     Davidson diagonalization with overlap
     c_bands:  1 eigenvalues not converged
     ethr =  2.97E-06,  avg # of iterations = 20.0

     total cpu time spent up to now is        5.8 secs

     total energy              =    -501.67965032 Ry
     estimated scf accuracy    <       0.02197772 Ry

     iteration # 12     ecut=    30.00 Ry     beta= 0.50
     Davidson diagonalization with overlap
     ethr =  2.97E-06,  avg # of iterations = 16.0

     total cpu time spent up to now is        6.0 secs

     total energy              =    -501.67962250 Ry
     estimated scf accuracy    <       0.01778363 Ry

     iteration # 13     ecut=    30.00 Ry     beta= 0.50
     Davidson diagonalization with overlap
     ethr =  2.97E-06,  avg # of iterations =  2.0

     total cpu time spent up to now is        6.0 secs

     total energy              =    -501.67830489 Ry
     estimated scf accuracy    <       0.01385799 Ry

     iteration # 14     ecut=    30.00 Ry     beta= 0.50
     Davidson diagonalization with overlap
     ethr =  2.97E-06,  avg # of iterations =  2.0

     total cpu time spent up to now is        6.1 secs

     total energy              =    -501.67815220 Ry
     estimated scf accuracy    <       0.00826249 Ry

     iteration # 15     ecut=    30.00 Ry     beta= 0.50
     Davidson diagonalization with overlap
     ethr =  2.97E-06,  avg # of iterations =  1.0

     total cpu time spent up to now is        6.2 secs

     total energy              =    -501.67773832 Ry
     estimated scf accuracy    <       0.00641518 Ry

     iteration # 16     ecut=    30.00 Ry     beta= 0.50
     Davidson diagonalization with overlap
     ethr =  2.51E-06,  avg # of iterations =  1.0

     total cpu time spent up to now is        6.2 secs

     total energy              =    -501.67719042 Ry
     estimated scf accuracy    <       0.00420399 Ry

     iteration # 17     ecut=    30.00 Ry     beta= 0.50
     Davidson diagonalization with overlap
     c_bands:  1 eigenvalues not converged
     ethr =  1.64E-06,  avg # of iterations = 20.0

     total cpu time spent up to now is        6.4 secs

     total energy              =    -501.67903441 Ry
     estimated scf accuracy    <       0.01895385 Ry

     iteration # 18     ecut=    30.00 Ry     beta= 0.50
     Davidson diagonalization with overlap
     ethr =  1.64E-06,  avg # of iterations = 13.0

     total cpu time spent up to now is        6.5 secs

     total energy              =    -501.67910955 Ry
     estimated scf accuracy    <       0.01415024 Ry

     iteration # 19     ecut=    30.00 Ry     beta= 0.50
     Davidson diagonalization with overlap
     ethr =  1.64E-06,  avg # of iterations =  1.0

     total cpu time spent up to now is        6.6 secs

     total energy              =    -501.67862609 Ry
     estimated scf accuracy    <       0.01261255 Ry

     iteration # 20     ecut=    30.00 Ry     beta= 0.50
     Davidson diagonalization with overlap
     ethr =  1.64E-06,  avg # of iterations =  1.0

     total cpu time spent up to now is        6.6 secs

     total energy              =    -501.67853272 Ry
     estimated scf accuracy    <       0.01013219 Ry

     iteration # 21     ecut=    30.00 Ry     beta= 0.50
     Davidson diagonalization with overlap
     ethr =  1.64E-06,  avg # of iterations =  1.0

     total cpu time spent up to now is        6.7 secs

     total energy              =    -501.67807524 Ry
     estimated scf accuracy    <       0.00927391 Ry

     iteration # 22     ecut=    30.00 Ry     beta= 0.50
     Davidson diagonalization with overlap
     ethr =  1.64E-06,  avg # of iterations =  1.0

     total cpu time spent up to now is        6.8 secs

     total energy              =    -501.67776461 Ry
     estimated scf accuracy    <       0.00721819 Ry

     iteration # 23     ecut=    30.00 Ry     beta= 0.50
     Davidson diagonalization with overlap
     ethr =  1.64E-06,  avg # of iterations =  1.0

     total cpu time spent up to now is        6.8 secs

     total energy              =    -501.67751128 Ry
     estimated scf accuracy    <       0.00563822 Ry

     iteration # 24     ecut=    30.00 Ry     beta= 0.50
     Davidson diagonalization with overlap
     ethr =  1.64E-06,  avg # of iterations =  1.0

     total cpu time spent up to now is        6.9 secs

     total energy              =    -501.67737191 Ry
     estimated scf accuracy    <       0.00434846 Ry

     iteration # 25     ecut=    30.00 Ry     beta= 0.50
     Davidson diagonalization with overlap
     ethr =  1.64E-06,  avg # of iterations =  1.0

     total cpu time spent up to now is        7.0 secs

     total energy              =    -501.67619291 Ry
     estimated scf accuracy    <       0.00342995 Ry

     iteration # 26     ecut=    30.00 Ry     beta= 0.50
     Davidson diagonalization with overlap
     c_bands:  1 eigenvalues not converged
     ethr =  1.34E-06,  avg # of iterations = 20.0

     total cpu time spent up to now is        7.1 secs

     total energy              =    -501.68269958 Ry
     estimated scf accuracy    <       0.03867324 Ry

     iteration # 27     ecut=    30.00 Ry     beta= 0.50
     Davidson diagonalization with overlap
     ethr =  1.34E-06,  avg # of iterations =  2.0

     total cpu time spent up to now is        7.2 secs

     total energy              =    -501.68199350 Ry
     estimated scf accuracy    <       0.03381277 Ry

     iteration # 28     ecut=    30.00 Ry     beta= 0.50
     Davidson diagonalization with overlap
     ethr =  1.34E-06,  avg # of iterations =  1.0

     total cpu time spent up to now is        7.3 secs

     total energy              =    -501.67927943 Ry
     estimated scf accuracy    <       0.03030214 Ry

     iteration # 29     ecut=    30.00 Ry     beta= 0.50
     Davidson diagonalization with overlap
     c_bands:  1 eigenvalues not converged
     ethr =  1.34E-06,  avg # of iterations = 20.0

     total cpu time spent up to now is        7.5 secs

     total energy              =    -501.67913301 Ry
     estimated scf accuracy    <       0.01278478 Ry

     iteration # 30     ecut=    30.00 Ry     beta= 0.50
     Davidson diagonalization with overlap
     ethr =  1.34E-06,  avg # of iterations =  2.0

     total cpu time spent up to now is        7.5 secs

     total energy              =    -501.67870094 Ry
     estimated scf accuracy    <       0.00965850 Ry

     iteration # 31     ecut=    30.00 Ry     beta= 0.50
     Davidson diagonalization with overlap
     ethr =  1.34E-06,  avg # of iterations =  1.0

     total cpu time spent up to now is        7.6 secs

     total energy              =    -501.67849609 Ry
     estimated scf accuracy    <       0.00767333 Ry

     iteration # 32     ecut=    30.00 Ry     beta= 0.50
     Davidson diagonalization with overlap
     ethr =  1.34E-06,  avg # of iterations =  1.0

     total cpu time spent up to now is        7.7 secs

     total energy              =    -501.67853383 Ry
     estimated scf accuracy    <       0.00645896 Ry

     iteration # 33     ecut=    30.00 Ry     beta= 0.50
     Davidson diagonalization with overlap
     ethr =  1.34E-06,  avg # of iterations =  1.0

     total cpu time spent up to now is        7.7 secs

     total energy              =    -501.67923565 Ry
     estimated scf accuracy    <       0.00609993 Ry

     iteration # 34     ecut=    30.00 Ry     beta= 0.50
     Davidson diagonalization with overlap
     ethr =  1.34E-06,  avg # of iterations =  1.0

     total cpu time spent up to now is        7.8 secs

     total energy              =    -501.67627964 Ry
     estimated scf accuracy    <       0.00815444 Ry

     iteration # 35     ecut=    30.00 Ry     beta= 0.50
     Davidson diagonalization with overlap
     c_bands:  1 eigenvalues not converged
     ethr =  1.34E-06,  avg # of iterations = 20.0

     total cpu time spent up to now is        8.0 secs

     total energy              =    -501.68131136 Ry
     estimated scf accuracy    <       0.02880271 Ry

     iteration # 36     ecut=    30.00 Ry     beta= 0.50
     Davidson diagonalization with overlap
     ethr =  1.34E-06,  avg # of iterations = 17.0

     total cpu time spent up to now is        8.1 secs

     total energy              =    -501.68100366 Ry
     estimated scf accuracy    <       0.02612746 Ry

     iteration # 37     ecut=    30.00 Ry     beta= 0.50
     Davidson diagonalization with overlap
     ethr =  1.34E-06,  avg # of iterations =  1.0

     total cpu time spent up to now is        8.2 secs

     total energy              =    -501.68025171 Ry
     estimated scf accuracy    <       0.02289142 Ry

     iteration # 38     ecut=    30.00 Ry     beta= 0.50
     Davidson diagonalization with overlap
     ethr =  1.34E-06,  avg # of iterations =  1.0

     total cpu time spent up to now is        8.2 secs

     total energy              =    -501.67991862 Ry
     estimated scf accuracy    <       0.01973183 Ry

     iteration # 39     ecut=    30.00 Ry     beta= 0.50
     Davidson diagonalization with overlap
     ethr =  1.34E-06,  avg # of iterations =  1.0

     total cpu time spent up to now is        8.3 secs

     total energy              =    -501.67791622 Ry
     estimated scf accuracy    <       0.01820315 Ry

     iteration # 40     ecut=    30.00 Ry     beta= 0.50
     Davidson diagonalization with overlap
     c_bands:  1 eigenvalues not converged
     ethr =  1.34E-06,  avg # of iterations = 20.0

     total cpu time spent up to now is        8.5 secs

     total energy              =    -501.67869143 Ry
     estimated scf accuracy    <       0.00415761 Ry

     iteration # 41     ecut=    30.00 Ry     beta= 0.50
     Davidson diagonalization with overlap
     ethr =  1.34E-06,  avg # of iterations = 13.0

     total cpu time spent up to now is        8.6 secs

     total energy              =    -501.67886466 Ry
     estimated scf accuracy    <       0.00404880 Ry

     iteration # 42     ecut=    30.00 Ry     beta= 0.50
     Davidson diagonalization with overlap
     ethr =  1.34E-06,  avg # of iterations =  1.0

     total cpu time spent up to now is        8.6 secs

     total energy              =    -501.67878473 Ry
     estimated scf accuracy    <       0.00364530 Ry

     iteration # 43     ecut=    30.00 Ry     beta= 0.50
     Davidson diagonalization with overlap
     ethr =  1.34E-06,  avg # of iterations =  1.0

     total cpu time spent up to now is        8.7 secs

     total energy              =    -501.67894319 Ry
     estimated scf accuracy    <       0.00319264 Ry

     iteration # 44     ecut=    30.00 Ry     beta= 0.50
     Davidson diagonalization with overlap
     c_bands:  1 eigenvalues not converged
     ethr =  1.25E-06,  avg # of iterations = 20.0

     total cpu time spent up to now is        8.9 secs

     total energy              =    -501.68049805 Ry
     estimated scf accuracy    <       0.02742943 Ry

     iteration # 45     ecut=    30.00 Ry     beta= 0.50
     Davidson diagonalization with overlap
     ethr =  1.25E-06,  avg # of iterations =  8.0

     total cpu time spent up to now is        9.0 secs

     total energy              =    -501.67987843 Ry
     estimated scf accuracy    <       0.01990427 Ry

     iteration # 46     ecut=    30.00 Ry     beta= 0.50
     Davidson diagonalization with overlap
     ethr =  1.25E-06,  avg # of iterations =  1.0

     total cpu time spent up to now is        9.0 secs

     total energy              =    -501.67863663 Ry
     estimated scf accuracy    <       0.01621597 Ry

     iteration # 47     ecut=    30.00 Ry     beta= 0.50
     Davidson diagonalization with overlap
     ethr =  1.25E-06,  avg # of iterations =  2.0

     total cpu time spent up to now is        9.1 secs

     total energy              =    -501.67783760 Ry
     estimated scf accuracy    <       0.01090374 Ry

     iteration # 48     ecut=    30.00 Ry     beta= 0.50
     Davidson diagonalization with overlap
     ethr =  1.25E-06,  avg # of iterations =  2.0

     total cpu time spent up to now is        9.2 secs

     total energy              =    -501.67699480 Ry
     estimated scf accuracy    <       0.00673346 Ry

     iteration # 49     ecut=    30.00 Ry     beta= 0.50
     Davidson diagonalization with overlap
     ethr =  1.25E-06,  avg # of iterations =  7.0

     total cpu time spent up to now is        9.3 secs

     total energy              =    -501.67703410 Ry
     estimated scf accuracy    <       0.00534358 Ry

     iteration # 50     ecut=    30.00 Ry     beta= 0.50
     Davidson diagonalization with overlap
     ethr =  1.25E-06,  avg # of iterations =  3.0

     total cpu time spent up to now is        9.4 secs

     total energy              =    -501.67698652 Ry
     estimated scf accuracy    <       0.00166267 Ry

     iteration # 51     ecut=    30.00 Ry     beta= 0.50
     Davidson diagonalization with overlap
     c_bands:  1 eigenvalues not converged
     ethr =  6.49E-07,  avg # of iterations = 20.0

     total cpu time spent up to now is        9.5 secs

     total energy              =    -501.68057804 Ry
     estimated scf accuracy    <       0.02926094 Ry

     iteration # 52     ecut=    30.00 Ry     beta= 0.50
     Davidson diagonalization with overlap
     ethr =  6.49E-07,  avg # of iterations =  3.0

     total cpu time spent up to now is        9.6 secs

     total energy              =    -501.67721254 Ry
     estimated scf accuracy    <       0.02291055 Ry

     iteration # 53     ecut=    30.00 Ry     beta= 0.50
     Davidson diagonalization with overlap
     c_bands:  1 eigenvalues not converged
     ethr =  6.49E-07,  avg # of iterations = 20.0

     total cpu time spent up to now is        9.8 secs

     total energy              =    -501.67841827 Ry
     estimated scf accuracy    <       0.00682686 Ry

     iteration # 54     ecut=    30.00 Ry     beta= 0.50
     Davidson diagonalization with overlap
     c_bands:  1 eigenvalues not converged
     ethr =  6.49E-07,  avg # of iterations = 20.0

     total cpu time spent up to now is       10.0 secs

     total energy              =    -501.67970321 Ry
     estimated scf accuracy    <       0.01013355 Ry

     iteration # 55     ecut=    30.00 Ry     beta= 0.50
     Davidson diagonalization with overlap
     ethr =  6.49E-07,  avg # of iterations = 19.0

     total cpu time spent up to now is       10.1 secs

     total energy              =    -501.67912817 Ry
     estimated scf accuracy    <       0.01156452 Ry

     iteration # 56     ecut=    30.00 Ry     beta= 0.50
     Davidson diagonalization with overlap
     ethr =  6.49E-07,  avg # of iterations =  1.0

     total cpu time spent up to now is       10.2 secs

     total energy              =    -501.67946549 Ry
     estimated scf accuracy    <       0.00916543 Ry

     iteration # 57     ecut=    30.00 Ry     beta= 0.50
     Davidson diagonalization with overlap
     ethr =  6.49E-07,  avg # of iterations =  1.0

     total cpu time spent up to now is       10.2 secs

     total energy              =    -501.68068428 Ry
     estimated scf accuracy    <       0.00992507 Ry

     iteration # 58     ecut=    30.00 Ry     beta= 0.50
     Davidson diagonalization with overlap
     c_bands:  1 eigenvalues not converged
     ethr =  6.49E-07,  avg # of iterations = 20.0

     total cpu time spent up to now is       10.4 secs

     total energy              =    -501.68056863 Ry
     estimated scf accuracy    <       0.02339488 Ry

     iteration # 59     ecut=    30.00 Ry     beta= 0.50
     Davidson diagonalization with overlap
     ethr =  6.49E-07,  avg # of iterations =  7.0

     total cpu time spent up to now is       10.5 secs

     total energy              =    -501.67852118 Ry
     estimated scf accuracy    <       0.02124326 Ry

     iteration # 60     ecut=    30.00 Ry     beta= 0.50
     Davidson diagonalization with overlap
     c_bands:  1 eigenvalues not converged
     ethr =  6.49E-07,  avg # of iterations = 20.0

     total cpu time spent up to now is       10.7 secs

     total energy              =    -501.67849653 Ry
     estimated scf accuracy    <       0.01050813 Ry

     iteration # 61     ecut=    30.00 Ry     beta= 0.50
     Davidson diagonalization with overlap
     c_bands:  1 eigenvalues not converged
     ethr =  6.49E-07,  avg # of iterations = 20.0

     total cpu time spent up to now is       10.8 secs

     total energy              =    -501.67844553 Ry
     estimated scf accuracy    <       0.00569837 Ry

     iteration # 62     ecut=    30.00 Ry     beta= 0.50
     Davidson diagonalization with overlap
     c_bands:  1 eigenvalues not converged
     ethr =  6.49E-07,  avg # of iterations = 20.0

     total cpu time spent up to now is       11.0 secs

     total energy              =    -501.67864345 Ry
     estimated scf accuracy    <       0.00468848 Ry

     iteration # 63     ecut=    30.00 Ry     beta= 0.50
     Davidson diagonalization with overlap
     c_bands:  1 eigenvalues not converged
     ethr =  6.49E-07,  avg # of iterations = 20.0

     total cpu time spent up to now is       11.2 secs

     total energy              =    -501.68034983 Ry
     estimated scf accuracy    <       0.04169613 Ry

     iteration # 64     ecut=    30.00 Ry     beta= 0.50
     Davidson diagonalization with overlap
     ethr =  6.49E-07,  avg # of iterations = 12.0

     total cpu time spent up to now is       11.3 secs

     total energy              =    -501.67902135 Ry
     estimated scf accuracy    <       0.02285010 Ry

     iteration # 65     ecut=    30.00 Ry     beta= 0.50
     Davidson diagonalization with overlap
     ethr =  6.49E-07,  avg # of iterations =  3.0

     total cpu time spent up to now is       11.4 secs

     total energy              =    -501.67825599 Ry
     estimated scf accuracy    <       0.01448933 Ry

     iteration # 66     ecut=    30.00 Ry     beta= 0.50
     Davidson diagonalization with overlap
     c_bands:  1 eigenvalues not converged
     ethr =  6.49E-07,  avg # of iterations = 20.0

     total cpu time spent up to now is       11.6 secs

     total energy              =    -501.67875885 Ry
     estimated scf accuracy    <       0.00351408 Ry

     iteration # 67     ecut=    30.00 Ry     beta= 0.50
     Davidson diagonalization with overlap
     ethr =  6.49E-07,  avg # of iterations = 14.0

     total cpu time spent up to now is       11.7 secs

     total energy              =    -501.67883742 Ry
     estimated scf accuracy    <       0.00339437 Ry

     iteration # 68     ecut=    30.00 Ry     beta= 0.50
     Davidson diagonalization with overlap
     ethr =  6.49E-07,  avg # of iterations =  1.0

     total cpu time spent up to now is       11.7 secs

     total energy              =    -501.67855143 Ry
     estimated scf accuracy    <       0.00330039 Ry

     iteration # 69     ecut=    30.00 Ry     beta= 0.50
     Davidson diagonalization with overlap
     c_bands:  1 eigenvalues not converged
     ethr =  6.49E-07,  avg # of iterations = 20.0

     total cpu time spent up to now is       11.9 secs

     total energy              =    -501.67818276 Ry
     estimated scf accuracy    <       0.01808884 Ry

     iteration # 70     ecut=    30.00 Ry     beta= 0.50
     Davidson diagonalization with overlap
     ethr =  6.49E-07,  avg # of iterations = 18.0

     total cpu time spent up to now is       12.1 secs

     total energy              =    -501.67848075 Ry
     estimated scf accuracy    <       0.01170105 Ry

     iteration # 71     ecut=    30.00 Ry     beta= 0.50
     Davidson diagonalization with overlap
     ethr =  6.49E-07,  avg # of iterations =  1.0

     total cpu time spent up to now is       12.1 secs

     total energy              =    -501.67829087 Ry
     estimated scf accuracy    <       0.01062414 Ry

     iteration # 72     ecut=    30.00 Ry     beta= 0.50
     Davidson diagonalization with overlap
     ethr =  6.49E-07,  avg # of iterations =  1.0

     total cpu time spent up to now is       12.2 secs

     total energy              =    -501.67821510 Ry
     estimated scf accuracy    <       0.00974160 Ry

     iteration # 73     ecut=    30.00 Ry     beta= 0.50
     Davidson diagonalization with overlap
     ethr =  6.49E-07,  avg # of iterations =  1.0

     total cpu time spent up to now is       12.3 secs

     total energy              =    -501.67822891 Ry
     estimated scf accuracy    <       0.00912843 Ry

     iteration # 74     ecut=    30.00 Ry     beta= 0.50
     Davidson diagonalization with overlap
     ethr =  6.49E-07,  avg # of iterations =  1.0

     total cpu time spent up to now is       12.4 secs

     total energy              =    -501.67613846 Ry
     estimated scf accuracy    <       0.00894213 Ry

     iteration # 75     ecut=    30.00 Ry     beta= 0.50
     Davidson diagonalization with overlap
     c_bands:  1 eigenvalues not converged
     ethr =  6.49E-07,  avg # of iterations = 20.0

     total cpu time spent up to now is       12.5 secs

     total energy              =    -501.67809563 Ry
     estimated scf accuracy    <       0.04221592 Ry

     iteration # 76     ecut=    30.00 Ry     beta= 0.50
     Davidson diagonalization with overlap
     ethr =  6.49E-07,  avg # of iterations = 14.0

     total cpu time spent up to now is       12.7 secs

     total energy              =    -501.67906104 Ry
     estimated scf accuracy    <       0.01299965 Ry

     iteration # 77     ecut=    30.00 Ry     beta= 0.50
     Davidson diagonalization with overlap
     ethr =  6.49E-07,  avg # of iterations =  3.0

     total cpu time spent up to now is       12.8 secs

     total energy              =    -501.67855646 Ry
     estimated scf accuracy    <       0.01045258 Ry

     iteration # 78     ecut=    30.00 Ry     beta= 0.50
     Davidson diagonalization with overlap
     c_bands:  1 eigenvalues not converged
     ethr =  6.49E-07,  avg # of iterations = 20.0

     total cpu time spent up to now is       12.9 secs

     total energy              =    -501.67894751 Ry
     estimated scf accuracy    <       0.00543573 Ry

     iteration # 79     ecut=    30.00 Ry     beta= 0.50
     Davidson diagonalization with overlap
     ethr =  6.49E-07,  avg # of iterations = 12.0

     total cpu time spent up to now is       13.1 secs

     total energy              =    -501.67898182 Ry
     estimated scf accuracy    <       0.00418800 Ry

     iteration # 80     ecut=    30.00 Ry     beta= 0.50
     Davidson diagonalization with overlap
     ethr =  6.49E-07,  avg # of iterations =  1.0

     total cpu time spent up to now is       13.1 secs

     total energy              =    -501.67898812 Ry
     estimated scf accuracy    <       0.00392189 Ry

     iteration # 81     ecut=    30.00 Ry     beta= 0.50
     Davidson diagonalization with overlap
     ethr =  6.49E-07,  avg # of iterations =  1.0

     total cpu time spent up to now is       13.2 secs

     total energy              =    -501.67899497 Ry
     estimated scf accuracy    <       0.00385431 Ry

     iteration # 82     ecut=    30.00 Ry     beta= 0.50
     Davidson diagonalization with overlap
     ethr =  6.49E-07,  avg # of iterations =  1.0

     total cpu time spent up to now is       13.3 secs

     total energy              =    -501.67900694 Ry
     estimated scf accuracy    <       0.00382635 Ry

     iteration # 83     ecut=    30.00 Ry     beta= 0.50
     Davidson diagonalization with overlap
     ethr =  6.49E-07,  avg # of iterations =  1.0

     total cpu time spent up to now is       13.3 secs

     total energy              =    -501.67802868 Ry
     estimated scf accuracy    <       0.00382931 Ry

     iteration # 84     ecut=    30.00 Ry     beta= 0.50
     Davidson diagonalization with overlap
     c_bands:  1 eigenvalues not converged
     ethr =  6.49E-07,  avg # of iterations = 20.0

     total cpu time spent up to now is       13.5 secs

     total energy              =    -501.67652705 Ry
     estimated scf accuracy    <       0.05984877 Ry

     iteration # 85     ecut=    30.00 Ry     beta= 0.50
     Davidson diagonalization with overlap
     ethr =  6.49E-07,  avg # of iterations = 18.0

     total cpu time spent up to now is       13.7 secs

     total energy              =    -501.67836173 Ry
     estimated scf accuracy    <       0.01974465 Ry

     iteration # 86     ecut=    30.00 Ry     beta= 0.50
     Davidson diagonalization with overlap
     c_bands:  1 eigenvalues not converged
     ethr =  6.49E-07,  avg # of iterations = 20.0

     total cpu time spent up to now is       13.9 secs

     total energy              =    -501.67817314 Ry
     estimated scf accuracy    <       0.00842958 Ry

     iteration # 87     ecut=    30.00 Ry     beta= 0.50
     Davidson diagonalization with overlap
     c_bands:  1 eigenvalues not converged
     ethr =  6.49E-07,  avg # of iterations = 20.0

     total cpu time spent up to now is       14.0 secs

     total energy              =    -501.67766307 Ry
     estimated scf accuracy    <       0.01491991 Ry

     iteration # 88     ecut=    30.00 Ry     beta= 0.50
     Davidson diagonalization with overlap
     c_bands:  1 eigenvalues not converged
     ethr =  6.49E-07,  avg # of iterations = 20.0

     total cpu time spent up to now is       14.2 secs

     total energy              =    -501.67827066 Ry
     estimated scf accuracy    <       0.01452718 Ry

     iteration # 89     ecut=    30.00 Ry     beta= 0.50
     Davidson diagonalization with overlap
     c_bands:  1 eigenvalues not converged
     ethr =  6.49E-07,  avg # of iterations = 20.0

     total cpu time spent up to now is       14.4 secs

     total energy              =    -501.67825152 Ry
     estimated scf accuracy    <       0.01343401 Ry

     iteration # 90     ecut=    30.00 Ry     beta= 0.50
     Davidson diagonalization with overlap
     ethr =  6.49E-07,  avg # of iterations =  2.0

     total cpu time spent up to now is       14.4 secs

     total energy              =    -501.67842955 Ry
     estimated scf accuracy    <       0.01232577 Ry

     iteration # 91     ecut=    30.00 Ry     beta= 0.50
     Davidson diagonalization with overlap
     ethr =  6.49E-07,  avg # of iterations =  1.0

     total cpu time spent up to now is       14.5 secs

     total energy              =    -501.67796279 Ry
     estimated scf accuracy    <       0.01267107 Ry

     iteration # 92     ecut=    30.00 Ry     beta= 0.50
     Davidson diagonalization with overlap
     ethr =  6.49E-07,  avg # of iterations =  3.0

     total cpu time spent up to now is       14.6 secs

     total energy              =    -501.67469315 Ry
     estimated scf accuracy    <       0.01128208 Ry

     iteration # 93     ecut=    30.00 Ry     beta= 0.50
     Davidson diagonalization with overlap
     c_bands:  1 eigenvalues not converged
     ethr =  6.49E-07,  avg # of iterations = 20.0

     total cpu time spent up to now is       14.8 secs

     total energy              =    -501.67993478 Ry
     estimated scf accuracy    <       0.03027728 Ry

     iteration # 94     ecut=    30.00 Ry     beta= 0.50
     Davidson diagonalization with overlap
     ethr =  6.49E-07,  avg # of iterations = 12.0

     total cpu time spent up to now is       14.9 secs

     total energy              =    -501.68008049 Ry
     estimated scf accuracy    <       0.01831533 Ry

     iteration # 95     ecut=    30.00 Ry     beta= 0.50
     Davidson diagonalization with overlap
     ethr =  6.49E-07,  avg # of iterations =  9.0

     total cpu time spent up to now is       15.0 secs

     total energy              =    -501.68000799 Ry
     estimated scf accuracy    <       0.01179555 Ry

     iteration # 96     ecut=    30.00 Ry     beta= 0.50
     Davidson diagonalization with overlap
     ethr =  6.49E-07,  avg # of iterations =  2.0

     total cpu time spent up to now is       15.1 secs

     total energy              =    -501.67909571 Ry
     estimated scf accuracy    <       0.00999770 Ry

     iteration # 97     ecut=    30.00 Ry     beta= 0.50
     Davidson diagonalization with overlap
     ethr =  6.49E-07,  avg # of iterations =  3.0

     total cpu time spent up to now is       15.2 secs

     total energy              =    -501.67910651 Ry
     estimated scf accuracy    <       0.00617244 Ry

     iteration # 98     ecut=    30.00 Ry     beta= 0.50
     Davidson diagonalization with overlap
     ethr =  6.49E-07,  avg # of iterations =  2.0

     total cpu time spent up to now is       15.2 secs

     total energy              =    -501.67901909 Ry
     estimated scf accuracy    <       0.00557637 Ry

     iteration # 99     ecut=    30.00 Ry     beta= 0.50
     Davidson diagonalization with overlap
     ethr =  6.49E-07,  avg # of iterations =  1.0

     total cpu time spent up to now is       15.3 secs

     total energy              =    -501.67855506 Ry
     estimated scf accuracy    <       0.00504351 Ry

     iteration #100     ecut=    30.00 Ry     beta= 0.50
     Davidson diagonalization with overlap
     ethr =  6.49E-07,  avg # of iterations =  2.0

     total cpu time spent up to now is       15.4 secs

     total energy              =    -501.67856711 Ry
     estimated scf accuracy    <       0.00309036 Ry

     End of self-consistent calculation

     convergence NOT achieved after 100 iterations: stopping

     Writing config to output data dir ./pwscf.save/
     Message from routine punch:
     wavefunctions written to file
 
     init_run     :      0.95s CPU      4.37s WALL (       1 calls)
     electrons    :     10.42s CPU     10.96s WALL (       1 calls)

     Called by init_run:
     wfcinit      :      0.44s CPU      3.70s WALL (       1 calls)
                                        3.70s GPU  (       1 calls)
     potinit      :      0.04s CPU      0.13s WALL (       1 calls)
     hinit0       :      0.45s CPU      0.48s WALL (       1 calls)

     Called by electrons:
     c_bands      :      7.25s CPU      7.51s WALL (     101 calls)
     sum_band     :      1.46s CPU      1.67s WALL (     101 calls)
     v_of_rho     :      0.60s CPU      0.71s WALL (     101 calls)
     mix_rho      :      0.90s CPU      0.93s WALL (     101 calls)

     Called by c_bands:
     init_us_2    :      0.25s CPU      0.27s WALL (     203 calls)
     init_us_2:gp :      0.24s CPU      0.27s WALL (     203 calls)
     regterg      :      6.50s CPU      6.71s WALL (     101 calls)

     Called by *egterg:
     rdiaghg      :      3.18s CPU      3.86s WALL (     972 calls)
                                        3.72s GPU  (     972 calls)
     h_psi        :      2.86s CPU      5.62s WALL (     974 calls)
                                        5.60s GPU  (     974 calls)
     g_psi        :      0.00s CPU      0.02s WALL (     872 calls)
                                        0.02s GPU  (     872 calls)

     Called by h_psi:
     h_psi:calbec :      0.70s CPU      3.29s WALL (     974 calls)
                                        3.29s GPU  (     974 calls)
     vloc_psi     :      1.59s CPU      1.74s WALL (     974 calls)
                                        1.72s GPU  (     974 calls)
     add_vuspsi   :      0.44s CPU      0.53s WALL (     974 calls)
                                        0.53s GPU  (     974 calls)

     General routines
     calbec       :      0.68s CPU      3.27s WALL (     974 calls)
     fft          :      0.91s CPU      1.07s WALL (     809 calls)
                                        0.18s GPU  (     505 calls)
     ffts         :      0.14s CPU      0.17s WALL (     101 calls)
     fftw         :      1.93s CPU      2.40s WALL (    9820 calls)
                                        2.08s GPU  (    9820 calls)
     davcio       :      0.00s CPU      0.00s WALL (      19 calls)
 
     Parallel routines
 
     PWSCF        :     11.41s CPU     15.42s WALL

 
   This run was terminated on:  15:23:32   9May2023            

=------------------------------------------------------------------------------=
   JOB DONE.
=------------------------------------------------------------------------------=
