An instance of this daemon is already running
An instance of this daemon is already running

     Program PWSCF v.7.1 starts on  9May2023 at 15:11:36 

     This program is part of the open-source Quantum ESPRESSO suite
     for quantum simulation of materials; please cite
         "P. Giannozzi et al., J. Phys.:Condens. Matter 21 395502 (2009);
         "P. Giannozzi et al., J. Phys.:Condens. Matter 29 465901 (2017);
         "P. Giannozzi et al., J. Chem. Phys. 152 154105 (2020);
          URL http://www.quantum-espresso.org", 
     in publications or presentations arising from this work. More details at
     http://www.quantum-espresso.org/quote

     Parallel version (MPI & OpenMP), running on       4 processor cores
     Number of MPI processes:                 4
     Threads/MPI process:                     1

     MPI processes distributed on     1 nodes
     7698 MiB available memory on the printing compute node when the environment starts
 
     Reading input from pw-si-24.in
Warning: card &CELL ignored
Warning: card / ignored

     Current dimensions of program PWSCF are:
     Max number of different atomic species (ntypx) = 10
     Max number of k-points (npk) =  40000
     Max angular momentum in pseudopotentials (lmaxx) =  4

     IMPORTANT: XC functional enforced from input :
     Exchange-correlation= PBE
                           (   1   4   3   4   0   0   0)
     Any further DFT definition will be discarded
     Please, verify this is what you really want


     gamma-point specific algorithms are used
 
     K-points division:     npool     =       2
     R & G space division:  proc/nbgrp/npool/nimage =       2
     Subspace diagonalization in iterative solution of the eigenvalue problem:
     a serial algorithm will be used

     Message from routine divide_et_impera:
     suboptimal parallelization: some nodes have no k-points
 
     Parallelization info
     --------------------
     sticks:   dense  smooth     PW     G-vecs:    dense   smooth      PW
     Min        1945    1945    516                91383    91383   12416
     Max        1948    1948    517                91388    91388   12421
     Sum        3893    3893   1033               182771   182771   24837
 
     Using Slab Decomposition
 


     bravais-lattice index     =            0
     lattice parameter (alat)  =      20.1873  a.u.
     unit-cell volume          =    8226.8237 (a.u.)^3
     number of atoms/cell      =           64
     number of atomic types    =            1
     number of electrons       =       256.00
     number of Kohn-Sham states=          128
     kinetic-energy cutoff     =      30.0000  Ry
     charge density cutoff     =     120.0000  Ry
     scf convergence threshold =      1.0E-06
     mixing beta               =       0.5000
     number of iterations used =            8  plain     mixing
     Exchange-correlation= PBE
                           (   1   4   3   4   0   0   0)

     GPU acceleration is ACTIVE.
     GPU-aware MPI enabled

     Message from routine print_cuda_info:
     High GPU oversubscription detected. Are you sure this is what you want?

     celldm(1)=  20.187261  celldm(2)=   0.000000  celldm(3)=   0.000000
     celldm(4)=   0.000000  celldm(5)=   0.000000  celldm(6)=   0.000000

     crystal axes: (cart. coord. in units of alat)
               a(1) = (   1.000000   0.000000   0.000000 )  
               a(2) = (   0.000000   1.000000   0.000000 )  
               a(3) = (   0.000000   0.000000   1.000000 )  

     reciprocal axes: (cart. coord. in units 2 pi/alat)
               b(1) = (  1.000000  0.000000  0.000000 )  
               b(2) = (  0.000000  1.000000  0.000000 )  
               b(3) = (  0.000000  0.000000  1.000000 )  


     PseudoPot. # 1 for Si read from file:
     /home/ppiaggi/pseudos/Si_ONCV_PBE_sr.upf
     MD5 check sum: 8553c464762ac42b85b1eed164b4d029
     Pseudo is Norm-conserving, Zval =  4.0
     Generated using ONCVPSP code by D. R. Hamann
     Using radial grid of 1510 points,  4 beta functions with: 
                l(1) =   0
                l(2) =   0
                l(3) =   1
                l(4) =   1

     atomic species   valence    mass     pseudopotential
        Si             4.00    28.08500     Si( 1.00)

     No symmetry found



   Cartesian axes

     site n.     atom                  positions (alat units)
         1           Si  tau(   1) = (   0.0237267   0.7941010   0.7307660  )
         2           Si  tau(   2) = (   0.0602475   0.3332960   0.2562830  )
         3           Si  tau(   3) = (   0.4096490   0.9346560   0.0124568  )
         4           Si  tau(   4) = (   0.8079160   0.1415480   0.7574200  )
         5           Si  tau(   5) = (   0.4318730   0.5662210   0.3547250  )
         6           Si  tau(   6) = (   0.9322540   0.5481010   0.2854940  )
         7           Si  tau(   7) = (   0.2457290   0.3557220   0.4075910  )
         8           Si  tau(   8) = (   0.9956420   0.5831100   0.5410090  )
         9           Si  tau(   9) = (   0.3146060   0.7303180   0.8053070  )
        10           Si  tau(  10) = (   0.7859880   0.8308150   0.9376420  )
        11           Si  tau(  11) = (   0.6475690   0.2633380   0.6534990  )
        12           Si  tau(  12) = (   0.4586780   0.0254076   0.7151150  )
        13           Si  tau(  13) = (   0.7736130   0.0021814   0.1054210  )
        14           Si  tau(  14) = (   0.5540620   0.6801120   0.2372910  )
        15           Si  tau(  15) = (   0.8656160   0.8485570   0.2983540  )
        16           Si  tau(  16) = (   0.3008970   0.2626910   0.0116794  )
        17           Si  tau(  17) = (   0.7008220   0.9300580   0.4269840  )
        18           Si  tau(  18) = (   0.9696370   0.3481760   0.5084310  )
        19           Si  tau(  19) = (   0.2725350   0.1457200   0.2215030  )
        20           Si  tau(  20) = (   0.9399070   0.3952990   0.9953450  )
        21           Si  tau(  21) = (   0.3086040   0.9329650   0.2411510  )
        22           Si  tau(  22) = (   0.4931780   0.4119630   0.5231420  )
        23           Si  tau(  23) = (   0.0015922   0.2575840   0.7212880  )
        24           Si  tau(  24) = (   0.0194790   0.8685250   0.4764070  )
        25           Si  tau(  25) = (   0.4542480   0.2385020   0.3293010  )
        26           Si  tau(  26) = (   0.5316970   0.1120140   0.5154790  )
        27           Si  tau(  27) = (   0.1681140   0.4274360   0.0481258  )
        28           Si  tau(  28) = (   0.5422180   0.9037050   0.2864950  )
        29           Si  tau(  29) = (   0.1156350   0.8233580   0.1658120  )
        30           Si  tau(  30) = (   0.8923080   0.0919391   0.4323970  )
        31           Si  tau(  31) = (   0.2983660   0.3929070   0.6658240  )
        32           Si  tau(  32) = (   0.7859540   0.5532650   0.6321680  )
        33           Si  tau(  33) = (   0.5542960   0.0804743   0.1468480  )
        34           Si  tau(  34) = (   0.3466220   0.9101050   0.4486410  )
        35           Si  tau(  35) = (   0.6864690   0.4584260   0.8272830  )
        36           Si  tau(  36) = (   0.4904310   0.6605680   0.6761150  )
        37           Si  tau(  37) = (   0.4468770   0.2450660   0.8046510  )
        38           Si  tau(  38) = (   0.2406930   0.5269990   0.2431090  )
        39           Si  tau(  39) = (   0.3182020   0.7152430   0.0670172  )
        40           Si  tau(  40) = (   0.1778830   0.1899380   0.6360040  )
        41           Si  tau(  41) = (   0.1487990   0.0640641   0.4716010  )
        42           Si  tau(  42) = (   0.7726730   0.5044130   0.1165640  )
        43           Si  tau(  43) = (   0.4576090   0.4958210   0.8322330  )
        44           Si  tau(  44) = (   0.3157420   0.6986990   0.4867760  )
        45           Si  tau(  45) = (   0.9967440   0.0697721   0.1966030  )
        46           Si  tau(  46) = (   0.2089680   0.5739770   0.6398310  )
        47           Si  tau(  47) = (   0.8109300   0.1919290   0.9862250  )
        48           Si  tau(  48) = (   0.2392540   0.9204130   0.6838530  )
        49           Si  tau(  49) = (   0.0078068   0.7637720   0.9991870  )
        50           Si  tau(  50) = (   0.6774070   0.7778970   0.6048130  )
        51           Si  tau(  51) = (   0.0556905   0.1567840   0.9945000  )
        52           Si  tau(  52) = (   0.6458980   0.6367240   0.0054034  )
        53           Si  tau(  53) = (   0.7417770   0.3869390   0.4468560  )
        54           Si  tau(  54) = (   0.4212890   0.4883180   0.0500862  )
        55           Si  tau(  55) = (   0.8167880   0.9101230   0.7405390  )
        56           Si  tau(  56) = (   0.5977640   0.2669630   0.9854140  )
        57           Si  tau(  57) = (   0.1368340   0.6044350   0.8984090  )
        58           Si  tau(  58) = (   0.2323150   0.0480337   0.8932810  )
        59           Si  tau(  59) = (   0.5674840   0.8911520   0.8336240  )
        60           Si  tau(  60) = (   0.9623250   0.4823230   0.7858950  )
        61           Si  tau(  61) = (   0.5779160   0.3858330   0.2003820  )
        62           Si  tau(  62) = (   0.1155490   0.6951330   0.3584570  )
        63           Si  tau(  63) = (   0.7461720   0.6672680   0.3925500  )
        64           Si  tau(  64) = (   0.8146630   0.2577220   0.2652380  )

     number of k points=     1
                       cart. coord. in units 2pi/alat
        k(    1) = (   0.0000000   0.0000000   0.0000000), wk =   2.0000000

     Dense  grid:    91386 G-vectors     FFT dimensions: (  72,  72,  72)

     Estimated max dynamical RAM per process >     134.38 MB

     Estimated total dynamical RAM >     515.22 MB

     Initial potential from superposition of free atoms

     starting charge     255.9608, renormalised to     256.0000
     Starting wfcs are  256 randomized atomic wfcs

     total cpu time spent up to now is        4.3 secs

     Self-consistent Calculation

     iteration #  1     ecut=    30.00 Ry     beta= 0.50
     Davidson diagonalization with overlap
     ethr =  1.00E-02,  avg # of iterations =  2.0

     Threshold (ethr) on eigenvalues was too large:
     Diagonalizing with lowered threshold

     Davidson diagonalization with overlap
     ethr =  3.64E-04,  avg # of iterations =  6.0

     total cpu time spent up to now is        4.5 secs

     total energy              =    -501.23479479 Ry
     estimated scf accuracy    <       1.16440498 Ry

     iteration #  2     ecut=    30.00 Ry     beta= 0.50
     Davidson diagonalization with overlap
     ethr =  4.55E-04,  avg # of iterations = 13.0

     total cpu time spent up to now is        4.6 secs

     total energy              =    -501.05022600 Ry
     estimated scf accuracy    <       2.47587035 Ry

     iteration #  3     ecut=    30.00 Ry     beta= 0.50
     Davidson diagonalization with overlap
     ethr =  4.55E-04,  avg # of iterations =  8.0

     total cpu time spent up to now is        4.7 secs

     total energy              =    -501.33933097 Ry
     estimated scf accuracy    <       0.90231669 Ry

     iteration #  4     ecut=    30.00 Ry     beta= 0.50
     Davidson diagonalization with overlap
     ethr =  3.52E-04,  avg # of iterations =  6.0

     total cpu time spent up to now is        4.8 secs

     total energy              =    -501.43700111 Ry
     estimated scf accuracy    <       0.30526500 Ry

     iteration #  5     ecut=    30.00 Ry     beta= 0.50
     Davidson diagonalization with overlap
     ethr =  1.19E-04,  avg # of iterations =  6.0

     total cpu time spent up to now is        4.9 secs

     total energy              =    -501.46002306 Ry
     estimated scf accuracy    <       0.05749877 Ry

     iteration #  6     ecut=    30.00 Ry     beta= 0.50
     Davidson diagonalization with overlap
     c_bands:  1 eigenvalues not converged
     ethr =  2.25E-05,  avg # of iterations = 20.0

     total cpu time spent up to now is        5.1 secs

     total energy              =    -501.46727552 Ry
     estimated scf accuracy    <       0.10461227 Ry

     iteration #  7     ecut=    30.00 Ry     beta= 0.50
     Davidson diagonalization with overlap
     ethr =  2.25E-05,  avg # of iterations = 16.0

     total cpu time spent up to now is        5.3 secs

     total energy              =    -501.47541514 Ry
     estimated scf accuracy    <       0.01163284 Ry

     iteration #  8     ecut=    30.00 Ry     beta= 0.50
     Davidson diagonalization with overlap
     c_bands:  1 eigenvalues not converged
     ethr =  4.54E-06,  avg # of iterations = 20.0

     total cpu time spent up to now is        5.4 secs

     total energy              =    -501.47640848 Ry
     estimated scf accuracy    <       0.02013034 Ry

     iteration #  9     ecut=    30.00 Ry     beta= 0.50
     Davidson diagonalization with overlap
     ethr =  4.54E-06,  avg # of iterations = 18.0

     total cpu time spent up to now is        5.6 secs

     total energy              =    -501.47691031 Ry
     estimated scf accuracy    <       0.00883062 Ry

     iteration # 10     ecut=    30.00 Ry     beta= 0.50
     Davidson diagonalization with overlap
     ethr =  3.45E-06,  avg # of iterations =  3.0

     total cpu time spent up to now is        5.7 secs

     total energy              =    -501.47684998 Ry
     estimated scf accuracy    <       0.00392574 Ry

     iteration # 11     ecut=    30.00 Ry     beta= 0.50
     Davidson diagonalization with overlap
     c_bands:  1 eigenvalues not converged
     ethr =  1.53E-06,  avg # of iterations = 20.0

     total cpu time spent up to now is        5.8 secs

     total energy              =    -501.47757906 Ry
     estimated scf accuracy    <       0.01467589 Ry

     iteration # 12     ecut=    30.00 Ry     beta= 0.50
     Davidson diagonalization with overlap
     ethr =  1.53E-06,  avg # of iterations = 18.0

     total cpu time spent up to now is        6.0 secs

     total energy              =    -501.47764827 Ry
     estimated scf accuracy    <       0.01099001 Ry

     iteration # 13     ecut=    30.00 Ry     beta= 0.50
     Davidson diagonalization with overlap
     ethr =  1.53E-06,  avg # of iterations =  2.0

     total cpu time spent up to now is        6.1 secs

     total energy              =    -501.47732536 Ry
     estimated scf accuracy    <       0.00900692 Ry

     iteration # 14     ecut=    30.00 Ry     beta= 0.50
     Davidson diagonalization with overlap
     ethr =  1.53E-06,  avg # of iterations =  2.0

     total cpu time spent up to now is        6.1 secs

     total energy              =    -501.47684477 Ry
     estimated scf accuracy    <       0.00698695 Ry

     iteration # 15     ecut=    30.00 Ry     beta= 0.50
     Davidson diagonalization with overlap
     c_bands:  1 eigenvalues not converged
     ethr =  1.53E-06,  avg # of iterations = 20.0

     total cpu time spent up to now is        6.3 secs

     total energy              =    -501.47745839 Ry
     estimated scf accuracy    <       0.00310607 Ry

     iteration # 16     ecut=    30.00 Ry     beta= 0.50
     Davidson diagonalization with overlap
     c_bands:  1 eigenvalues not converged
     ethr =  1.21E-06,  avg # of iterations = 20.0

     total cpu time spent up to now is        6.4 secs

     total energy              =    -501.47787263 Ry
     estimated scf accuracy    <       0.00178489 Ry

     iteration # 17     ecut=    30.00 Ry     beta= 0.50
     Davidson diagonalization with overlap
     c_bands:  1 eigenvalues not converged
     ethr =  6.97E-07,  avg # of iterations = 20.0

     total cpu time spent up to now is        6.6 secs

     total energy              =    -501.47772448 Ry
     estimated scf accuracy    <       0.00288322 Ry

     iteration # 18     ecut=    30.00 Ry     beta= 0.50
     Davidson diagonalization with overlap
     ethr =  6.97E-07,  avg # of iterations =  8.0

     total cpu time spent up to now is        6.7 secs

     total energy              =    -501.47766419 Ry
     estimated scf accuracy    <       0.00193505 Ry

     iteration # 19     ecut=    30.00 Ry     beta= 0.50
     Davidson diagonalization with overlap
     ethr =  6.97E-07,  avg # of iterations =  2.0

     total cpu time spent up to now is        6.8 secs

     total energy              =    -501.47748337 Ry
     estimated scf accuracy    <       0.00146985 Ry

     iteration # 20     ecut=    30.00 Ry     beta= 0.50
     Davidson diagonalization with overlap
     c_bands:  1 eigenvalues not converged
     ethr =  5.74E-07,  avg # of iterations = 20.0

     total cpu time spent up to now is        6.9 secs

     total energy              =    -501.47777334 Ry
     estimated scf accuracy    <       0.00508070 Ry

     iteration # 21     ecut=    30.00 Ry     beta= 0.50
     Davidson diagonalization with overlap
     ethr =  5.74E-07,  avg # of iterations = 18.0

     total cpu time spent up to now is        7.0 secs

     total energy              =    -501.47792645 Ry
     estimated scf accuracy    <       0.00434777 Ry

     iteration # 22     ecut=    30.00 Ry     beta= 0.50
     Davidson diagonalization with overlap
     ethr =  5.74E-07,  avg # of iterations =  1.0

     total cpu time spent up to now is        7.1 secs

     total energy              =    -501.47781499 Ry
     estimated scf accuracy    <       0.00416874 Ry

     iteration # 23     ecut=    30.00 Ry     beta= 0.50
     Davidson diagonalization with overlap
     ethr =  5.74E-07,  avg # of iterations =  1.0

     total cpu time spent up to now is        7.2 secs

     total energy              =    -501.47761767 Ry
     estimated scf accuracy    <       0.00369912 Ry

     iteration # 24     ecut=    30.00 Ry     beta= 0.50
     Davidson diagonalization with overlap
     ethr =  5.74E-07,  avg # of iterations =  1.0

     total cpu time spent up to now is        7.2 secs

     total energy              =    -501.47762010 Ry
     estimated scf accuracy    <       0.00280930 Ry

     iteration # 25     ecut=    30.00 Ry     beta= 0.50
     Davidson diagonalization with overlap
     ethr =  5.74E-07,  avg # of iterations =  1.0

     total cpu time spent up to now is        7.3 secs

     total energy              =    -501.47754252 Ry
     estimated scf accuracy    <       0.00263342 Ry

     iteration # 26     ecut=    30.00 Ry     beta= 0.50
     Davidson diagonalization with overlap
     ethr =  5.74E-07,  avg # of iterations =  1.0

     total cpu time spent up to now is        7.4 secs

     total energy              =    -501.47759682 Ry
     estimated scf accuracy    <       0.00221758 Ry

     iteration # 27     ecut=    30.00 Ry     beta= 0.50
     Davidson diagonalization with overlap
     ethr =  5.74E-07,  avg # of iterations =  1.0

     total cpu time spent up to now is        7.5 secs

     total energy              =    -501.47758647 Ry
     estimated scf accuracy    <       0.00229111 Ry

     iteration # 28     ecut=    30.00 Ry     beta= 0.50
     Davidson diagonalization with overlap
     ethr =  5.74E-07,  avg # of iterations =  1.0

     total cpu time spent up to now is        7.5 secs

     total energy              =    -501.47687836 Ry
     estimated scf accuracy    <       0.00223268 Ry

     iteration # 29     ecut=    30.00 Ry     beta= 0.50
     Davidson diagonalization with overlap
     c_bands:  1 eigenvalues not converged
     ethr =  5.74E-07,  avg # of iterations = 20.0

     total cpu time spent up to now is        7.7 secs

     total energy              =    -501.47866807 Ry
     estimated scf accuracy    <       0.02687796 Ry

     iteration # 30     ecut=    30.00 Ry     beta= 0.50
     Davidson diagonalization with overlap
     ethr =  5.74E-07,  avg # of iterations = 19.0

     total cpu time spent up to now is        7.8 secs

     total energy              =    -501.47800569 Ry
     estimated scf accuracy    <       0.02086396 Ry

     iteration # 31     ecut=    30.00 Ry     beta= 0.50
     Davidson diagonalization with overlap
     c_bands:  1 eigenvalues not converged
     ethr =  5.74E-07,  avg # of iterations = 20.0

     total cpu time spent up to now is        8.0 secs

     total energy              =    -501.47755820 Ry
     estimated scf accuracy    <       0.01309881 Ry

     iteration # 32     ecut=    30.00 Ry     beta= 0.50
     Davidson diagonalization with overlap
     c_bands:  1 eigenvalues not converged
     ethr =  5.74E-07,  avg # of iterations = 20.0

     total cpu time spent up to now is        8.1 secs

     total energy              =    -501.47760656 Ry
     estimated scf accuracy    <       0.00820098 Ry

     iteration # 33     ecut=    30.00 Ry     beta= 0.50
     Davidson diagonalization with overlap
     ethr =  5.74E-07,  avg # of iterations =  2.0

     total cpu time spent up to now is        8.2 secs

     total energy              =    -501.47748939 Ry
     estimated scf accuracy    <       0.00750713 Ry

     iteration # 34     ecut=    30.00 Ry     beta= 0.50
     Davidson diagonalization with overlap
     ethr =  5.74E-07,  avg # of iterations =  1.0

     total cpu time spent up to now is        8.3 secs

     total energy              =    -501.47740750 Ry
     estimated scf accuracy    <       0.00679647 Ry

     iteration # 35     ecut=    30.00 Ry     beta= 0.50
     Davidson diagonalization with overlap
     ethr =  5.74E-07,  avg # of iterations =  1.0

     total cpu time spent up to now is        8.4 secs

     total energy              =    -501.47757355 Ry
     estimated scf accuracy    <       0.00624935 Ry

     iteration # 36     ecut=    30.00 Ry     beta= 0.50
     Davidson diagonalization with overlap
     ethr =  5.74E-07,  avg # of iterations =  1.0

     total cpu time spent up to now is        8.4 secs

     total energy              =    -501.47742677 Ry
     estimated scf accuracy    <       0.00655053 Ry

     iteration # 37     ecut=    30.00 Ry     beta= 0.50
     Davidson diagonalization with overlap
     ethr =  5.74E-07,  avg # of iterations =  1.0

     total cpu time spent up to now is        8.5 secs

     total energy              =    -501.47576890 Ry
     estimated scf accuracy    <       0.00585003 Ry

     iteration # 38     ecut=    30.00 Ry     beta= 0.50
     Davidson diagonalization with overlap
     c_bands:  1 eigenvalues not converged
     ethr =  5.74E-07,  avg # of iterations = 20.0

     total cpu time spent up to now is        8.7 secs

     total energy              =    -501.48105175 Ry
     estimated scf accuracy    <       0.03304922 Ry

     iteration # 39     ecut=    30.00 Ry     beta= 0.50
     Davidson diagonalization with overlap
     ethr =  5.74E-07,  avg # of iterations = 10.0

     total cpu time spent up to now is        8.8 secs

     total energy              =    -501.48137936 Ry
     estimated scf accuracy    <       0.03285399 Ry

     iteration # 40     ecut=    30.00 Ry     beta= 0.50
     Davidson diagonalization with overlap
     c_bands:  1 eigenvalues not converged
     ethr =  5.74E-07,  avg # of iterations = 20.0

     total cpu time spent up to now is        9.0 secs

     total energy              =    -501.48249325 Ry
     estimated scf accuracy    <       0.03873412 Ry

     iteration # 41     ecut=    30.00 Ry     beta= 0.50
     Davidson diagonalization with overlap
     ethr =  5.74E-07,  avg # of iterations = 20.0

     total cpu time spent up to now is        9.1 secs

     total energy              =    -501.48321636 Ry
     estimated scf accuracy    <       0.04319684 Ry

     iteration # 42     ecut=    30.00 Ry     beta= 0.50
     Davidson diagonalization with overlap
     ethr =  5.74E-07,  avg # of iterations =  2.0

     total cpu time spent up to now is        9.2 secs

     total energy              =    -501.48292580 Ry
     estimated scf accuracy    <       0.04518381 Ry

     iteration # 43     ecut=    30.00 Ry     beta= 0.50
     Davidson diagonalization with overlap
     ethr =  5.74E-07,  avg # of iterations =  1.0

     total cpu time spent up to now is        9.3 secs

     total energy              =    -501.48194087 Ry
     estimated scf accuracy    <       0.04413718 Ry

     iteration # 44     ecut=    30.00 Ry     beta= 0.50
     Davidson diagonalization with overlap
     ethr =  5.74E-07,  avg # of iterations =  2.0

     total cpu time spent up to now is        9.4 secs

     total energy              =    -501.47871336 Ry
     estimated scf accuracy    <       0.03936993 Ry

     iteration # 45     ecut=    30.00 Ry     beta= 0.50
     Davidson diagonalization with overlap
     c_bands:  1 eigenvalues not converged
     ethr =  5.74E-07,  avg # of iterations = 20.0

     total cpu time spent up to now is        9.5 secs

     total energy              =    -501.47865051 Ry
     estimated scf accuracy    <       0.01782028 Ry

     iteration # 46     ecut=    30.00 Ry     beta= 0.50
     Davidson diagonalization with overlap
     ethr =  5.74E-07,  avg # of iterations =  2.0

     total cpu time spent up to now is        9.6 secs

     total energy              =    -501.47558707 Ry
     estimated scf accuracy    <       0.01557485 Ry

     iteration # 47     ecut=    30.00 Ry     beta= 0.50
     Davidson diagonalization with overlap
     c_bands:  1 eigenvalues not converged
     ethr =  5.74E-07,  avg # of iterations = 20.0

     total cpu time spent up to now is        9.8 secs

     total energy              =    -501.47748801 Ry
     estimated scf accuracy    <       0.03151358 Ry

     iteration # 48     ecut=    30.00 Ry     beta= 0.50
     Davidson diagonalization with overlap
     c_bands:  1 eigenvalues not converged
     ethr =  5.74E-07,  avg # of iterations = 20.0

     total cpu time spent up to now is       10.0 secs

     total energy              =    -501.47831792 Ry
     estimated scf accuracy    <       0.01970350 Ry

     iteration # 49     ecut=    30.00 Ry     beta= 0.50
     Davidson diagonalization with overlap
     ethr =  5.74E-07,  avg # of iterations =  3.0

     total cpu time spent up to now is       10.0 secs

     total energy              =    -501.47763846 Ry
     estimated scf accuracy    <       0.01503335 Ry

     iteration # 50     ecut=    30.00 Ry     beta= 0.50
     Davidson diagonalization with overlap
     c_bands:  1 eigenvalues not converged
     ethr =  5.74E-07,  avg # of iterations = 20.0

     total cpu time spent up to now is       10.2 secs

     total energy              =    -501.47759734 Ry
     estimated scf accuracy    <       0.00495719 Ry

     iteration # 51     ecut=    30.00 Ry     beta= 0.50
     Davidson diagonalization with overlap
     c_bands:  1 eigenvalues not converged
     ethr =  5.74E-07,  avg # of iterations = 20.0

     total cpu time spent up to now is       10.4 secs

     total energy              =    -501.47794845 Ry
     estimated scf accuracy    <       0.00159909 Ry

     iteration # 52     ecut=    30.00 Ry     beta= 0.50
     Davidson diagonalization with overlap
     ethr =  5.74E-07,  avg # of iterations = 18.0

     total cpu time spent up to now is       10.5 secs

     total energy              =    -501.47803049 Ry
     estimated scf accuracy    <       0.00145670 Ry

     iteration # 53     ecut=    30.00 Ry     beta= 0.50
     Davidson diagonalization with overlap
     ethr =  5.69E-07,  avg # of iterations =  2.0

     total cpu time spent up to now is       10.6 secs

     total energy              =    -501.47796141 Ry
     estimated scf accuracy    <       0.00149791 Ry

     iteration # 54     ecut=    30.00 Ry     beta= 0.50
     Davidson diagonalization with overlap
     ethr =  5.69E-07,  avg # of iterations =  1.0

     total cpu time spent up to now is       10.7 secs

     total energy              =    -501.47793003 Ry
     estimated scf accuracy    <       0.00129026 Ry

     iteration # 55     ecut=    30.00 Ry     beta= 0.50
     Davidson diagonalization with overlap
     ethr =  5.04E-07,  avg # of iterations =  1.0

     total cpu time spent up to now is       10.7 secs

     total energy              =    -501.47765996 Ry
     estimated scf accuracy    <       0.00111973 Ry

     iteration # 56     ecut=    30.00 Ry     beta= 0.50
     Davidson diagonalization with overlap
     c_bands:  1 eigenvalues not converged
     ethr =  4.37E-07,  avg # of iterations = 20.0

     total cpu time spent up to now is       10.9 secs

     total energy              =    -501.47785898 Ry
     estimated scf accuracy    <       0.00274015 Ry

     iteration # 57     ecut=    30.00 Ry     beta= 0.50
     Davidson diagonalization with overlap
     c_bands:  1 eigenvalues not converged
     ethr =  4.37E-07,  avg # of iterations = 20.0

     total cpu time spent up to now is       11.0 secs

     total energy              =    -501.47789359 Ry
     estimated scf accuracy    <       0.00290130 Ry

     iteration # 58     ecut=    30.00 Ry     beta= 0.50
     Davidson diagonalization with overlap
     ethr =  4.37E-07,  avg # of iterations =  2.0

     total cpu time spent up to now is       11.1 secs

     total energy              =    -501.47777732 Ry
     estimated scf accuracy    <       0.00262629 Ry

     iteration # 59     ecut=    30.00 Ry     beta= 0.50
     Davidson diagonalization with overlap
     ethr =  4.37E-07,  avg # of iterations =  2.0

     total cpu time spent up to now is       11.2 secs

     total energy              =    -501.47759251 Ry
     estimated scf accuracy    <       0.00201009 Ry

     iteration # 60     ecut=    30.00 Ry     beta= 0.50
     Davidson diagonalization with overlap
     c_bands:  1 eigenvalues not converged
     ethr =  4.37E-07,  avg # of iterations = 20.0

     total cpu time spent up to now is       11.4 secs

     total energy              =    -501.47755903 Ry
     estimated scf accuracy    <       0.00143687 Ry

     iteration # 61     ecut=    30.00 Ry     beta= 0.50
     Davidson diagonalization with overlap
     c_bands:  1 eigenvalues not converged
     ethr =  4.37E-07,  avg # of iterations = 20.0

     total cpu time spent up to now is       11.5 secs

     total energy              =    -501.47778693 Ry
     estimated scf accuracy    <       0.00133160 Ry

     iteration # 62     ecut=    30.00 Ry     beta= 0.50
     Davidson diagonalization with overlap
     c_bands:  1 eigenvalues not converged
     ethr =  4.37E-07,  avg # of iterations = 20.0

     total cpu time spent up to now is       11.7 secs

     total energy              =    -501.47784408 Ry
     estimated scf accuracy    <       0.00243289 Ry

     iteration # 63     ecut=    30.00 Ry     beta= 0.50
     Davidson diagonalization with overlap
     c_bands:  1 eigenvalues not converged
     ethr =  4.37E-07,  avg # of iterations = 20.0

     total cpu time spent up to now is       11.8 secs

     total energy              =    -501.47782281 Ry
     estimated scf accuracy    <       0.00243028 Ry

     iteration # 64     ecut=    30.00 Ry     beta= 0.50
     Davidson diagonalization with overlap
     ethr =  4.37E-07,  avg # of iterations =  2.0

     total cpu time spent up to now is       11.9 secs

     total energy              =    -501.47761201 Ry
     estimated scf accuracy    <       0.00213087 Ry

     iteration # 65     ecut=    30.00 Ry     beta= 0.50
     Davidson diagonalization with overlap
     ethr =  4.37E-07,  avg # of iterations =  2.0

     total cpu time spent up to now is       12.0 secs

     total energy              =    -501.47758066 Ry
     estimated scf accuracy    <       0.00131294 Ry

     iteration # 66     ecut=    30.00 Ry     beta= 0.50
     Davidson diagonalization with overlap
     ethr =  4.37E-07,  avg # of iterations =  2.0

     total cpu time spent up to now is       12.0 secs

     total energy              =    -501.47750729 Ry
     estimated scf accuracy    <       0.00103827 Ry

     iteration # 67     ecut=    30.00 Ry     beta= 0.50
     Davidson diagonalization with overlap
     c_bands:  1 eigenvalues not converged
     ethr =  4.06E-07,  avg # of iterations = 20.0

     total cpu time spent up to now is       12.2 secs

     total energy              =    -501.47820830 Ry
     estimated scf accuracy    <       0.00940097 Ry

     iteration # 68     ecut=    30.00 Ry     beta= 0.50
     Davidson diagonalization with overlap
     c_bands:  1 eigenvalues not converged
     ethr =  4.06E-07,  avg # of iterations = 20.0

     total cpu time spent up to now is       12.3 secs

     total energy              =    -501.47907022 Ry
     estimated scf accuracy    <       0.01088237 Ry

     iteration # 69     ecut=    30.00 Ry     beta= 0.50
     Davidson diagonalization with overlap
     c_bands:  1 eigenvalues not converged
     ethr =  4.06E-07,  avg # of iterations = 20.0

     total cpu time spent up to now is       12.5 secs

     total energy              =    -501.47842206 Ry
     estimated scf accuracy    <       0.02070047 Ry

     iteration # 70     ecut=    30.00 Ry     beta= 0.50
     Davidson diagonalization with overlap
     ethr =  4.06E-07,  avg # of iterations = 15.0

     total cpu time spent up to now is       12.6 secs

     total energy              =    -501.47860567 Ry
     estimated scf accuracy    <       0.01768722 Ry

     iteration # 71     ecut=    30.00 Ry     beta= 0.50
     Davidson diagonalization with overlap
     ethr =  4.06E-07,  avg # of iterations =  2.0

     total cpu time spent up to now is       12.7 secs

     total energy              =    -501.47811436 Ry
     estimated scf accuracy    <       0.01791900 Ry

     iteration # 72     ecut=    30.00 Ry     beta= 0.50
     Davidson diagonalization with overlap
     ethr =  4.06E-07,  avg # of iterations =  2.0

     total cpu time spent up to now is       12.8 secs

     total energy              =    -501.47817973 Ry
     estimated scf accuracy    <       0.01621938 Ry

     iteration # 73     ecut=    30.00 Ry     beta= 0.50
     Davidson diagonalization with overlap
     ethr =  4.06E-07,  avg # of iterations =  1.0

     total cpu time spent up to now is       12.8 secs

     total energy              =    -501.47803858 Ry
     estimated scf accuracy    <       0.01601415 Ry

     iteration # 74     ecut=    30.00 Ry     beta= 0.50
     Davidson diagonalization with overlap
     ethr =  4.06E-07,  avg # of iterations =  2.0

     total cpu time spent up to now is       12.9 secs

     total energy              =    -501.47795815 Ry
     estimated scf accuracy    <       0.01496875 Ry

     iteration # 75     ecut=    30.00 Ry     beta= 0.50
     Davidson diagonalization with overlap
     ethr =  4.06E-07,  avg # of iterations =  1.0

     total cpu time spent up to now is       13.0 secs

     total energy              =    -501.47562714 Ry
     estimated scf accuracy    <       0.01452586 Ry

     iteration # 76     ecut=    30.00 Ry     beta= 0.50
     Davidson diagonalization with overlap
     c_bands:  1 eigenvalues not converged
     ethr =  4.06E-07,  avg # of iterations = 20.0

     total cpu time spent up to now is       13.2 secs

     total energy              =    -501.47640248 Ry
     estimated scf accuracy    <       0.05077444 Ry

     iteration # 77     ecut=    30.00 Ry     beta= 0.50
     Davidson diagonalization with overlap
     c_bands:  1 eigenvalues not converged
     ethr =  4.06E-07,  avg # of iterations = 20.0

     total cpu time spent up to now is       13.4 secs

     total energy              =    -501.47702378 Ry
     estimated scf accuracy    <       0.01667464 Ry

     iteration # 78     ecut=    30.00 Ry     beta= 0.50
     Davidson diagonalization with overlap
     c_bands:  1 eigenvalues not converged
     ethr =  4.06E-07,  avg # of iterations = 20.0

     total cpu time spent up to now is       13.5 secs

     total energy              =    -501.47669632 Ry
     estimated scf accuracy    <       0.02908897 Ry

     iteration # 79     ecut=    30.00 Ry     beta= 0.50
     Davidson diagonalization with overlap
     c_bands:  1 eigenvalues not converged
     ethr =  4.06E-07,  avg # of iterations = 20.0

     total cpu time spent up to now is       13.7 secs

     total energy              =    -501.47775284 Ry
     estimated scf accuracy    <       0.00537441 Ry

     iteration # 80     ecut=    30.00 Ry     beta= 0.50
     Davidson diagonalization with overlap
     ethr =  4.06E-07,  avg # of iterations =  7.0

     total cpu time spent up to now is       13.8 secs

     total energy              =    -501.47780507 Ry
     estimated scf accuracy    <       0.00409763 Ry

     iteration # 81     ecut=    30.00 Ry     beta= 0.50
     Davidson diagonalization with overlap
     ethr =  4.06E-07,  avg # of iterations =  2.0

     total cpu time spent up to now is       13.9 secs

     total energy              =    -501.47775073 Ry
     estimated scf accuracy    <       0.00302715 Ry

     iteration # 82     ecut=    30.00 Ry     beta= 0.50
     Davidson diagonalization with overlap
     ethr =  4.06E-07,  avg # of iterations =  2.0

     total cpu time spent up to now is       14.0 secs

     total energy              =    -501.47761392 Ry
     estimated scf accuracy    <       0.00249887 Ry

     iteration # 83     ecut=    30.00 Ry     beta= 0.50
     Davidson diagonalization with overlap
     c_bands:  1 eigenvalues not converged
     ethr =  4.06E-07,  avg # of iterations = 20.0

     total cpu time spent up to now is       14.1 secs

     total energy              =    -501.47773041 Ry
     estimated scf accuracy    <       0.00058828 Ry

     iteration # 84     ecut=    30.00 Ry     beta= 0.50
     Davidson diagonalization with overlap
     c_bands:  1 eigenvalues not converged
     ethr =  2.30E-07,  avg # of iterations = 20.0

     total cpu time spent up to now is       14.3 secs

     total energy              =    -501.47778402 Ry
     estimated scf accuracy    <       0.00038291 Ry

     iteration # 85     ecut=    30.00 Ry     beta= 0.50
     Davidson diagonalization with overlap
     c_bands:  1 eigenvalues not converged
     ethr =  1.50E-07,  avg # of iterations = 20.0

     total cpu time spent up to now is       14.5 secs

     total energy              =    -501.47722787 Ry
     estimated scf accuracy    <       0.01732085 Ry

     iteration # 86     ecut=    30.00 Ry     beta= 0.50
     Davidson diagonalization with overlap
     c_bands:  1 eigenvalues not converged
     ethr =  1.50E-07,  avg # of iterations = 20.0

     total cpu time spent up to now is       14.6 secs

     total energy              =    -501.47778385 Ry
     estimated scf accuracy    <       0.00207566 Ry

     iteration # 87     ecut=    30.00 Ry     beta= 0.50
     Davidson diagonalization with overlap
     c_bands:  1 eigenvalues not converged
     ethr =  1.50E-07,  avg # of iterations = 20.0

     total cpu time spent up to now is       14.8 secs

     total energy              =    -501.47784741 Ry
     estimated scf accuracy    <       0.00263341 Ry

     iteration # 88     ecut=    30.00 Ry     beta= 0.50
     Davidson diagonalization with overlap
     ethr =  1.50E-07,  avg # of iterations =  3.0

     total cpu time spent up to now is       14.9 secs

     total energy              =    -501.47782103 Ry
     estimated scf accuracy    <       0.00245793 Ry

     iteration # 89     ecut=    30.00 Ry     beta= 0.50
     Davidson diagonalization with overlap
     ethr =  1.50E-07,  avg # of iterations = 18.0

     total cpu time spent up to now is       15.0 secs

     total energy              =    -501.47783454 Ry
     estimated scf accuracy    <       0.00207678 Ry

     iteration # 90     ecut=    30.00 Ry     beta= 0.50
     Davidson diagonalization with overlap
     ethr =  1.50E-07,  avg # of iterations =  1.0

     total cpu time spent up to now is       15.1 secs

     total energy              =    -501.47784624 Ry
     estimated scf accuracy    <       0.00201822 Ry

     iteration # 91     ecut=    30.00 Ry     beta= 0.50
     Davidson diagonalization with overlap
     ethr =  1.50E-07,  avg # of iterations =  1.0

     total cpu time spent up to now is       15.2 secs

     total energy              =    -501.47792576 Ry
     estimated scf accuracy    <       0.00204816 Ry

     iteration # 92     ecut=    30.00 Ry     beta= 0.50
     Davidson diagonalization with overlap
     c_bands:  1 eigenvalues not converged
     ethr =  1.50E-07,  avg # of iterations = 20.0

     total cpu time spent up to now is       15.4 secs

     total energy              =    -501.47810124 Ry
     estimated scf accuracy    <       0.00793159 Ry

     iteration # 93     ecut=    30.00 Ry     beta= 0.50
     Davidson diagonalization with overlap
     c_bands:  1 eigenvalues not converged
     ethr =  1.50E-07,  avg # of iterations = 20.0

     total cpu time spent up to now is       15.5 secs

     total energy              =    -501.47715822 Ry
     estimated scf accuracy    <       0.01098381 Ry

     iteration # 94     ecut=    30.00 Ry     beta= 0.50
     Davidson diagonalization with overlap
     c_bands:  1 eigenvalues not converged
     ethr =  1.50E-07,  avg # of iterations = 20.0

     total cpu time spent up to now is       15.7 secs

     total energy              =    -501.47675792 Ry
     estimated scf accuracy    <       0.00532068 Ry

     iteration # 95     ecut=    30.00 Ry     beta= 0.50
     Davidson diagonalization with overlap
     c_bands:  1 eigenvalues not converged
     ethr =  1.50E-07,  avg # of iterations = 20.0

     total cpu time spent up to now is       15.9 secs

     total energy              =    -501.47640535 Ry
     estimated scf accuracy    <       0.04253966 Ry

     iteration # 96     ecut=    30.00 Ry     beta= 0.50
     Davidson diagonalization with overlap
     c_bands:  1 eigenvalues not converged
     ethr =  1.50E-07,  avg # of iterations = 20.0

     total cpu time spent up to now is       16.1 secs

     total energy              =    -501.47775939 Ry
     estimated scf accuracy    <       0.00256242 Ry

     iteration # 97     ecut=    30.00 Ry     beta= 0.50
     Davidson diagonalization with overlap
     ethr =  1.50E-07,  avg # of iterations = 19.0

     total cpu time spent up to now is       16.2 secs

     total energy              =    -501.47777927 Ry
     estimated scf accuracy    <       0.00255535 Ry

     iteration # 98     ecut=    30.00 Ry     beta= 0.50
     Davidson diagonalization with overlap
     ethr =  1.50E-07,  avg # of iterations =  2.0

     total cpu time spent up to now is       16.3 secs

     total energy              =    -501.47772928 Ry
     estimated scf accuracy    <       0.00232428 Ry

     iteration # 99     ecut=    30.00 Ry     beta= 0.50
     Davidson diagonalization with overlap
     c_bands:  1 eigenvalues not converged
     ethr =  1.50E-07,  avg # of iterations = 20.0

     total cpu time spent up to now is       16.5 secs

     total energy              =    -501.47771060 Ry
     estimated scf accuracy    <       0.00122801 Ry

     iteration #100     ecut=    30.00 Ry     beta= 0.50
     Davidson diagonalization with overlap
     c_bands:  1 eigenvalues not converged
     ethr =  1.50E-07,  avg # of iterations = 20.0

     total cpu time spent up to now is       16.6 secs

     total energy              =    -501.47771500 Ry
     estimated scf accuracy    <       0.00066189 Ry

     End of self-consistent calculation

     convergence NOT achieved after 100 iterations: stopping

     Writing config to output data dir ./pwscf.save/
     Message from routine punch:
     wavefunctions written to file
 
     init_run     :      0.94s CPU      4.26s WALL (       1 calls)
     electrons    :     11.73s CPU     12.30s WALL (       1 calls)

     Called by init_run:
     wfcinit      :      0.43s CPU      3.59s WALL (       1 calls)
                                        3.59s GPU  (       1 calls)
     potinit      :      0.04s CPU      0.13s WALL (       1 calls)
     hinit0       :      0.45s CPU      0.48s WALL (       1 calls)

     Called by electrons:
     c_bands      :      8.53s CPU      8.81s WALL (     101 calls)
     sum_band     :      1.47s CPU      1.68s WALL (     101 calls)
     v_of_rho     :      0.59s CPU      0.70s WALL (     101 calls)
     mix_rho      :      0.91s CPU      0.93s WALL (     101 calls)

     Called by c_bands:
     init_us_2    :      0.25s CPU      0.28s WALL (     203 calls)
     init_us_2:gp :      0.25s CPU      0.27s WALL (     203 calls)
     regterg      :      7.81s CPU      8.05s WALL (     101 calls)

     Called by *egterg:
     rdiaghg      :      4.01s CPU      4.69s WALL (    1250 calls)
                                        4.52s GPU  (    1250 calls)
     h_psi        :      3.17s CPU      5.84s WALL (    1252 calls)
                                        5.82s GPU  (    1252 calls)
     g_psi        :      0.00s CPU      0.03s WALL (    1150 calls)
                                        0.02s GPU  (    1150 calls)

     Called by h_psi:
     h_psi:calbec :      0.73s CPU      3.25s WALL (    1252 calls)
                                        3.25s GPU  (    1252 calls)
     vloc_psi     :      1.67s CPU      1.82s WALL (    1252 calls)
                                        1.79s GPU  (    1252 calls)
     add_vuspsi   :      0.61s CPU      0.71s WALL (    1252 calls)
                                        0.70s GPU  (    1252 calls)

     General routines
     calbec       :      0.72s CPU      3.23s WALL (    1252 calls)
     fft          :      0.91s CPU      1.07s WALL (     809 calls)
                                        0.19s GPU  (     505 calls)
     ffts         :      0.15s CPU      0.16s WALL (     101 calls)
     fftw         :      1.98s CPU      2.47s WALL (   10386 calls)
                                        2.13s GPU  (   10386 calls)
     davcio       :      0.00s CPU      0.00s WALL (      19 calls)
 
     Parallel routines
 
     PWSCF        :     12.71s CPU     16.66s WALL

 
   This run was terminated on:  15:11:53   9May2023            

=------------------------------------------------------------------------------=
   JOB DONE.
=------------------------------------------------------------------------------=
