An instance of this daemon is already running

     Program PWSCF v.7.1 starts on  9May2023 at 15:11:18 

     This program is part of the open-source Quantum ESPRESSO suite
     for quantum simulation of materials; please cite
         "P. Giannozzi et al., J. Phys.:Condens. Matter 21 395502 (2009);
         "P. Giannozzi et al., J. Phys.:Condens. Matter 29 465901 (2017);
         "P. Giannozzi et al., J. Chem. Phys. 152 154105 (2020);
          URL http://www.quantum-espresso.org", 
     in publications or presentations arising from this work. More details at
     http://www.quantum-espresso.org/quote

     Parallel version (MPI & OpenMP), running on       4 processor cores
     Number of MPI processes:                 4
     Threads/MPI process:                     1

     MPI processes distributed on     1 nodes
     6735 MiB available memory on the printing compute node when the environment starts
 
     Reading input from pw-si-22.in
Warning: card &CELL ignored
Warning: card / ignored

     Current dimensions of program PWSCF are:
     Max number of different atomic species (ntypx) = 10
     Max number of k-points (npk) =  40000
     Max angular momentum in pseudopotentials (lmaxx) =  4

     IMPORTANT: XC functional enforced from input :
     Exchange-correlation= PBE
                           (   1   4   3   4   0   0   0)
     Any further DFT definition will be discarded
     Please, verify this is what you really want


     gamma-point specific algorithms are used
 
     K-points division:     npool     =       2
     R & G space division:  proc/nbgrp/npool/nimage =       2
     Subspace diagonalization in iterative solution of the eigenvalue problem:
     a serial algorithm will be used

     Message from routine divide_et_impera:
     suboptimal parallelization: some nodes have no k-points
 
     Parallelization info
     --------------------
     sticks:   dense  smooth     PW     G-vecs:    dense   smooth      PW
     Min        1916    1916    502                89532    89532   12150
     Max        1917    1917    503                89537    89537   12153
     Sum        3833    3833   1005               179069   179069   24303
 
     Using Slab Decomposition
 


     bravais-lattice index     =            0
     lattice parameter (alat)  =      20.0546  a.u.
     unit-cell volume          =    8065.7588 (a.u.)^3
     number of atoms/cell      =           64
     number of atomic types    =            1
     number of electrons       =       256.00
     number of Kohn-Sham states=          128
     kinetic-energy cutoff     =      30.0000  Ry
     charge density cutoff     =     120.0000  Ry
     scf convergence threshold =      1.0E-06
     mixing beta               =       0.5000
     number of iterations used =            8  plain     mixing
     Exchange-correlation= PBE
                           (   1   4   3   4   0   0   0)

     GPU acceleration is ACTIVE.
     GPU-aware MPI enabled

     Message from routine print_cuda_info:
     High GPU oversubscription detected. Are you sure this is what you want?

     celldm(1)=  20.054650  celldm(2)=   0.000000  celldm(3)=   0.000000
     celldm(4)=   0.000000  celldm(5)=   0.000000  celldm(6)=   0.000000

     crystal axes: (cart. coord. in units of alat)
               a(1) = (   1.000000   0.000000   0.000000 )  
               a(2) = (   0.000000   1.000000   0.000000 )  
               a(3) = (   0.000000   0.000000   1.000000 )  

     reciprocal axes: (cart. coord. in units 2 pi/alat)
               b(1) = (  1.000000  0.000000  0.000000 )  
               b(2) = (  0.000000  1.000000  0.000000 )  
               b(3) = (  0.000000  0.000000  1.000000 )  


     PseudoPot. # 1 for Si read from file:
     /home/ppiaggi/pseudos/Si_ONCV_PBE_sr.upf
     MD5 check sum: 8553c464762ac42b85b1eed164b4d029
     Pseudo is Norm-conserving, Zval =  4.0
     Generated using ONCVPSP code by D. R. Hamann
     Using radial grid of 1510 points,  4 beta functions with: 
                l(1) =   0
                l(2) =   0
                l(3) =   1
                l(4) =   1

     atomic species   valence    mass     pseudopotential
        Si             4.00    28.08500     Si( 1.00)

     No symmetry found



   Cartesian axes

     site n.     atom                  positions (alat units)
         1           Si  tau(   1) = (   0.9104260   0.6679610   0.6742310  )
         2           Si  tau(   2) = (   0.9893330   0.4262380   0.9291750  )
         3           Si  tau(   3) = (   0.1912080   0.7454800   0.1713740  )
         4           Si  tau(   4) = (   0.9373150   0.7724540   0.9309140  )
         5           Si  tau(   5) = (   0.1344940   0.7612570   0.7604710  )
         6           Si  tau(   6) = (   0.2635850   0.5987770   0.6388310  )
         7           Si  tau(   7) = (   0.5395180   0.7235940   0.5516580  )
         8           Si  tau(   8) = (   0.0481911   0.0430911   0.8170640  )
         9           Si  tau(   9) = (   0.4770690   0.6008690   0.7273850  )
        10           Si  tau(  10) = (   0.6375170   0.1400720   0.6903560  )
        11           Si  tau(  11) = (   0.7670090   0.5923790   0.0132161  )
        12           Si  tau(  12) = (   0.2998920   0.9531990   0.9104650  )
        13           Si  tau(  13) = (   0.4463950   0.0078007   0.1037090  )
        14           Si  tau(  14) = (   0.5909780   0.3147030   0.5216040  )
        15           Si  tau(  15) = (   0.9108960   0.5755980   0.2858700  )
        16           Si  tau(  16) = (   0.6708860   0.5970150   0.2661170  )
        17           Si  tau(  17) = (   0.4188050   0.2246290   0.2267230  )
        18           Si  tau(  18) = (   0.1767080   0.0744272   0.2662390  )
        19           Si  tau(  19) = (   0.7817120   0.9102670   0.9932700  )
        20           Si  tau(  20) = (   0.1167160   0.0953056   0.5037910  )
        21           Si  tau(  21) = (   0.5511920   0.7870960   0.3152010  )
        22           Si  tau(  22) = (   0.3316420   0.3386410   0.5288010  )
        23           Si  tau(  23) = (   0.8807590   0.9405760   0.6952550  )
        24           Si  tau(  24) = (   0.2535930   0.6493830   0.9495130  )
        25           Si  tau(  25) = (   0.3843320   0.1362540   0.4374720  )
        26           Si  tau(  26) = (   0.8586980   0.0236100   0.1968020  )
        27           Si  tau(  27) = (   0.9604660   0.2327940   0.2103360  )
        28           Si  tau(  28) = (   0.8059680   0.8659540   0.4948220  )
        29           Si  tau(  29) = (   0.9787490   0.9259950   0.3565320  )
        30           Si  tau(  30) = (   0.5932680   0.3859500   0.2606760  )
        31           Si  tau(  31) = (   0.9867180   0.3159240   0.6520110  )
        32           Si  tau(  32) = (   0.3862550   0.1355660   0.7823720  )
        33           Si  tau(  33) = (   0.0600798   0.5410290   0.5585900  )
        34           Si  tau(  34) = (   0.8251450   0.3740140   0.1245540  )
        35           Si  tau(  35) = (   0.7338540   0.2187320   0.3799430  )
        36           Si  tau(  36) = (   0.1624870   0.3185690   0.3552550  )
        37           Si  tau(  37) = (   0.4643640   0.9698100   0.5894190  )
        38           Si  tau(  38) = (   0.0842713   0.8985040   0.0373184  )
        39           Si  tau(  39) = (   0.1823600   0.4509420   0.8213460  )
        40           Si  tau(  40) = (   0.2858070   0.7768620   0.4873090  )
        41           Si  tau(  41) = (   0.9644350   0.2135820   0.9607720  )
        42           Si  tau(  42) = (   0.4711020   0.7661360   0.8881070  )
        43           Si  tau(  43) = (   0.6575070   0.8534530   0.7576530  )
        44           Si  tau(  44) = (   0.0826345   0.7254270   0.3756710  )
        45           Si  tau(  45) = (   0.5926660   0.8081480   0.0671112  )
        46           Si  tau(  46) = (   0.9365480   0.3854130   0.4093820  )
        47           Si  tau(  47) = (   0.2282200   0.9374380   0.6470430  )
        48           Si  tau(  48) = (   0.6197490   0.4376610   0.7096170  )
        49           Si  tau(  49) = (   0.0255758   0.5775200   0.0852308  )
        50           Si  tau(  50) = (   0.3216580   0.3557100   0.9810030  )
        51           Si  tau(  51) = (   0.1903660   0.1531720   0.0573912  )
        52           Si  tau(  52) = (   0.7801030   0.6563680   0.4741970  )
        53           Si  tau(  53) = (   0.4463930   0.5349050   0.4373750  )
        54           Si  tau(  54) = (   0.8957200   0.1447670   0.5667360  )
        55           Si  tau(  55) = (   0.1992550   0.2391750   0.7255700  )
        56           Si  tau(  56) = (   0.5276800   0.5584450   0.0104549  )
        57           Si  tau(  57) = (   0.8352160   0.4736530   0.7904440  )
        58           Si  tau(  58) = (   0.3715720   0.6203270   0.2001070  )
        59           Si  tau(  59) = (   0.7668990   0.0893727   0.8811100  )
        60           Si  tau(  60) = (   0.2270260   0.4282380   0.1622980  )
        61           Si  tau(  61) = (   0.6868700   0.0094799   0.3609510  )
        62           Si  tau(  62) = (   0.3398500   0.8930420   0.3001430  )
        63           Si  tau(  63) = (   0.5336340   0.2917330   0.8937570  )
        64           Si  tau(  64) = (   0.6528860   0.1944310   0.0597827  )

     number of k points=     1
                       cart. coord. in units 2pi/alat
        k(    1) = (   0.0000000   0.0000000   0.0000000), wk =   2.0000000

     Dense  grid:    89535 G-vectors     FFT dimensions: (  72,  72,  72)

     Estimated max dynamical RAM per process >     132.03 MB

     Estimated total dynamical RAM >     506.26 MB

     Initial potential from superposition of free atoms

     starting charge     255.9608, renormalised to     256.0000
     Starting wfcs are  256 randomized atomic wfcs

     total cpu time spent up to now is        4.3 secs

     Self-consistent Calculation

     iteration #  1     ecut=    30.00 Ry     beta= 0.50
     Davidson diagonalization with overlap
     ethr =  1.00E-02,  avg # of iterations =  2.0

     Threshold (ethr) on eigenvalues was too large:
     Diagonalizing with lowered threshold

     Davidson diagonalization with overlap
     ethr =  3.92E-04,  avg # of iterations =  4.0

     total cpu time spent up to now is        4.5 secs

     total energy              =    -501.21547958 Ry
     estimated scf accuracy    <       1.24109325 Ry

     iteration #  2     ecut=    30.00 Ry     beta= 0.50
     Davidson diagonalization with overlap
     ethr =  4.85E-04,  avg # of iterations =  8.0

     total cpu time spent up to now is        4.6 secs

     total energy              =    -500.74687253 Ry
     estimated scf accuracy    <       5.79149101 Ry

     iteration #  3     ecut=    30.00 Ry     beta= 0.50
     Davidson diagonalization with overlap
     ethr =  4.85E-04,  avg # of iterations =  9.0

     total cpu time spent up to now is        4.7 secs

     total energy              =    -501.35235852 Ry
     estimated scf accuracy    <       1.41546589 Ry

     iteration #  4     ecut=    30.00 Ry     beta= 0.50
     Davidson diagonalization with overlap
     ethr =  4.85E-04,  avg # of iterations =  6.0

     total cpu time spent up to now is        4.8 secs

     total energy              =    -501.46384732 Ry
     estimated scf accuracy    <       0.27693053 Ry

     iteration #  5     ecut=    30.00 Ry     beta= 0.50
     Davidson diagonalization with overlap
     ethr =  1.08E-04,  avg # of iterations =  7.0

     total cpu time spent up to now is        4.9 secs

     total energy              =    -501.49714023 Ry
     estimated scf accuracy    <       0.06508794 Ry

     iteration #  6     ecut=    30.00 Ry     beta= 0.50
     Davidson diagonalization with overlap
     ethr =  2.54E-05,  avg # of iterations = 17.0

     total cpu time spent up to now is        5.1 secs

     total energy              =    -501.50140540 Ry
     estimated scf accuracy    <       0.16303164 Ry

     iteration #  7     ecut=    30.00 Ry     beta= 0.50
     Davidson diagonalization with overlap
     ethr =  2.54E-05,  avg # of iterations = 11.0

     total cpu time spent up to now is        5.2 secs

     total energy              =    -501.51059191 Ry
     estimated scf accuracy    <       0.01814565 Ry

     iteration #  8     ecut=    30.00 Ry     beta= 0.50
     Davidson diagonalization with overlap
     ethr =  7.09E-06,  avg # of iterations = 13.0

     total cpu time spent up to now is        5.3 secs

     total energy              =    -501.51207167 Ry
     estimated scf accuracy    <       0.01879901 Ry

     iteration #  9     ecut=    30.00 Ry     beta= 0.50
     Davidson diagonalization with overlap
     ethr =  7.09E-06,  avg # of iterations =  3.0

     total cpu time spent up to now is        5.4 secs

     total energy              =    -501.51300924 Ry
     estimated scf accuracy    <       0.00382952 Ry

     iteration # 10     ecut=    30.00 Ry     beta= 0.50
     Davidson diagonalization with overlap
     ethr =  1.50E-06,  avg # of iterations = 10.0

     total cpu time spent up to now is        5.6 secs

     total energy              =    -501.51357223 Ry
     estimated scf accuracy    <       0.00413826 Ry

     iteration # 11     ecut=    30.00 Ry     beta= 0.50
     Davidson diagonalization with overlap
     ethr =  1.50E-06,  avg # of iterations =  2.0

     total cpu time spent up to now is        5.6 secs

     total energy              =    -501.51347577 Ry
     estimated scf accuracy    <       0.00211423 Ry

     iteration # 12     ecut=    30.00 Ry     beta= 0.50
     Davidson diagonalization with overlap
     ethr =  8.26E-07,  avg # of iterations = 12.0

     total cpu time spent up to now is        5.8 secs

     total energy              =    -501.51366870 Ry
     estimated scf accuracy    <       0.00018619 Ry

     iteration # 13     ecut=    30.00 Ry     beta= 0.50
     Davidson diagonalization with overlap
     ethr =  7.27E-08,  avg # of iterations = 19.0

     total cpu time spent up to now is        5.9 secs

     total energy              =    -501.51370854 Ry
     estimated scf accuracy    <       0.00027661 Ry

     iteration # 14     ecut=    30.00 Ry     beta= 0.50
     Davidson diagonalization with overlap
     ethr =  7.27E-08,  avg # of iterations =  3.0

     total cpu time spent up to now is        6.0 secs

     total energy              =    -501.51371426 Ry
     estimated scf accuracy    <       0.00008250 Ry

     iteration # 15     ecut=    30.00 Ry     beta= 0.50
     Davidson diagonalization with overlap
     ethr =  3.22E-08,  avg # of iterations = 18.0

     total cpu time spent up to now is        6.2 secs

     total energy              =    -501.51372211 Ry
     estimated scf accuracy    <       0.00004368 Ry

     iteration # 16     ecut=    30.00 Ry     beta= 0.50
     Davidson diagonalization with overlap
     ethr =  1.71E-08,  avg # of iterations = 20.0

     total cpu time spent up to now is        6.3 secs

     total energy              =    -501.51372531 Ry
     estimated scf accuracy    <       0.00001300 Ry

     iteration # 17     ecut=    30.00 Ry     beta= 0.50
     Davidson diagonalization with overlap
     ethr =  5.08E-09,  avg # of iterations =  6.0

     total cpu time spent up to now is        6.4 secs

     total energy              =    -501.51372623 Ry
     estimated scf accuracy    <       0.00002031 Ry

     iteration # 18     ecut=    30.00 Ry     beta= 0.50
     Davidson diagonalization with overlap
     ethr =  5.08E-09,  avg # of iterations =  9.0

     total cpu time spent up to now is        6.5 secs

     total energy              =    -501.51372742 Ry
     estimated scf accuracy    <       0.00000311 Ry

     iteration # 19     ecut=    30.00 Ry     beta= 0.50
     Davidson diagonalization with overlap
     ethr =  1.21E-09,  avg # of iterations =  8.0

     total cpu time spent up to now is        6.6 secs

     total energy              =    -501.51372778 Ry
     estimated scf accuracy    <       0.00000295 Ry

     iteration # 20     ecut=    30.00 Ry     beta= 0.50
     Davidson diagonalization with overlap
     ethr =  1.15E-09,  avg # of iterations =  3.0

     total cpu time spent up to now is        6.7 secs

     total energy              =    -501.51372778 Ry
     estimated scf accuracy    <       0.00000100 Ry

     iteration # 21     ecut=    30.00 Ry     beta= 0.50
     Davidson diagonalization with overlap
     ethr =  3.92E-10,  avg # of iterations = 19.0

     total cpu time spent up to now is        6.9 secs

     End of self-consistent calculation

          k = 0.0000 0.0000 0.0000 ( 11168 PWs)   bands (ev):

    -5.2781  -4.3384  -4.1878  -4.1217  -4.0658  -3.9555  -3.8954  -3.2398
    -3.1644  -3.1304  -3.1005  -2.9639  -2.9594  -2.8491  -2.8023  -2.7048
    -2.6163  -2.4203  -2.3414  -2.0155  -1.8782  -1.7164  -1.6016  -1.4913
    -1.4224  -1.3514  -1.1830  -0.8540  -0.7018  -0.5854  -0.5113  -0.4253
    -0.1655  -0.0650   0.0409   0.0992   0.1945   0.2858   0.3430   0.4989
     0.5266   0.5526   0.6282   0.7431   0.7889   0.9414   0.9597   1.0094
     1.1053   1.1660   1.2734   1.4697   1.4892   1.6638   1.6776   1.7216
     1.7702   1.9276   2.0475   2.0631   2.1960   2.2549   2.4122   2.4642
     2.6347   2.6791   2.7102   2.7924   2.8246   3.0332   3.0475   3.1357
     3.2497   3.2881   3.4625   3.4787   3.5115   3.5557   3.5921   3.6810
     3.8490   4.3919   4.4653   4.4796   4.5270   4.6356   4.7207   4.7709
     4.8770   4.9770   5.0215   5.0762   5.1943   5.2331   5.3141   5.3631
     5.3985   5.4825   5.5608   5.6249   5.6823   5.7237   5.7684   5.8251
     5.8541   5.9070   5.9285   5.9993   6.0487   6.0931   6.1974   6.2268
     6.2646   6.2895   6.3429   6.3872   6.4400   6.4898   6.5906   6.6835
     6.7459   6.8527   6.9178   6.9382   6.9967   7.0577   7.0945   7.2106

     highest occupied level (ev):     7.2106

!    total energy              =    -501.51372743 Ry
     estimated scf accuracy    <       0.00000068 Ry

     The total energy is the sum of the following terms:
     one-electron contribution =     193.82096492 Ry
     hartree contribution      =      22.28345413 Ry
     xc contribution           =    -150.98061274 Ry
     ewald contribution        =    -566.63753374 Ry

     convergence has been achieved in  21 iterations

     Forces acting on atoms (cartesian axes, Ry/au):

     atom    1 type  1   force =     0.00214423    0.01515523    0.01282083
     atom    2 type  1   force =     0.02975743   -0.00578540    0.00810751
     atom    3 type  1   force =    -0.01181366    0.01945334   -0.00794033
     atom    4 type  1   force =     0.01098630   -0.06183434   -0.01416177
     atom    5 type  1   force =    -0.00977784   -0.02527612    0.01646233
     atom    6 type  1   force =     0.00065769   -0.02714998    0.02645942
     atom    7 type  1   force =     0.02220201    0.01041350   -0.02116688
     atom    8 type  1   force =     0.01018613   -0.00145839    0.02133240
     atom    9 type  1   force =    -0.03494369    0.04108828    0.00238572
     atom   10 type  1   force =    -0.01558308   -0.03967697   -0.00629430
     atom   11 type  1   force =    -0.01959622   -0.00990311    0.01420246
     atom   12 type  1   force =     0.01056083    0.02584079    0.02369743
     atom   13 type  1   force =    -0.00984813   -0.00417163    0.01312318
     atom   14 type  1   force =    -0.04212708    0.00888311    0.01250824
     atom   15 type  1   force =    -0.01356566   -0.00091100    0.00127662
     atom   16 type  1   force =     0.02728852   -0.00374088   -0.01236619
     atom   17 type  1   force =    -0.00862455   -0.02188576   -0.02545304
     atom   18 type  1   force =     0.00628888    0.01606234    0.03108138
     atom   19 type  1   force =    -0.02048967   -0.01650896    0.04925854
     atom   20 type  1   force =    -0.01097996   -0.01334156   -0.00464552
     atom   21 type  1   force =    -0.00760657    0.01276479   -0.01593524
     atom   22 type  1   force =    -0.01043397    0.01330019    0.00745125
     atom   23 type  1   force =    -0.02947519   -0.00562218   -0.00290849
     atom   24 type  1   force =     0.00073408    0.00819108   -0.01772694
     atom   25 type  1   force =     0.00383665   -0.00444190   -0.01251628
     atom   26 type  1   force =    -0.02258169   -0.00311862   -0.01167094
     atom   27 type  1   force =     0.02321871   -0.03910716    0.00217221
     atom   28 type  1   force =     0.00534553    0.06021867    0.01268871
     atom   29 type  1   force =     0.03091180   -0.00117928    0.01675156
     atom   30 type  1   force =     0.01341375   -0.01384033    0.00960254
     atom   31 type  1   force =     0.02383787    0.06428819   -0.00062629
     atom   32 type  1   force =     0.02337947   -0.02257452    0.01468252
     atom   33 type  1   force =    -0.00550146   -0.02436715   -0.00811082
     atom   34 type  1   force =    -0.06116782    0.03557735   -0.00249380
     atom   35 type  1   force =     0.04282247    0.03606179    0.01526230
     atom   36 type  1   force =    -0.01927015   -0.01635847   -0.00911263
     atom   37 type  1   force =    -0.00487956    0.01007132    0.02171959
     atom   38 type  1   force =     0.03188500    0.02835003   -0.00443862
     atom   39 type  1   force =     0.01983650    0.00016223    0.00776307
     atom   40 type  1   force =    -0.00670557    0.02109811    0.00399041
     atom   41 type  1   force =     0.00242389   -0.03781239    0.02946608
     atom   42 type  1   force =    -0.04987604   -0.01825527   -0.01055622
     atom   43 type  1   force =     0.01148043    0.01814777   -0.03450995
     atom   44 type  1   force =     0.00191524   -0.00240249   -0.01523100
     atom   45 type  1   force =     0.00918213    0.01291112    0.02845514
     atom   46 type  1   force =     0.03094486   -0.00894756    0.00751559
     atom   47 type  1   force =     0.00448133    0.00846233   -0.03255505
     atom   48 type  1   force =     0.01676497   -0.03743541    0.04199956
     atom   49 type  1   force =     0.03389547    0.00044607    0.00922828
     atom   50 type  1   force =     0.02675544   -0.01907492   -0.02311208
     atom   51 type  1   force =     0.00644559    0.00537311   -0.00833166
     atom   52 type  1   force =    -0.02656438   -0.02913126    0.00804634
     atom   53 type  1   force =     0.00571438   -0.01515201   -0.03266834
     atom   54 type  1   force =    -0.02928417   -0.03894271   -0.03514971
     atom   55 type  1   force =    -0.00722422    0.02903246   -0.03582602
     atom   56 type  1   force =    -0.00577282    0.00787943    0.02686584
     atom   57 type  1   force =    -0.03060934    0.03564893   -0.05140911
     atom   58 type  1   force =     0.04545434   -0.03105365    0.01020227
     atom   59 type  1   force =    -0.00142696    0.04080324   -0.01658023
     atom   60 type  1   force =    -0.00146682    0.02937645    0.01988040
     atom   61 type  1   force =     0.00510277   -0.04054022   -0.01213684
     atom   62 type  1   force =     0.00945607   -0.00555764   -0.02908277
     atom   63 type  1   force =    -0.03201568    0.02110644   -0.00850748
     atom   64 type  1   force =    -0.00009882    0.01039156   -0.00323520

     Total force =     0.313082     Total SCF correction =     0.001615


     Computing stress (Cartesian axis) and pressure

          total   stress  (Ry/bohr**3)                   (kbar)     P=      -33.00
  -0.00029624  -0.00009379  -0.00002225          -43.58      -13.80       -3.27
  -0.00009379  -0.00021295  -0.00000822          -13.80      -31.33       -1.21
  -0.00002225  -0.00000822  -0.00016373           -3.27       -1.21      -24.09

 
     init_run     :      0.96s CPU      4.28s WALL (       1 calls)
     electrons    :      2.38s CPU      2.55s WALL (       1 calls)
     forces       :      0.03s CPU      0.03s WALL (       1 calls)
     stress       :      0.12s CPU      0.12s WALL (       1 calls)

     Called by init_run:
     wfcinit      :      0.45s CPU      3.62s WALL (       1 calls)
                                        3.62s GPU  (       1 calls)
     potinit      :      0.04s CPU      0.12s WALL (       1 calls)
     hinit0       :      0.45s CPU      0.48s WALL (       1 calls)

     Called by electrons:
     c_bands      :      1.73s CPU      1.81s WALL (      22 calls)
     sum_band     :      0.32s CPU      0.37s WALL (      22 calls)
     v_of_rho     :      0.14s CPU      0.23s WALL (      22 calls)
     mix_rho      :      0.16s CPU      0.17s WALL (      22 calls)

     Called by c_bands:
     init_us_2    :      0.05s CPU      0.06s WALL (      45 calls)
     init_us_2:gp :      0.05s CPU      0.06s WALL (      45 calls)
     regterg      :      1.57s CPU      1.64s WALL (      22 calls)

     Called by *egterg:
     rdiaghg      :      0.80s CPU      1.49s WALL (     230 calls)
                                        1.45s GPU  (     230 calls)
     h_psi        :      0.98s CPU      3.51s WALL (     232 calls)
                                        3.51s GPU  (     232 calls)
     g_psi        :      0.00s CPU      0.01s WALL (     209 calls)
                                        0.00s GPU  (     209 calls)

     Called by h_psi:
     h_psi:calbec :      0.46s CPU      2.92s WALL (     232 calls)
                                        2.92s GPU  (     232 calls)
     vloc_psi     :      0.39s CPU      0.46s WALL (     232 calls)
                                        0.46s GPU  (     232 calls)
     add_vuspsi   :      0.09s CPU      0.12s WALL (     232 calls)
                                        0.12s GPU  (     232 calls)

     General routines
     calbec       :      0.47s CPU      2.92s WALL (     237 calls)
     fft          :      0.56s CPU      0.67s WALL (     183 calls)
                                        0.11s GPU  (     116 calls)
     ffts         :      0.03s CPU      0.04s WALL (      22 calls)
     fftw         :      0.45s CPU      0.60s WALL (    2214 calls)
                                        0.53s GPU  (    2214 calls)
 
     Parallel routines
 
     PWSCF        :      3.52s CPU      7.05s WALL

 
   This run was terminated on:  15:11:25   9May2023            

=------------------------------------------------------------------------------=
   JOB DONE.
=------------------------------------------------------------------------------=
