An instance of this daemon is already running

     Program PWSCF v.7.1 starts on  9May2023 at 15:25:36 

     This program is part of the open-source Quantum ESPRESSO suite
     for quantum simulation of materials; please cite
         "P. Giannozzi et al., J. Phys.:Condens. Matter 21 395502 (2009);
         "P. Giannozzi et al., J. Phys.:Condens. Matter 29 465901 (2017);
         "P. Giannozzi et al., J. Chem. Phys. 152 154105 (2020);
          URL http://www.quantum-espresso.org", 
     in publications or presentations arising from this work. More details at
     http://www.quantum-espresso.org/quote

     Parallel version (MPI & OpenMP), running on       4 processor cores
     Number of MPI processes:                 4
     Threads/MPI process:                     1

     MPI processes distributed on     1 nodes
     6450 MiB available memory on the printing compute node when the environment starts
 
     Reading input from pw-si-86.in
Warning: card &CELL ignored
Warning: card / ignored

     Current dimensions of program PWSCF are:
     Max number of different atomic species (ntypx) = 10
     Max number of k-points (npk) =  40000
     Max angular momentum in pseudopotentials (lmaxx) =  4

     IMPORTANT: XC functional enforced from input :
     Exchange-correlation= PBE
                           (   1   4   3   4   0   0   0)
     Any further DFT definition will be discarded
     Please, verify this is what you really want


     gamma-point specific algorithms are used
 
     K-points division:     npool     =       2
     R & G space division:  proc/nbgrp/npool/nimage =       2
     Subspace diagonalization in iterative solution of the eigenvalue problem:
     a serial algorithm will be used

     Message from routine divide_et_impera:
     suboptimal parallelization: some nodes have no k-points
 
     Parallelization info
     --------------------
     sticks:   dense  smooth     PW     G-vecs:    dense   smooth      PW
     Min        1930    1930    504                90041    90041   12201
     Max        1931    1931    505                90042    90042   12204
     Sum        3861    3861   1009               180083   180083   24405
 
     Using Slab Decomposition
 


     bravais-lattice index     =            0
     lattice parameter (alat)  =      20.0851  a.u.
     unit-cell volume          =    8102.5978 (a.u.)^3
     number of atoms/cell      =           64
     number of atomic types    =            1
     number of electrons       =       256.00
     number of Kohn-Sham states=          128
     kinetic-energy cutoff     =      30.0000  Ry
     charge density cutoff     =     120.0000  Ry
     scf convergence threshold =      1.0E-06
     mixing beta               =       0.5000
     number of iterations used =            8  plain     mixing
     Exchange-correlation= PBE
                           (   1   4   3   4   0   0   0)

     GPU acceleration is ACTIVE.
     GPU-aware MPI enabled

     Message from routine print_cuda_info:
     High GPU oversubscription detected. Are you sure this is what you want?

     celldm(1)=  20.085135  celldm(2)=   0.000000  celldm(3)=   0.000000
     celldm(4)=   0.000000  celldm(5)=   0.000000  celldm(6)=   0.000000

     crystal axes: (cart. coord. in units of alat)
               a(1) = (   1.000000   0.000000   0.000000 )  
               a(2) = (   0.000000   1.000000   0.000000 )  
               a(3) = (   0.000000   0.000000   1.000000 )  

     reciprocal axes: (cart. coord. in units 2 pi/alat)
               b(1) = (  1.000000  0.000000  0.000000 )  
               b(2) = (  0.000000  1.000000  0.000000 )  
               b(3) = (  0.000000  0.000000  1.000000 )  


     PseudoPot. # 1 for Si read from file:
     /home/ppiaggi/pseudos/Si_ONCV_PBE_sr.upf
     MD5 check sum: 8553c464762ac42b85b1eed164b4d029
     Pseudo is Norm-conserving, Zval =  4.0
     Generated using ONCVPSP code by D. R. Hamann
     Using radial grid of 1510 points,  4 beta functions with: 
                l(1) =   0
                l(2) =   0
                l(3) =   1
                l(4) =   1

     atomic species   valence    mass     pseudopotential
        Si             4.00    28.08500     Si( 1.00)

     No symmetry found



   Cartesian axes

     site n.     atom                  positions (alat units)
         1           Si  tau(   1) = (   0.8093600   0.9141410   0.9414820  )
         2           Si  tau(   2) = (   0.8500260   0.2946370   0.5531590  )
         3           Si  tau(   3) = (   0.0558078   0.1959310   0.2120960  )
         4           Si  tau(   4) = (   0.2175950   0.0368507   0.5228110  )
         5           Si  tau(   5) = (   0.5761220   0.3924540   0.2015880  )
         6           Si  tau(   6) = (   0.0828106   0.6267710   0.8777520  )
         7           Si  tau(   7) = (   0.0376182   0.5847340   0.3673360  )
         8           Si  tau(   8) = (   0.2593400   0.2687280   0.1523330  )
         9           Si  tau(   9) = (   0.6107880   0.6920450   0.0286245  )
        10           Si  tau(  10) = (   0.8225890   0.0546187   0.4793700  )
        11           Si  tau(  11) = (   0.3734170   0.4164760   0.9161130  )
        12           Si  tau(  12) = (   0.2111290   0.6082160   0.7144210  )
        13           Si  tau(  13) = (   0.0054423   0.0715055   0.0363368  )
        14           Si  tau(  14) = (   0.8013770   0.2316970   0.9717940  )
        15           Si  tau(  15) = (   0.3315340   0.1308940   0.9969880  )
        16           Si  tau(  16) = (   0.6030930   0.8682490   0.9101080  )
        17           Si  tau(  17) = (   0.5689240   0.1110860   0.9833150  )
        18           Si  tau(  18) = (   0.0329451   0.9248850   0.7502040  )
        19           Si  tau(  19) = (   0.7080270   0.9985940   0.1658290  )
        20           Si  tau(  20) = (   0.2347030   0.4196780   0.4032520  )
        21           Si  tau(  21) = (   0.7018310   0.1607670   0.3236440  )
        22           Si  tau(  22) = (   0.4511030   0.0809278   0.7107520  )
        23           Si  tau(  23) = (   0.3875000   0.2159960   0.4801850  )
        24           Si  tau(  24) = (   0.8574360   0.4980540   0.4837100  )
        25           Si  tau(  25) = (   0.6783230   0.5788910   0.3206260  )
        26           Si  tau(  26) = (   0.9282460   0.5170720   0.1978180  )
        27           Si  tau(  27) = (   0.6743170   0.4897420   0.6967190  )
        28           Si  tau(  28) = (   0.3886780   0.9507890   0.2685560  )
        29           Si  tau(  29) = (   0.9806740   0.2960970   0.7457580  )
        30           Si  tau(  30) = (   0.3643390   0.4932290   0.1748600  )
        31           Si  tau(  31) = (   0.4107160   0.7195520   0.4318040  )
        32           Si  tau(  32) = (   0.8435160   0.3144250   0.2076520  )
        33           Si  tau(  33) = (   0.4499320   0.5053030   0.6520630  )
        34           Si  tau(  34) = (   0.7854860   0.6938090   0.6161120  )
        35           Si  tau(  35) = (   0.3956570   0.9050340   0.0512973  )
        36           Si  tau(  36) = (   0.6630980   0.9909760   0.6377980  )
        37           Si  tau(  37) = (   0.0557578   0.7072870   0.5772780  )
        38           Si  tau(  38) = (   0.0400779   0.8245300   0.0443061  )
        39           Si  tau(  39) = (   0.4767550   0.1648000   0.2615130  )
        40           Si  tau(  40) = (   0.6279710   0.3248810   0.4711490  )
        41           Si  tau(  41) = (   0.2769060   0.9478970   0.8159160  )
        42           Si  tau(  42) = (   0.1529280   0.9871600   0.2788270  )
        43           Si  tau(  43) = (   0.5351300   0.7517630   0.7020760  )
        44           Si  tau(  44) = (   0.5825770   0.3780290   0.9702880  )
        45           Si  tau(  45) = (   0.9145690   0.8879540   0.2655070  )
        46           Si  tau(  46) = (   0.0217484   0.9140290   0.4991280  )
        47           Si  tau(  47) = (   0.9034140   0.4634630   0.9487860  )
        48           Si  tau(  48) = (   0.1647080   0.3900960   0.6220820  )
        49           Si  tau(  49) = (   0.3878680   0.6469410   0.8958380  )
        50           Si  tau(  50) = (   0.2448350   0.7252910   0.0775241  )
        51           Si  tau(  51) = (   0.1208570   0.1493240   0.8595740  )
        52           Si  tau(  52) = (   0.0475135   0.2147810   0.4588530  )
        53           Si  tau(  53) = (   0.8152670   0.7177150   0.1471480  )
        54           Si  tau(  54) = (   0.7480800   0.8140380   0.4354650  )
        55           Si  tau(  55) = (   0.8849160   0.7461590   0.8153320  )
        56           Si  tau(  56) = (   0.6312430   0.2473510   0.7431540  )
        57           Si  tau(  57) = (   0.3332140   0.8240240   0.6205560  )
        58           Si  tau(  58) = (   0.5801640   0.7981980   0.2441060  )
        59           Si  tau(  59) = (   0.1454110   0.3954600   0.9501140  )
        60           Si  tau(  60) = (   0.3473470   0.3075290   0.7043620  )
        61           Si  tau(  61) = (   0.8450010   0.0883834   0.7894340  )
        62           Si  tau(  62) = (   0.7231370   0.5622580   0.8983820  )
        63           Si  tau(  63) = (   0.2140110   0.7266910   0.2962880  )
        64           Si  tau(  64) = (   0.4573210   0.5000310   0.4406460  )

     number of k points=     1
                       cart. coord. in units 2pi/alat
        k(    1) = (   0.0000000   0.0000000   0.0000000), wk =   2.0000000

     Dense  grid:    90042 G-vectors     FFT dimensions: (  72,  72,  72)

     Estimated max dynamical RAM per process >     132.59 MB

     Estimated total dynamical RAM >     508.39 MB

     Initial potential from superposition of free atoms

     starting charge     255.9608, renormalised to     256.0000
     Starting wfcs are  256 randomized atomic wfcs

     total cpu time spent up to now is        4.2 secs

     Self-consistent Calculation

     iteration #  1     ecut=    30.00 Ry     beta= 0.50
     Davidson diagonalization with overlap
     ethr =  1.00E-02,  avg # of iterations =  2.0

     Threshold (ethr) on eigenvalues was too large:
     Diagonalizing with lowered threshold

     Davidson diagonalization with overlap
     ethr =  3.54E-04,  avg # of iterations =  5.0

     total cpu time spent up to now is        4.3 secs

     total energy              =    -501.11121887 Ry
     estimated scf accuracy    <       1.15916931 Ry

     iteration #  2     ecut=    30.00 Ry     beta= 0.50
     Davidson diagonalization with overlap
     ethr =  4.53E-04,  avg # of iterations = 13.0

     total cpu time spent up to now is        4.5 secs

     total energy              =    -500.98332069 Ry
     estimated scf accuracy    <       2.08172814 Ry

     iteration #  3     ecut=    30.00 Ry     beta= 0.50
     Davidson diagonalization with overlap
     ethr =  4.53E-04,  avg # of iterations =  8.0

     total cpu time spent up to now is        4.6 secs

     total energy              =    -501.20134172 Ry
     estimated scf accuracy    <       1.14611395 Ry

     iteration #  4     ecut=    30.00 Ry     beta= 0.50
     Davidson diagonalization with overlap
     ethr =  4.48E-04,  avg # of iterations =  7.0

     total cpu time spent up to now is        4.7 secs

     total energy              =    -501.32757279 Ry
     estimated scf accuracy    <       0.31296384 Ry

     iteration #  5     ecut=    30.00 Ry     beta= 0.50
     Davidson diagonalization with overlap
     ethr =  1.22E-04,  avg # of iterations =  5.0

     total cpu time spent up to now is        4.8 secs

     total energy              =    -501.35330045 Ry
     estimated scf accuracy    <       0.05814524 Ry

     iteration #  6     ecut=    30.00 Ry     beta= 0.50
     Davidson diagonalization with overlap
     ethr =  2.27E-05,  avg # of iterations = 10.0

     total cpu time spent up to now is        4.9 secs

     total energy              =    -501.36079984 Ry
     estimated scf accuracy    <       0.06449699 Ry

     iteration #  7     ecut=    30.00 Ry     beta= 0.50
     Davidson diagonalization with overlap
     c_bands:  1 eigenvalues not converged
     ethr =  2.27E-05,  avg # of iterations = 20.0

     total cpu time spent up to now is        5.1 secs

     total energy              =    -501.36967166 Ry
     estimated scf accuracy    <       0.04873882 Ry

     iteration #  8     ecut=    30.00 Ry     beta= 0.50
     Davidson diagonalization with overlap
     ethr =  1.90E-05,  avg # of iterations = 13.0

     total cpu time spent up to now is        5.2 secs

     total energy              =    -501.36807037 Ry
     estimated scf accuracy    <       0.03431338 Ry

     iteration #  9     ecut=    30.00 Ry     beta= 0.50
     Davidson diagonalization with overlap
     ethr =  1.34E-05,  avg # of iterations =  7.0

     total cpu time spent up to now is        5.3 secs

     total energy              =    -501.36658513 Ry
     estimated scf accuracy    <       0.01953956 Ry

     iteration # 10     ecut=    30.00 Ry     beta= 0.50
     Davidson diagonalization with overlap
     c_bands:  1 eigenvalues not converged
     ethr =  7.63E-06,  avg # of iterations = 20.0

     total cpu time spent up to now is        5.5 secs

     total energy              =    -501.36885517 Ry
     estimated scf accuracy    <       0.01303670 Ry

     iteration # 11     ecut=    30.00 Ry     beta= 0.50
     Davidson diagonalization with overlap
     c_bands:  1 eigenvalues not converged
     ethr =  5.09E-06,  avg # of iterations = 20.0

     total cpu time spent up to now is        5.6 secs

     total energy              =    -501.37034172 Ry
     estimated scf accuracy    <       0.01193729 Ry

     iteration # 12     ecut=    30.00 Ry     beta= 0.50
     Davidson diagonalization with overlap
     c_bands:  1 eigenvalues not converged
     ethr =  4.66E-06,  avg # of iterations = 20.0

     total cpu time spent up to now is        5.8 secs

     total energy              =    -501.37020138 Ry
     estimated scf accuracy    <       0.01383302 Ry

     iteration # 13     ecut=    30.00 Ry     beta= 0.50
     Davidson diagonalization with overlap
     ethr =  4.66E-06,  avg # of iterations = 13.0

     total cpu time spent up to now is        5.9 secs

     total energy              =    -501.36998383 Ry
     estimated scf accuracy    <       0.00954370 Ry

     iteration # 14     ecut=    30.00 Ry     beta= 0.50
     Davidson diagonalization with overlap
     ethr =  3.73E-06,  avg # of iterations =  2.0

     total cpu time spent up to now is        6.0 secs

     total energy              =    -501.36928653 Ry
     estimated scf accuracy    <       0.00667541 Ry

     iteration # 15     ecut=    30.00 Ry     beta= 0.50
     Davidson diagonalization with overlap
     c_bands:  1 eigenvalues not converged
     ethr =  2.61E-06,  avg # of iterations = 20.0

     total cpu time spent up to now is        6.1 secs

     total energy              =    -501.37005115 Ry
     estimated scf accuracy    <       0.00913139 Ry

     iteration # 16     ecut=    30.00 Ry     beta= 0.50
     Davidson diagonalization with overlap
     ethr =  2.61E-06,  avg # of iterations = 18.0

     total cpu time spent up to now is        6.3 secs

     total energy              =    -501.37015955 Ry
     estimated scf accuracy    <       0.00746040 Ry

     iteration # 17     ecut=    30.00 Ry     beta= 0.50
     Davidson diagonalization with overlap
     ethr =  2.61E-06,  avg # of iterations =  1.0

     total cpu time spent up to now is        6.3 secs

     total energy              =    -501.36959446 Ry
     estimated scf accuracy    <       0.00613197 Ry

     iteration # 18     ecut=    30.00 Ry     beta= 0.50
     Davidson diagonalization with overlap
     ethr =  2.40E-06,  avg # of iterations =  2.0

     total cpu time spent up to now is        6.4 secs

     total energy              =    -501.36928031 Ry
     estimated scf accuracy    <       0.00374151 Ry

     iteration # 19     ecut=    30.00 Ry     beta= 0.50
     Davidson diagonalization with overlap
     c_bands:  1 eigenvalues not converged
     ethr =  1.46E-06,  avg # of iterations = 20.0

     total cpu time spent up to now is        6.6 secs

     total energy              =    -501.36984078 Ry
     estimated scf accuracy    <       0.01809255 Ry

     iteration # 20     ecut=    30.00 Ry     beta= 0.50
     Davidson diagonalization with overlap
     c_bands:  1 eigenvalues not converged
     ethr =  1.46E-06,  avg # of iterations = 20.0

     total cpu time spent up to now is        6.7 secs

     total energy              =    -501.37111622 Ry
     estimated scf accuracy    <       0.01865016 Ry

     iteration # 21     ecut=    30.00 Ry     beta= 0.50
     Davidson diagonalization with overlap
     c_bands:  1 eigenvalues not converged
     ethr =  1.46E-06,  avg # of iterations = 20.0

     total cpu time spent up to now is        6.9 secs

     total energy              =    -501.37139720 Ry
     estimated scf accuracy    <       0.02469119 Ry

     iteration # 22     ecut=    30.00 Ry     beta= 0.50
     Davidson diagonalization with overlap
     c_bands:  1 eigenvalues not converged
     ethr =  1.46E-06,  avg # of iterations = 20.0

     total cpu time spent up to now is        7.0 secs

     total energy              =    -501.37183703 Ry
     estimated scf accuracy    <       0.03017527 Ry

     iteration # 23     ecut=    30.00 Ry     beta= 0.50
     Davidson diagonalization with overlap
     c_bands:  1 eigenvalues not converged
     ethr =  1.46E-06,  avg # of iterations = 20.0

     total cpu time spent up to now is        7.2 secs

     total energy              =    -501.37206125 Ry
     estimated scf accuracy    <       0.03298820 Ry

     iteration # 24     ecut=    30.00 Ry     beta= 0.50
     Davidson diagonalization with overlap
     c_bands:  1 eigenvalues not converged
     ethr =  1.46E-06,  avg # of iterations = 20.0

     total cpu time spent up to now is        7.3 secs

     total energy              =    -501.37208625 Ry
     estimated scf accuracy    <       0.03581663 Ry

     iteration # 25     ecut=    30.00 Ry     beta= 0.50
     Davidson diagonalization with overlap
     ethr =  1.46E-06,  avg # of iterations =  2.0

     total cpu time spent up to now is        7.4 secs

     total energy              =    -501.37232674 Ry
     estimated scf accuracy    <       0.03515014 Ry

     iteration # 26     ecut=    30.00 Ry     beta= 0.50
     Davidson diagonalization with overlap
     ethr =  1.46E-06,  avg # of iterations =  1.0

     total cpu time spent up to now is        7.4 secs

     total energy              =    -501.37267213 Ry
     estimated scf accuracy    <       0.03647141 Ry

     iteration # 27     ecut=    30.00 Ry     beta= 0.50
     Davidson diagonalization with overlap
     ethr =  1.46E-06,  avg # of iterations =  2.0

     total cpu time spent up to now is        7.5 secs

     total energy              =    -501.37244223 Ry
     estimated scf accuracy    <       0.03898078 Ry

     iteration # 28     ecut=    30.00 Ry     beta= 0.50
     Davidson diagonalization with overlap
     c_bands:  1 eigenvalues not converged
     ethr =  1.46E-06,  avg # of iterations = 20.0

     total cpu time spent up to now is        7.7 secs

     total energy              =    -501.36829239 Ry
     estimated scf accuracy    <       0.06514457 Ry

     iteration # 29     ecut=    30.00 Ry     beta= 0.50
     Davidson diagonalization with overlap
     c_bands:  1 eigenvalues not converged
     ethr =  1.46E-06,  avg # of iterations = 20.0

     total cpu time spent up to now is        7.9 secs

     total energy              =    -501.36834250 Ry
     estimated scf accuracy    <       0.02840383 Ry

     iteration # 30     ecut=    30.00 Ry     beta= 0.50
     Davidson diagonalization with overlap
     c_bands:  1 eigenvalues not converged
     ethr =  1.46E-06,  avg # of iterations = 20.0

     total cpu time spent up to now is        8.1 secs

     total energy              =    -501.36940463 Ry
     estimated scf accuracy    <       0.04195254 Ry

     iteration # 31     ecut=    30.00 Ry     beta= 0.50
     Davidson diagonalization with overlap
     ethr =  1.46E-06,  avg # of iterations = 15.0

     total cpu time spent up to now is        8.2 secs

     total energy              =    -501.36907017 Ry
     estimated scf accuracy    <       0.01278760 Ry

     iteration # 32     ecut=    30.00 Ry     beta= 0.50
     Davidson diagonalization with overlap
     c_bands:  1 eigenvalues not converged
     ethr =  1.46E-06,  avg # of iterations = 20.0

     total cpu time spent up to now is        8.4 secs

     total energy              =    -501.36755398 Ry
     estimated scf accuracy    <       0.05085399 Ry

     iteration # 33     ecut=    30.00 Ry     beta= 0.50
     Davidson diagonalization with overlap
     c_bands:  1 eigenvalues not converged
     ethr =  1.46E-06,  avg # of iterations = 20.0

     total cpu time spent up to now is        8.6 secs

     total energy              =    -501.37042149 Ry
     estimated scf accuracy    <       0.02006861 Ry

     iteration # 34     ecut=    30.00 Ry     beta= 0.50
     Davidson diagonalization with overlap
     c_bands:  1 eigenvalues not converged
     ethr =  1.46E-06,  avg # of iterations = 20.0

     total cpu time spent up to now is        8.7 secs

     total energy              =    -501.37044075 Ry
     estimated scf accuracy    <       0.01702589 Ry

     iteration # 35     ecut=    30.00 Ry     beta= 0.50
     Davidson diagonalization with overlap
     c_bands:  1 eigenvalues not converged
     ethr =  1.46E-06,  avg # of iterations = 20.0

     total cpu time spent up to now is        8.9 secs

     total energy              =    -501.36994547 Ry
     estimated scf accuracy    <       0.01879705 Ry

     iteration # 36     ecut=    30.00 Ry     beta= 0.50
     Davidson diagonalization with overlap
     ethr =  1.46E-06,  avg # of iterations = 16.0

     total cpu time spent up to now is        9.0 secs

     total energy              =    -501.37016084 Ry
     estimated scf accuracy    <       0.01407733 Ry

     iteration # 37     ecut=    30.00 Ry     beta= 0.50
     Davidson diagonalization with overlap
     ethr =  1.46E-06,  avg # of iterations =  2.0

     total cpu time spent up to now is        9.1 secs

     total energy              =    -501.36991921 Ry
     estimated scf accuracy    <       0.01238377 Ry

     iteration # 38     ecut=    30.00 Ry     beta= 0.50
     Davidson diagonalization with overlap
     c_bands:  1 eigenvalues not converged
     ethr =  1.46E-06,  avg # of iterations = 20.0

     total cpu time spent up to now is        9.3 secs

     total energy              =    -501.36994426 Ry
     estimated scf accuracy    <       0.02628107 Ry

     iteration # 39     ecut=    30.00 Ry     beta= 0.50
     Davidson diagonalization with overlap
     c_bands:  1 eigenvalues not converged
     ethr =  1.46E-06,  avg # of iterations = 20.0

     total cpu time spent up to now is        9.5 secs

     total energy              =    -501.37160606 Ry
     estimated scf accuracy    <       0.03555471 Ry

     iteration # 40     ecut=    30.00 Ry     beta= 0.50
     Davidson diagonalization with overlap
     c_bands:  1 eigenvalues not converged
     ethr =  1.46E-06,  avg # of iterations = 20.0

     total cpu time spent up to now is        9.6 secs

     total energy              =    -501.37236452 Ry
     estimated scf accuracy    <       0.03564806 Ry

     iteration # 41     ecut=    30.00 Ry     beta= 0.50
     Davidson diagonalization with overlap
     c_bands:  1 eigenvalues not converged
     ethr =  1.46E-06,  avg # of iterations = 20.0

     total cpu time spent up to now is        9.8 secs

     total energy              =    -501.37351300 Ry
     estimated scf accuracy    <       0.03109178 Ry

     iteration # 42     ecut=    30.00 Ry     beta= 0.50
     Davidson diagonalization with overlap
     c_bands:  1 eigenvalues not converged
     ethr =  1.46E-06,  avg # of iterations = 20.0

     total cpu time spent up to now is       10.0 secs

     total energy              =    -501.37379733 Ry
     estimated scf accuracy    <       0.03894189 Ry

     iteration # 43     ecut=    30.00 Ry     beta= 0.50
     Davidson diagonalization with overlap
     ethr =  1.46E-06,  avg # of iterations =  3.0

     total cpu time spent up to now is       10.0 secs

     total energy              =    -501.36988917 Ry
     estimated scf accuracy    <       0.03661562 Ry

     iteration # 44     ecut=    30.00 Ry     beta= 0.50
     Davidson diagonalization with overlap
     c_bands:  2 eigenvalues not converged
     ethr =  1.46E-06,  avg # of iterations = 20.0

     total cpu time spent up to now is       10.2 secs

     total energy              =    -501.37065921 Ry
     estimated scf accuracy    <       0.01798312 Ry

     iteration # 45     ecut=    30.00 Ry     beta= 0.50
     Davidson diagonalization with overlap
     ethr =  1.46E-06,  avg # of iterations = 10.0

     total cpu time spent up to now is       10.3 secs

     total energy              =    -501.37059490 Ry
     estimated scf accuracy    <       0.01389530 Ry

     iteration # 46     ecut=    30.00 Ry     beta= 0.50
     Davidson diagonalization with overlap
     ethr =  1.46E-06,  avg # of iterations =  2.0

     total cpu time spent up to now is       10.4 secs

     total energy              =    -501.36804924 Ry
     estimated scf accuracy    <       0.01260945 Ry

     iteration # 47     ecut=    30.00 Ry     beta= 0.50
     Davidson diagonalization with overlap
     c_bands:  1 eigenvalues not converged
     ethr =  1.46E-06,  avg # of iterations = 20.0

     total cpu time spent up to now is       10.6 secs

     total energy              =    -501.36743794 Ry
     estimated scf accuracy    <       0.09167688 Ry

     iteration # 48     ecut=    30.00 Ry     beta= 0.50
     Davidson diagonalization with overlap
     c_bands:  1 eigenvalues not converged
     ethr =  1.46E-06,  avg # of iterations = 20.0

     total cpu time spent up to now is       10.8 secs

     total energy              =    -501.36745182 Ry
     estimated scf accuracy    <       0.08459203 Ry

     iteration # 49     ecut=    30.00 Ry     beta= 0.50
     Davidson diagonalization with overlap
     c_bands:  1 eigenvalues not converged
     ethr =  1.46E-06,  avg # of iterations = 20.0

     total cpu time spent up to now is       10.9 secs

     total energy              =    -501.36977091 Ry
     estimated scf accuracy    <       0.02275281 Ry

     iteration # 50     ecut=    30.00 Ry     beta= 0.50
     Davidson diagonalization with overlap
     ethr =  1.46E-06,  avg # of iterations =  5.0

     total cpu time spent up to now is       11.0 secs

     total energy              =    -501.36921568 Ry
     estimated scf accuracy    <       0.01496567 Ry

     iteration # 51     ecut=    30.00 Ry     beta= 0.50
     Davidson diagonalization with overlap
     ethr =  1.46E-06,  avg # of iterations =  2.0

     total cpu time spent up to now is       11.1 secs

     total energy              =    -501.36900469 Ry
     estimated scf accuracy    <       0.01057661 Ry

     iteration # 52     ecut=    30.00 Ry     beta= 0.50
     Davidson diagonalization with overlap
     ethr =  1.46E-06,  avg # of iterations =  2.0

     total cpu time spent up to now is       11.2 secs

     total energy              =    -501.36926749 Ry
     estimated scf accuracy    <       0.00814057 Ry

     iteration # 53     ecut=    30.00 Ry     beta= 0.50
     Davidson diagonalization with overlap
     c_bands:  1 eigenvalues not converged
     ethr =  1.46E-06,  avg # of iterations = 20.0

     total cpu time spent up to now is       11.3 secs

     total energy              =    -501.37056691 Ry
     estimated scf accuracy    <       0.00796524 Ry

     iteration # 54     ecut=    30.00 Ry     beta= 0.50
     Davidson diagonalization with overlap
     c_bands:  1 eigenvalues not converged
     ethr =  1.46E-06,  avg # of iterations = 20.0

     total cpu time spent up to now is       11.5 secs

     total energy              =    -501.37081590 Ry
     estimated scf accuracy    <       0.00893141 Ry

     iteration # 55     ecut=    30.00 Ry     beta= 0.50
     Davidson diagonalization with overlap
     c_bands:  1 eigenvalues not converged
     ethr =  1.46E-06,  avg # of iterations = 20.0

     total cpu time spent up to now is       11.6 secs

     total energy              =    -501.37123783 Ry
     estimated scf accuracy    <       0.00964435 Ry

     iteration # 56     ecut=    30.00 Ry     beta= 0.50
     Davidson diagonalization with overlap
     ethr =  1.46E-06,  avg # of iterations = 18.0

     total cpu time spent up to now is       11.8 secs

     total energy              =    -501.37126928 Ry
     estimated scf accuracy    <       0.01322231 Ry

     iteration # 57     ecut=    30.00 Ry     beta= 0.50
     Davidson diagonalization with overlap
     ethr =  1.46E-06,  avg # of iterations =  1.0

     total cpu time spent up to now is       11.8 secs

     total energy              =    -501.37113283 Ry
     estimated scf accuracy    <       0.01281662 Ry

     iteration # 58     ecut=    30.00 Ry     beta= 0.50
     Davidson diagonalization with overlap
     ethr =  1.46E-06,  avg # of iterations =  1.0

     total cpu time spent up to now is       11.9 secs

     total energy              =    -501.37105060 Ry
     estimated scf accuracy    <       0.01203207 Ry

     iteration # 59     ecut=    30.00 Ry     beta= 0.50
     Davidson diagonalization with overlap
     ethr =  1.46E-06,  avg # of iterations =  1.0

     total cpu time spent up to now is       12.0 secs

     total energy              =    -501.37140144 Ry
     estimated scf accuracy    <       0.01154272 Ry

     iteration # 60     ecut=    30.00 Ry     beta= 0.50
     Davidson diagonalization with overlap
     ethr =  1.46E-06,  avg # of iterations =  1.0

     total cpu time spent up to now is       12.1 secs

     total energy              =    -501.37162358 Ry
     estimated scf accuracy    <       0.01279421 Ry

     iteration # 61     ecut=    30.00 Ry     beta= 0.50
     Davidson diagonalization with overlap
     ethr =  1.46E-06,  avg # of iterations =  1.0

     total cpu time spent up to now is       12.1 secs

     total energy              =    -501.36607706 Ry
     estimated scf accuracy    <       0.01415348 Ry

     iteration # 62     ecut=    30.00 Ry     beta= 0.50
     Davidson diagonalization with overlap
     c_bands:  1 eigenvalues not converged
     ethr =  1.46E-06,  avg # of iterations = 20.0

     total cpu time spent up to now is       12.3 secs

     total energy              =    -501.36987401 Ry
     estimated scf accuracy    <       0.14002859 Ry

     iteration # 63     ecut=    30.00 Ry     beta= 0.50
     Davidson diagonalization with overlap
     c_bands:  1 eigenvalues not converged
     ethr =  1.46E-06,  avg # of iterations = 20.0

     total cpu time spent up to now is       12.5 secs

     total energy              =    -501.36980008 Ry
     estimated scf accuracy    <       0.04697026 Ry

     iteration # 64     ecut=    30.00 Ry     beta= 0.50
     Davidson diagonalization with overlap
     ethr =  1.46E-06,  avg # of iterations = 10.0

     total cpu time spent up to now is       12.6 secs

     total energy              =    -501.37055726 Ry
     estimated scf accuracy    <       0.02250790 Ry

     iteration # 65     ecut=    30.00 Ry     beta= 0.50
     Davidson diagonalization with overlap
     ethr =  1.46E-06,  avg # of iterations =  2.0

     total cpu time spent up to now is       12.7 secs

     total energy              =    -501.37026285 Ry
     estimated scf accuracy    <       0.01967544 Ry

     iteration # 66     ecut=    30.00 Ry     beta= 0.50
     Davidson diagonalization with overlap
     ethr =  1.46E-06,  avg # of iterations =  1.0

     total cpu time spent up to now is       12.8 secs

     total energy              =    -501.36979437 Ry
     estimated scf accuracy    <       0.01770014 Ry

     iteration # 67     ecut=    30.00 Ry     beta= 0.50
     Davidson diagonalization with overlap
     ethr =  1.46E-06,  avg # of iterations =  2.0

     total cpu time spent up to now is       12.9 secs

     total energy              =    -501.36932863 Ry
     estimated scf accuracy    <       0.01536654 Ry

     iteration # 68     ecut=    30.00 Ry     beta= 0.50
     Davidson diagonalization with overlap
     ethr =  1.46E-06,  avg # of iterations =  2.0

     total cpu time spent up to now is       12.9 secs

     total energy              =    -501.36849611 Ry
     estimated scf accuracy    <       0.01266358 Ry

     iteration # 69     ecut=    30.00 Ry     beta= 0.50
     Davidson diagonalization with overlap
     c_bands:  1 eigenvalues not converged
     ethr =  1.46E-06,  avg # of iterations = 20.0

     total cpu time spent up to now is       13.1 secs

     total energy              =    -501.37086505 Ry
     estimated scf accuracy    <       0.01094227 Ry

     iteration # 70     ecut=    30.00 Ry     beta= 0.50
     Davidson diagonalization with overlap
     ethr =  1.46E-06,  avg # of iterations = 17.0

     total cpu time spent up to now is       13.2 secs

     total energy              =    -501.37124206 Ry
     estimated scf accuracy    <       0.01076714 Ry

     iteration # 71     ecut=    30.00 Ry     beta= 0.50
     Davidson diagonalization with overlap
     c_bands:  1 eigenvalues not converged
     ethr =  1.46E-06,  avg # of iterations = 20.0

     total cpu time spent up to now is       13.4 secs

     total energy              =    -501.37038672 Ry
     estimated scf accuracy    <       0.01725711 Ry

     iteration # 72     ecut=    30.00 Ry     beta= 0.50
     Davidson diagonalization with overlap
     c_bands:  1 eigenvalues not converged
     ethr =  1.46E-06,  avg # of iterations = 20.0

     total cpu time spent up to now is       13.5 secs

     total energy              =    -501.37049894 Ry
     estimated scf accuracy    <       0.01144617 Ry

     iteration # 73     ecut=    30.00 Ry     beta= 0.50
     Davidson diagonalization with overlap
     ethr =  1.46E-06,  avg # of iterations =  2.0

     total cpu time spent up to now is       13.6 secs

     total energy              =    -501.37047360 Ry
     estimated scf accuracy    <       0.00952780 Ry

     iteration # 74     ecut=    30.00 Ry     beta= 0.50
     Davidson diagonalization with overlap
     ethr =  1.46E-06,  avg # of iterations =  1.0

     total cpu time spent up to now is       13.7 secs

     total energy              =    -501.37038616 Ry
     estimated scf accuracy    <       0.00883381 Ry

     iteration # 75     ecut=    30.00 Ry     beta= 0.50
     Davidson diagonalization with overlap
     ethr =  1.46E-06,  avg # of iterations =  1.0

     total cpu time spent up to now is       13.7 secs

     total energy              =    -501.37059625 Ry
     estimated scf accuracy    <       0.00807641 Ry

     iteration # 76     ecut=    30.00 Ry     beta= 0.50
     Davidson diagonalization with overlap
     ethr =  1.46E-06,  avg # of iterations =  2.0

     total cpu time spent up to now is       13.8 secs

     total energy              =    -501.37069551 Ry
     estimated scf accuracy    <       0.00892081 Ry

     iteration # 77     ecut=    30.00 Ry     beta= 0.50
     Davidson diagonalization with overlap
     ethr =  1.46E-06,  avg # of iterations =  1.0

     total cpu time spent up to now is       13.9 secs

     total energy              =    -501.36842102 Ry
     estimated scf accuracy    <       0.00919916 Ry

     iteration # 78     ecut=    30.00 Ry     beta= 0.50
     Davidson diagonalization with overlap
     c_bands:  1 eigenvalues not converged
     ethr =  1.46E-06,  avg # of iterations = 20.0

     total cpu time spent up to now is       14.1 secs

     total energy              =    -501.37067356 Ry
     estimated scf accuracy    <       0.05341596 Ry

     iteration # 79     ecut=    30.00 Ry     beta= 0.50
     Davidson diagonalization with overlap
     c_bands:  1 eigenvalues not converged
     ethr =  1.46E-06,  avg # of iterations = 20.0

     total cpu time spent up to now is       14.2 secs

     total energy              =    -501.37019559 Ry
     estimated scf accuracy    <       0.04172352 Ry

     iteration # 80     ecut=    30.00 Ry     beta= 0.50
     Davidson diagonalization with overlap
     c_bands:  1 eigenvalues not converged
     ethr =  1.46E-06,  avg # of iterations = 20.0

     total cpu time spent up to now is       14.4 secs

     total energy              =    -501.36847278 Ry
     estimated scf accuracy    <       0.05362370 Ry

     iteration # 81     ecut=    30.00 Ry     beta= 0.50
     Davidson diagonalization with overlap
     c_bands:  1 eigenvalues not converged
     ethr =  1.46E-06,  avg # of iterations = 20.0

     total cpu time spent up to now is       14.6 secs

     total energy              =    -501.37005575 Ry
     estimated scf accuracy    <       0.02934923 Ry

     iteration # 82     ecut=    30.00 Ry     beta= 0.50
     Davidson diagonalization with overlap
     ethr =  1.46E-06,  avg # of iterations = 19.0

     total cpu time spent up to now is       14.7 secs

     total energy              =    -501.37064692 Ry
     estimated scf accuracy    <       0.01406323 Ry

     iteration # 83     ecut=    30.00 Ry     beta= 0.50
     Davidson diagonalization with overlap
     ethr =  1.46E-06,  avg # of iterations =  1.0

     total cpu time spent up to now is       14.8 secs

     total energy              =    -501.37047870 Ry
     estimated scf accuracy    <       0.01265286 Ry

     iteration # 84     ecut=    30.00 Ry     beta= 0.50
     Davidson diagonalization with overlap
     ethr =  1.46E-06,  avg # of iterations =  1.0

     total cpu time spent up to now is       14.9 secs

     total energy              =    -501.37048130 Ry
     estimated scf accuracy    <       0.01151694 Ry

     iteration # 85     ecut=    30.00 Ry     beta= 0.50
     Davidson diagonalization with overlap
     ethr =  1.46E-06,  avg # of iterations =  1.0

     total cpu time spent up to now is       15.0 secs

     total energy              =    -501.37000438 Ry
     estimated scf accuracy    <       0.01119802 Ry

     iteration # 86     ecut=    30.00 Ry     beta= 0.50
     Davidson diagonalization with overlap
     ethr =  1.46E-06,  avg # of iterations =  2.0

     total cpu time spent up to now is       15.0 secs

     total energy              =    -501.36791792 Ry
     estimated scf accuracy    <       0.00909150 Ry

     iteration # 87     ecut=    30.00 Ry     beta= 0.50
     Davidson diagonalization with overlap
     c_bands:  1 eigenvalues not converged
     ethr =  1.46E-06,  avg # of iterations = 20.0

     total cpu time spent up to now is       15.2 secs

     total energy              =    -501.37266837 Ry
     estimated scf accuracy    <       0.03495778 Ry

     iteration # 88     ecut=    30.00 Ry     beta= 0.50
     Davidson diagonalization with overlap
     c_bands:  1 eigenvalues not converged
     ethr =  1.46E-06,  avg # of iterations = 20.0

     total cpu time spent up to now is       15.3 secs

     total energy              =    -501.37248188 Ry
     estimated scf accuracy    <       0.03166268 Ry

     iteration # 89     ecut=    30.00 Ry     beta= 0.50
     Davidson diagonalization with overlap
     ethr =  1.46E-06,  avg # of iterations =  2.0

     total cpu time spent up to now is       15.4 secs

     total energy              =    -501.36994875 Ry
     estimated scf accuracy    <       0.02838575 Ry

     iteration # 90     ecut=    30.00 Ry     beta= 0.50
     Davidson diagonalization with overlap
     c_bands:  1 eigenvalues not converged
     ethr =  1.46E-06,  avg # of iterations = 20.0

     total cpu time spent up to now is       15.6 secs

     total energy              =    -501.36990579 Ry
     estimated scf accuracy    <       0.02943163 Ry

     iteration # 91     ecut=    30.00 Ry     beta= 0.50
     Davidson diagonalization with overlap
     ethr =  1.46E-06,  avg # of iterations = 20.0

     total cpu time spent up to now is       15.8 secs

     total energy              =    -501.37074091 Ry
     estimated scf accuracy    <       0.01285848 Ry

     iteration # 92     ecut=    30.00 Ry     beta= 0.50
     Davidson diagonalization with overlap
     ethr =  1.46E-06,  avg # of iterations =  1.0

     total cpu time spent up to now is       15.8 secs

     total energy              =    -501.37045387 Ry
     estimated scf accuracy    <       0.01067428 Ry

     iteration # 93     ecut=    30.00 Ry     beta= 0.50
     Davidson diagonalization with overlap
     ethr =  1.46E-06,  avg # of iterations =  1.0

     total cpu time spent up to now is       15.9 secs

     total energy              =    -501.37069481 Ry
     estimated scf accuracy    <       0.00907724 Ry

     iteration # 94     ecut=    30.00 Ry     beta= 0.50
     Davidson diagonalization with overlap
     ethr =  1.46E-06,  avg # of iterations =  1.0

     total cpu time spent up to now is       16.0 secs

     total energy              =    -501.37069571 Ry
     estimated scf accuracy    <       0.00935450 Ry

     iteration # 95     ecut=    30.00 Ry     beta= 0.50
     Davidson diagonalization with overlap
     ethr =  1.46E-06,  avg # of iterations =  1.0

     total cpu time spent up to now is       16.0 secs

     total energy              =    -501.36850905 Ry
     estimated scf accuracy    <       0.00929341 Ry

     iteration # 96     ecut=    30.00 Ry     beta= 0.50
     Davidson diagonalization with overlap
     c_bands:  1 eigenvalues not converged
     ethr =  1.46E-06,  avg # of iterations = 20.0

     total cpu time spent up to now is       16.2 secs

     total energy              =    -501.37155855 Ry
     estimated scf accuracy    <       0.03813741 Ry

     iteration # 97     ecut=    30.00 Ry     beta= 0.50
     Davidson diagonalization with overlap
     c_bands:  1 eigenvalues not converged
     ethr =  1.46E-06,  avg # of iterations = 20.0

     total cpu time spent up to now is       16.4 secs

     total energy              =    -501.37149380 Ry
     estimated scf accuracy    <       0.02593060 Ry

     iteration # 98     ecut=    30.00 Ry     beta= 0.50
     Davidson diagonalization with overlap
     c_bands:  1 eigenvalues not converged
     ethr =  1.46E-06,  avg # of iterations = 20.0

     total cpu time spent up to now is       16.5 secs

     total energy              =    -501.37134285 Ry
     estimated scf accuracy    <       0.01836239 Ry

     iteration # 99     ecut=    30.00 Ry     beta= 0.50
     Davidson diagonalization with overlap
     ethr =  1.46E-06,  avg # of iterations =  8.0

     total cpu time spent up to now is       16.6 secs

     total energy              =    -501.37045241 Ry
     estimated scf accuracy    <       0.01681254 Ry

     iteration #100     ecut=    30.00 Ry     beta= 0.50
     Davidson diagonalization with overlap
     ethr =  1.46E-06,  avg # of iterations =  2.0

     total cpu time spent up to now is       16.7 secs

     total energy              =    -501.36991960 Ry
     estimated scf accuracy    <       0.01274061 Ry

     End of self-consistent calculation

     convergence NOT achieved after 100 iterations: stopping

     Writing config to output data dir ./pwscf.save/
     Message from routine punch:
     wavefunctions written to file
 
     init_run     :      0.94s CPU      4.12s WALL (       1 calls)
     electrons    :     11.76s CPU     12.55s WALL (       1 calls)

     Called by init_run:
     wfcinit      :      0.44s CPU      3.47s WALL (       1 calls)
                                        3.47s GPU  (       1 calls)
     potinit      :      0.03s CPU      0.12s WALL (       1 calls)
     hinit0       :      0.45s CPU      0.48s WALL (       1 calls)

     Called by electrons:
     c_bands      :      8.59s CPU      9.08s WALL (     101 calls)
     sum_band     :      1.47s CPU      1.68s WALL (     101 calls)
     v_of_rho     :      0.59s CPU      0.70s WALL (     101 calls)
     mix_rho      :      0.89s CPU      0.93s WALL (     101 calls)

     Called by c_bands:
     init_us_2    :      0.25s CPU      0.28s WALL (     203 calls)
     init_us_2:gp :      0.25s CPU      0.27s WALL (     203 calls)
     regterg      :      7.81s CPU      8.25s WALL (     101 calls)

     Called by *egterg:
     rdiaghg      :      3.97s CPU      4.78s WALL (    1292 calls)
                                        4.60s GPU  (    1292 calls)
     h_psi        :      3.17s CPU      5.77s WALL (    1294 calls)
                                        5.75s GPU  (    1294 calls)
     g_psi        :      0.00s CPU      0.03s WALL (    1192 calls)
                                        0.02s GPU  (    1192 calls)

     Called by h_psi:
     h_psi:calbec :      0.70s CPU      3.12s WALL (    1294 calls)
                                        3.11s GPU  (    1294 calls)
     vloc_psi     :      1.68s CPU      1.84s WALL (    1294 calls)
                                        1.82s GPU  (    1294 calls)
     add_vuspsi   :      0.63s CPU      0.75s WALL (    1294 calls)
                                        0.74s GPU  (    1294 calls)

     General routines
     calbec       :      0.69s CPU      3.09s WALL (    1294 calls)
     fft          :      0.91s CPU      1.06s WALL (     809 calls)
                                        0.17s GPU  (     505 calls)
     ffts         :      0.14s CPU      0.16s WALL (     101 calls)
     fftw         :      2.00s CPU      2.49s WALL (   10478 calls)
                                        2.16s GPU  (   10478 calls)
     davcio       :      0.00s CPU      0.00s WALL (      19 calls)
 
     Parallel routines
 
     PWSCF        :     12.75s CPU     16.76s WALL

 
   This run was terminated on:  15:25:53   9May2023            

=------------------------------------------------------------------------------=
   JOB DONE.
=------------------------------------------------------------------------------=
