An instance of this daemon is already running

     Program PWSCF v.7.1 starts on  9May2023 at 15:16:45 

     This program is part of the open-source Quantum ESPRESSO suite
     for quantum simulation of materials; please cite
         "P. Giannozzi et al., J. Phys.:Condens. Matter 21 395502 (2009);
         "P. Giannozzi et al., J. Phys.:Condens. Matter 29 465901 (2017);
         "P. Giannozzi et al., J. Chem. Phys. 152 154105 (2020);
          URL http://www.quantum-espresso.org", 
     in publications or presentations arising from this work. More details at
     http://www.quantum-espresso.org/quote

     Parallel version (MPI & OpenMP), running on       4 processor cores
     Number of MPI processes:                 4
     Threads/MPI process:                     1

     MPI processes distributed on     1 nodes
     7598 MiB available memory on the printing compute node when the environment starts
 
     Reading input from pw-si-48.in
Warning: card &CELL ignored
Warning: card / ignored

     Current dimensions of program PWSCF are:
     Max number of different atomic species (ntypx) = 10
     Max number of k-points (npk) =  40000
     Max angular momentum in pseudopotentials (lmaxx) =  4

     IMPORTANT: XC functional enforced from input :
     Exchange-correlation= PBE
                           (   1   4   3   4   0   0   0)
     Any further DFT definition will be discarded
     Please, verify this is what you really want


     gamma-point specific algorithms are used
 
     K-points division:     npool     =       2
     R & G space division:  proc/nbgrp/npool/nimage =       2
     Subspace diagonalization in iterative solution of the eigenvalue problem:
     a serial algorithm will be used

     Message from routine divide_et_impera:
     suboptimal parallelization: some nodes have no k-points
 
     Parallelization info
     --------------------
     sticks:   dense  smooth     PW     G-vecs:    dense   smooth      PW
     Min        1916    1916    502                89532    89532   12150
     Max        1917    1917    503                89537    89537   12153
     Sum        3833    3833   1005               179069   179069   24303
 
     Using Slab Decomposition
 


     bravais-lattice index     =            0
     lattice parameter (alat)  =      20.0609  a.u.
     unit-cell volume          =    8073.2780 (a.u.)^3
     number of atoms/cell      =           64
     number of atomic types    =            1
     number of electrons       =       256.00
     number of Kohn-Sham states=          128
     kinetic-energy cutoff     =      30.0000  Ry
     charge density cutoff     =     120.0000  Ry
     scf convergence threshold =      1.0E-06
     mixing beta               =       0.5000
     number of iterations used =            8  plain     mixing
     Exchange-correlation= PBE
                           (   1   4   3   4   0   0   0)

     GPU acceleration is ACTIVE.
     GPU-aware MPI enabled

     Message from routine print_cuda_info:
     High GPU oversubscription detected. Are you sure this is what you want?

     celldm(1)=  20.060879  celldm(2)=   0.000000  celldm(3)=   0.000000
     celldm(4)=   0.000000  celldm(5)=   0.000000  celldm(6)=   0.000000

     crystal axes: (cart. coord. in units of alat)
               a(1) = (   1.000000   0.000000   0.000000 )  
               a(2) = (   0.000000   1.000000   0.000000 )  
               a(3) = (   0.000000   0.000000   1.000000 )  

     reciprocal axes: (cart. coord. in units 2 pi/alat)
               b(1) = (  1.000000  0.000000  0.000000 )  
               b(2) = (  0.000000  1.000000  0.000000 )  
               b(3) = (  0.000000  0.000000  1.000000 )  


     PseudoPot. # 1 for Si read from file:
     /home/ppiaggi/pseudos/Si_ONCV_PBE_sr.upf
     MD5 check sum: 8553c464762ac42b85b1eed164b4d029
     Pseudo is Norm-conserving, Zval =  4.0
     Generated using ONCVPSP code by D. R. Hamann
     Using radial grid of 1510 points,  4 beta functions with: 
                l(1) =   0
                l(2) =   0
                l(3) =   1
                l(4) =   1

     atomic species   valence    mass     pseudopotential
        Si             4.00    28.08500     Si( 1.00)

     No symmetry found



   Cartesian axes

     site n.     atom                  positions (alat units)
         1           Si  tau(   1) = (   0.8252210   0.9545150   0.9510790  )
         2           Si  tau(   2) = (   0.9051790   0.7392160   0.8513800  )
         3           Si  tau(   3) = (   0.6289690   0.2498360   0.9480420  )
         4           Si  tau(   4) = (   0.1405490   0.0017715   0.3141860  )
         5           Si  tau(   5) = (   0.0583009   0.1591880   0.1455310  )
         6           Si  tau(   6) = (   0.7666620   0.4915220   0.9141310  )
         7           Si  tau(   7) = (   0.6705850   0.2663660   0.3703110  )
         8           Si  tau(   8) = (   0.5934700   0.5041580   0.2146630  )
         9           Si  tau(   9) = (   0.5062940   0.4829370   0.9015050  )
        10           Si  tau(  10) = (   0.6558400   0.0425908   0.4267620  )
        11           Si  tau(  11) = (   0.4401560   0.9852920   0.9048540  )
        12           Si  tau(  12) = (   0.0457142   0.9292340   0.5682880  )
        13           Si  tau(  13) = (   0.0521822   0.7674480   0.2673990  )
        14           Si  tau(  14) = (   0.8870290   0.0385482   0.7446220  )
        15           Si  tau(  15) = (   0.5020950   0.0441719   0.2316350  )
        16           Si  tau(  16) = (   0.2794230   0.5096870   0.6304780  )
        17           Si  tau(  17) = (   0.0583435   0.4853210   0.1187320  )
        18           Si  tau(  18) = (   0.2115230   0.2075340   0.6604870  )
        19           Si  tau(  19) = (   0.6092520   0.3791370   0.6609260  )
        20           Si  tau(  20) = (   0.6213290   0.6712430   0.0774879  )
        21           Si  tau(  21) = (   0.2041350   0.7812670   0.9477380  )
        22           Si  tau(  22) = (   0.8252340   0.2056830   0.1546590  )
        23           Si  tau(  23) = (   0.5259030   0.6568560   0.7319500  )
        24           Si  tau(  24) = (   0.4461540   0.3841970   0.4507300  )
        25           Si  tau(  25) = (   0.1382980   0.4552040   0.4488920  )
        26           Si  tau(  26) = (   0.7737110   0.5804660   0.7105680  )
        27           Si  tau(  27) = (   0.3651030   0.1931300   0.3659690  )
        28           Si  tau(  28) = (   0.1920620   0.3379860   0.2653050  )
        29           Si  tau(  29) = (   0.8692240   0.4506700   0.3887640  )
        30           Si  tau(  30) = (   0.4346450   0.7887420   0.4792290  )
        31           Si  tau(  31) = (   0.6048770   0.1068170   0.7629930  )
        32           Si  tau(  32) = (   0.8074800   0.2349050   0.6393880  )
        33           Si  tau(  33) = (   0.4431540   0.8246260   0.0628364  )
        34           Si  tau(  34) = (   0.9067030   0.6902250   0.0664418  )
        35           Si  tau(  35) = (   0.8205330   0.4382330   0.1534660  )
        36           Si  tau(  36) = (   0.0365410   0.7134070   0.6498170  )
        37           Si  tau(  37) = (   0.3418610   0.8847020   0.2814140  )
        38           Si  tau(  38) = (   0.0453181   0.9462090   0.0461385  )
        39           Si  tau(  39) = (   0.3714940   0.2007510   0.9570470  )
        40           Si  tau(  40) = (   0.5159860   0.0048616   0.5689110  )
        41           Si  tau(  41) = (   0.0210684   0.6354320   0.4322670  )
        42           Si  tau(  42) = (   0.8676980   0.2543060   0.8711450  )
        43           Si  tau(  43) = (   0.3806080   0.5811070   0.3702210  )
        44           Si  tau(  44) = (   0.3132640   0.7280900   0.6829220  )
        45           Si  tau(  45) = (   0.2673850   0.0326551   0.5334590  )
        46           Si  tau(  46) = (   0.6680650   0.5267350   0.4693000  )
        47           Si  tau(  47) = (   0.3787620   0.2987160   0.7694690  )
        48           Si  tau(  48) = (   0.6586150   0.8706030   0.7667370  )
        49           Si  tau(  49) = (   0.0368521   0.2897950   0.5422710  )
        50           Si  tau(  50) = (   0.2637010   0.9239310   0.7818190  )
        51           Si  tau(  51) = (   0.9224760   0.1683660   0.3862750  )
        52           Si  tau(  52) = (   0.3347060   0.4294490   0.0998928  )
        53           Si  tau(  53) = (   0.1545720   0.2156380   0.9512990  )
        54           Si  tau(  54) = (   0.7472140   0.8016970   0.2061850  )
        55           Si  tau(  55) = (   0.2653450   0.6556560   0.1656190  )
        56           Si  tau(  56) = (   0.8011750   0.8242600   0.5733730  )
        57           Si  tau(  57) = (   0.6399780   0.7419550   0.4143520  )
        58           Si  tau(  58) = (   0.7056230   0.0164284   0.1425500  )
        59           Si  tau(  59) = (   0.5379600   0.2924500   0.1543470  )
        60           Si  tau(  60) = (   0.8986690   0.8977610   0.3637990  )
        61           Si  tau(  61) = (   0.9722640   0.4486900   0.6903920  )
        62           Si  tau(  62) = (   0.0842486   0.4167540   0.9008690  )
        63           Si  tau(  63) = (   0.1020880   0.0630020   0.8237820  )
        64           Si  tau(  64) = (   0.2833580   0.5567880   0.8907950  )

     number of k points=     1
                       cart. coord. in units 2pi/alat
        k(    1) = (   0.0000000   0.0000000   0.0000000), wk =   2.0000000

     Dense  grid:    89535 G-vectors     FFT dimensions: (  72,  72,  72)

     Estimated max dynamical RAM per process >     132.12 MB

     Estimated total dynamical RAM >     506.61 MB

     Initial potential from superposition of free atoms

     starting charge     255.9608, renormalised to     256.0000
     Starting wfcs are  256 randomized atomic wfcs

     total cpu time spent up to now is        4.1 secs

     Self-consistent Calculation

     iteration #  1     ecut=    30.00 Ry     beta= 0.50
     Davidson diagonalization with overlap
     ethr =  1.00E-02,  avg # of iterations =  2.0

     Threshold (ethr) on eigenvalues was too large:
     Diagonalizing with lowered threshold

     Davidson diagonalization with overlap
     ethr =  3.91E-04,  avg # of iterations =  6.0

     total cpu time spent up to now is        4.3 secs

     total energy              =    -501.09019259 Ry
     estimated scf accuracy    <       1.27560858 Ry

     iteration #  2     ecut=    30.00 Ry     beta= 0.50
     Davidson diagonalization with overlap
     ethr =  4.98E-04,  avg # of iterations = 10.0

     total cpu time spent up to now is        4.4 secs

     total energy              =    -500.80963215 Ry
     estimated scf accuracy    <       3.64711175 Ry

     iteration #  3     ecut=    30.00 Ry     beta= 0.50
     Davidson diagonalization with overlap
     ethr =  4.98E-04,  avg # of iterations = 11.0

     total cpu time spent up to now is        4.6 secs

     total energy              =    -501.19945936 Ry
     estimated scf accuracy    <       1.47417963 Ry

     iteration #  4     ecut=    30.00 Ry     beta= 0.50
     Davidson diagonalization with overlap
     ethr =  4.98E-04,  avg # of iterations =  7.0

     total cpu time spent up to now is        4.7 secs

     total energy              =    -501.34671228 Ry
     estimated scf accuracy    <       0.31665113 Ry

     iteration #  5     ecut=    30.00 Ry     beta= 0.50
     Davidson diagonalization with overlap
     ethr =  1.24E-04,  avg # of iterations =  8.0

     total cpu time spent up to now is        4.8 secs

     total energy              =    -501.36993846 Ry
     estimated scf accuracy    <       0.15114921 Ry

     iteration #  6     ecut=    30.00 Ry     beta= 0.50
     Davidson diagonalization with overlap
     ethr =  5.90E-05,  avg # of iterations =  7.0

     total cpu time spent up to now is        4.9 secs

     total energy              =    -501.38783355 Ry
     estimated scf accuracy    <       0.06693563 Ry

     iteration #  7     ecut=    30.00 Ry     beta= 0.50
     Davidson diagonalization with overlap
     ethr =  2.61E-05,  avg # of iterations =  6.0

     total cpu time spent up to now is        5.0 secs

     total energy              =    -501.39402528 Ry
     estimated scf accuracy    <       0.00747320 Ry

     iteration #  8     ecut=    30.00 Ry     beta= 0.50
     Davidson diagonalization with overlap
     c_bands:  1 eigenvalues not converged
     ethr =  2.92E-06,  avg # of iterations = 20.0

     total cpu time spent up to now is        5.1 secs

     total energy              =    -501.39558267 Ry
     estimated scf accuracy    <       0.01229683 Ry

     iteration #  9     ecut=    30.00 Ry     beta= 0.50
     Davidson diagonalization with overlap
     ethr =  2.92E-06,  avg # of iterations = 20.0

     total cpu time spent up to now is        5.3 secs

     total energy              =    -501.39603705 Ry
     estimated scf accuracy    <       0.00522572 Ry

     iteration # 10     ecut=    30.00 Ry     beta= 0.50
     Davidson diagonalization with overlap
     ethr =  2.04E-06,  avg # of iterations =  8.0

     total cpu time spent up to now is        5.4 secs

     total energy              =    -501.39621749 Ry
     estimated scf accuracy    <       0.00186273 Ry

     iteration # 11     ecut=    30.00 Ry     beta= 0.50
     Davidson diagonalization with overlap
     ethr =  7.28E-07,  avg # of iterations = 10.0

     total cpu time spent up to now is        5.5 secs

     total energy              =    -501.39649062 Ry
     estimated scf accuracy    <       0.00068348 Ry

     iteration # 12     ecut=    30.00 Ry     beta= 0.50
     Davidson diagonalization with overlap
     ethr =  2.67E-07,  avg # of iterations =  9.0

     total cpu time spent up to now is        5.6 secs

     total energy              =    -501.39648626 Ry
     estimated scf accuracy    <       0.00086583 Ry

     iteration # 13     ecut=    30.00 Ry     beta= 0.50
     Davidson diagonalization with overlap
     ethr =  2.67E-07,  avg # of iterations =  3.0

     total cpu time spent up to now is        5.7 secs

     total energy              =    -501.39649631 Ry
     estimated scf accuracy    <       0.00031261 Ry

     iteration # 14     ecut=    30.00 Ry     beta= 0.50
     Davidson diagonalization with overlap
     ethr =  1.22E-07,  avg # of iterations = 18.0

     total cpu time spent up to now is        5.8 secs

     total energy              =    -501.39652609 Ry
     estimated scf accuracy    <       0.00004613 Ry

     iteration # 15     ecut=    30.00 Ry     beta= 0.50
     Davidson diagonalization with overlap
     ethr =  1.80E-08,  avg # of iterations = 16.0

     total cpu time spent up to now is        6.0 secs

     total energy              =    -501.39653095 Ry
     estimated scf accuracy    <       0.00006238 Ry

     iteration # 16     ecut=    30.00 Ry     beta= 0.50
     Davidson diagonalization with overlap
     ethr =  1.80E-08,  avg # of iterations = 12.0

     total cpu time spent up to now is        6.1 secs

     total energy              =    -501.39653527 Ry
     estimated scf accuracy    <       0.00001766 Ry

     iteration # 17     ecut=    30.00 Ry     beta= 0.50
     Davidson diagonalization with overlap
     ethr =  6.90E-09,  avg # of iterations = 17.0

     total cpu time spent up to now is        6.3 secs

     total energy              =    -501.39653620 Ry
     estimated scf accuracy    <       0.00000887 Ry

     iteration # 18     ecut=    30.00 Ry     beta= 0.50
     Davidson diagonalization with overlap
     ethr =  3.46E-09,  avg # of iterations = 10.0

     total cpu time spent up to now is        6.4 secs

     total energy              =    -501.39653702 Ry
     estimated scf accuracy    <       0.00000556 Ry

     iteration # 19     ecut=    30.00 Ry     beta= 0.50
     Davidson diagonalization with overlap
     ethr =  2.17E-09,  avg # of iterations =  8.0

     total cpu time spent up to now is        6.5 secs

     End of self-consistent calculation

          k = 0.0000 0.0000 0.0000 ( 11168 PWs)   bands (ev):

    -5.2537  -4.3385  -4.1930  -4.1421  -3.9838  -3.9248  -3.8295  -3.2656
    -3.1836  -3.0907  -3.0214  -2.9619  -2.8970  -2.8126  -2.7503  -2.6622
    -2.5638  -2.4780  -2.3537  -1.9996  -1.8830  -1.7963  -1.7899  -1.6276
    -1.4576  -1.3886  -1.2466  -0.7764  -0.6629  -0.5726  -0.3818  -0.2132
    -0.2031  -0.1484   0.0179   0.1007   0.1707   0.3336   0.3521   0.4087
     0.4896   0.5644   0.7093   0.7249   0.8244   0.8893   0.9763   1.0295
     1.1419   1.1980   1.2857   1.3567   1.4525   1.5331   1.5995   1.7182
     1.8588   1.9541   2.0008   2.0626   2.1363   2.3001   2.4370   2.4532
     2.6353   2.6754   2.8160   2.8932   2.9684   3.0261   3.0522   3.1406
     3.1707   3.2234   3.2865   3.3938   3.4988   3.5497   3.6604   3.7427
     3.8584   4.2381   4.3448   4.4318   4.4610   4.6355   4.6506   4.7303
     4.8123   4.8491   5.0154   5.0752   5.1560   5.2398   5.3482   5.3890
     5.4170   5.5054   5.5608   5.5763   5.6233   5.6904   5.7596   5.7836
     5.8248   5.9231   5.9632   6.0430   6.0870   6.0897   6.1598   6.2306
     6.2949   6.4041   6.4455   6.5044   6.5358   6.5654   6.6561   6.6897
     6.7288   6.8134   6.9458   6.9653   7.0361   7.0801   7.1376   7.1989

     highest occupied level (ev):     7.1989

!    total energy              =    -501.39653690 Ry
     estimated scf accuracy    <       0.00000084 Ry

     The total energy is the sum of the following terms:
     one-electron contribution =     196.68785760 Ry
     hartree contribution      =      20.76088113 Ry
     xc contribution           =    -150.84046919 Ry
     ewald contribution        =    -568.00480643 Ry

     convergence has been achieved in  19 iterations

     Forces acting on atoms (cartesian axes, Ry/au):

     atom    1 type  1   force =     0.01556792   -0.02257515   -0.00938456
     atom    2 type  1   force =    -0.02332443   -0.00383555    0.00303561
     atom    3 type  1   force =     0.03229943    0.02719393   -0.00153842
     atom    4 type  1   force =     0.01110793   -0.02020757    0.00390851
     atom    5 type  1   force =    -0.00818964    0.00766563    0.03676131
     atom    6 type  1   force =    -0.00748021   -0.01175289    0.03336154
     atom    7 type  1   force =     0.00093190   -0.01457181   -0.01808696
     atom    8 type  1   force =    -0.01764987   -0.00108982    0.02928980
     atom    9 type  1   force =     0.01028147   -0.00843412   -0.01781535
     atom   10 type  1   force =     0.04438004    0.02399177   -0.08068053
     atom   11 type  1   force =     0.00192112    0.02179757   -0.00873906
     atom   12 type  1   force =    -0.01433651    0.00285473    0.00153205
     atom   13 type  1   force =     0.03531636    0.03029480   -0.07197194
     atom   14 type  1   force =     0.01197326    0.02377981   -0.00036599
     atom   15 type  1   force =    -0.00096827    0.02920196    0.03633308
     atom   16 type  1   force =     0.01243881   -0.02124705   -0.01533852
     atom   17 type  1   force =    -0.03784620    0.02529323   -0.03092443
     atom   18 type  1   force =    -0.01690431   -0.01871694   -0.00409302
     atom   19 type  1   force =    -0.02208317    0.00320710   -0.01628480
     atom   20 type  1   force =    -0.02660224   -0.00428952   -0.05083041
     atom   21 type  1   force =     0.01025808   -0.01739029    0.03464691
     atom   22 type  1   force =     0.01266238    0.00970892    0.01170754
     atom   23 type  1   force =     0.00191678    0.00364698    0.01464029
     atom   24 type  1   force =     0.03063821   -0.00047203    0.03932021
     atom   25 type  1   force =     0.04656239   -0.00623574    0.00868943
     atom   26 type  1   force =     0.02192944    0.02687664   -0.01196432
     atom   27 type  1   force =    -0.02262008   -0.00658691   -0.00854487
     atom   28 type  1   force =     0.02890581   -0.02573347   -0.01777175
     atom   29 type  1   force =    -0.01802992   -0.00380898   -0.01699875
     atom   30 type  1   force =    -0.02431542   -0.00295325   -0.00255705
     atom   31 type  1   force =    -0.02058788   -0.02101127   -0.00920534
     atom   32 type  1   force =    -0.00168511   -0.01731455    0.00139559
     atom   33 type  1   force =    -0.03133892   -0.01257778    0.02285497
     atom   34 type  1   force =     0.01692062   -0.02423993    0.03516997
     atom   35 type  1   force =     0.02343064    0.00203038    0.00632328
     atom   36 type  1   force =    -0.01514929   -0.00304083   -0.01427283
     atom   37 type  1   force =     0.01652295    0.00251919   -0.02343097
     atom   38 type  1   force =    -0.01638225   -0.02929344   -0.01644390
     atom   39 type  1   force =     0.02993109   -0.02193904    0.06362944
     atom   40 type  1   force =    -0.07020025   -0.01939891    0.08630079
     atom   41 type  1   force =    -0.03259673    0.00321787    0.02535697
     atom   42 type  1   force =    -0.00433929    0.02689451    0.00201933
     atom   43 type  1   force =     0.01448957    0.01220720   -0.02049131
     atom   44 type  1   force =     0.03117210   -0.00975491   -0.02551284
     atom   45 type  1   force =     0.01919817    0.01605693   -0.02025691
     atom   46 type  1   force =    -0.01337056   -0.02023526    0.01853082
     atom   47 type  1   force =     0.04527964    0.04714664   -0.05000329
     atom   48 type  1   force =     0.00144277    0.00880309   -0.02322379
     atom   49 type  1   force =    -0.00876084   -0.00982401    0.00638863
     atom   50 type  1   force =     0.01745078   -0.00565462   -0.00170245
     atom   51 type  1   force =    -0.02528841   -0.00893085   -0.00527845
     atom   52 type  1   force =     0.00295286   -0.00638380   -0.00488149
     atom   53 type  1   force =     0.00471373    0.04916069    0.05675148
     atom   54 type  1   force =     0.01693396    0.02550806    0.02584718
     atom   55 type  1   force =    -0.01430996    0.01288401   -0.00514147
     atom   56 type  1   force =    -0.01035031   -0.01574345    0.00133963
     atom   57 type  1   force =     0.02584158    0.00595856   -0.00212375
     atom   58 type  1   force =     0.01860087   -0.02337408   -0.02046725
     atom   59 type  1   force =    -0.01543422   -0.03421075    0.00291988
     atom   60 type  1   force =    -0.00876964    0.02840188    0.03580258
     atom   61 type  1   force =    -0.01346389    0.00658699    0.04549857
     atom   62 type  1   force =    -0.01463987    0.02000240   -0.01226389
     atom   63 type  1   force =    -0.03847053   -0.03471757   -0.05263575
     atom   64 type  1   force =    -0.01848442    0.00465469    0.00187101

     Total force =     0.337733     Total SCF correction =     0.001627


     Computing stress (Cartesian axis) and pressure

          total   stress  (Ry/bohr**3)                   (kbar)     P=      -33.34
  -0.00020568   0.00002216  -0.00003961          -30.26        3.26       -5.83
   0.00002216  -0.00021587  -0.00002285            3.26      -31.76       -3.36
  -0.00003961  -0.00002285  -0.00025831           -5.83       -3.36      -38.00

 
     init_run     :      0.93s CPU      4.07s WALL (       1 calls)
     electrons    :      2.23s CPU      2.35s WALL (       1 calls)
     forces       :      0.03s CPU      0.03s WALL (       1 calls)
     stress       :      0.12s CPU      0.12s WALL (       1 calls)

     Called by init_run:
     wfcinit      :      0.42s CPU      3.42s WALL (       1 calls)
                                        3.42s GPU  (       1 calls)
     potinit      :      0.04s CPU      0.11s WALL (       1 calls)
     hinit0       :      0.45s CPU      0.47s WALL (       1 calls)

     Called by electrons:
     c_bands      :      1.65s CPU      1.71s WALL (      20 calls)
     sum_band     :      0.29s CPU      0.33s WALL (      20 calls)
     v_of_rho     :      0.13s CPU      0.21s WALL (      20 calls)
     mix_rho      :      0.13s CPU      0.15s WALL (      20 calls)

     Called by c_bands:
     init_us_2    :      0.05s CPU      0.06s WALL (      41 calls)
     init_us_2:gp :      0.05s CPU      0.06s WALL (      41 calls)
     regterg      :      1.50s CPU      1.55s WALL (      20 calls)

     Called by *egterg:
     rdiaghg      :      0.78s CPU      1.39s WALL (     227 calls)
                                        1.35s GPU  (     227 calls)
     h_psi        :      0.91s CPU      3.33s WALL (     229 calls)
                                        3.33s GPU  (     229 calls)
     g_psi        :      0.00s CPU      0.01s WALL (     208 calls)
                                        0.00s GPU  (     208 calls)

     Called by h_psi:
     h_psi:calbec :      0.42s CPU      2.78s WALL (     229 calls)
                                        2.78s GPU  (     229 calls)
     vloc_psi     :      0.36s CPU      0.42s WALL (     229 calls)
                                        0.42s GPU  (     229 calls)
     add_vuspsi   :      0.09s CPU      0.12s WALL (     229 calls)
                                        0.11s GPU  (     229 calls)

     General routines
     calbec       :      0.43s CPU      2.79s WALL (     234 calls)
     fft          :      0.55s CPU      0.65s WALL (     167 calls)
                                        0.11s GPU  (     106 calls)
     ffts         :      0.03s CPU      0.03s WALL (      20 calls)
     fftw         :      0.42s CPU      0.55s WALL (    2056 calls)
                                        0.48s GPU  (    2056 calls)
 
     Parallel routines
 
     PWSCF        :      3.35s CPU      6.65s WALL

 
   This run was terminated on:  15:16:52   9May2023            

=------------------------------------------------------------------------------=
   JOB DONE.
=------------------------------------------------------------------------------=
