4.239604561192184 1.0722966204046074 5.345844093717284 3.6300548362432314 3.130190511706173 10.169655329739053 1.4625710985520073 2.8465755565999 8.5769608871305 8.061223977788895 2.508792088000114 8.828501542106649 10.32321064347027 2.4954251420008324 10.140893569046398 5.922831131311357 8.295724165466515 3.2596768289478195 5.1465290204492105 3.276759764700674 1.7650314302656864 10.157679225618967 8.10840643054569 5.403187124171707 8.092661251104122 5.153281504687132 8.924267906613016 10.422533741026486 1.0769150648126193 7.084555699414093 9.256742818421984 0.030043246301958645 10.007489536893127 2.7563407082695655 0.6077511859082227 10.291699050359972 0.3021662376674678 4.346433958050617 7.077399764860069 4.643490178951242 5.91410386394725 1.0110900223178274 0.8234346631851069 8.228666476084895 1.0394249750445006 7.80860037722742 0.3845614093291211 1.4857164061599764 4.191498419553786 3.7114350118464805 7.330214473466014 1.5252120686836665 2.3695804947176873 1.3679195309717123 2.824778622416799 1.0573678969974674 7.484502368034365 4.862277038528039 10.377984332437938 1.9268787097041633 0.899803561177823 6.186878746086672 4.4903383155361265 3.9849000063687083 7.361269530692302 8.534959585801545 2.3540051890934257 4.348610466334852 6.080261691499872 7.308438773510075 8.009221355466035 6.303390950531559 9.639946298924011 3.9539723545053995 5.234799702766942 9.72041340275924 4.594332943068262 0.5755898254467275 7.216112353804159 6.304707472615681 0.25811052486046443 5.930432984635808 1.4931908541214487 3.6004012380097192 7.525675534503954 3.488836608493876 6.130618661217577 3.6710475117819326 7.862418525972739 2.9540313631596495 8.402012089532283 10.288800578352184 7.59459121876236 4.781279079013729 9.518104303461145 10.16554650678296 7.1971820402881 9.771099502997977 4.575275224189224 0.8707126699641372 9.876123990547532 9.436639190949242 1.947688252324172 5.483017201192037 10.25523988232063 8.237648554174958 2.561951975703371 3.452812742111381 6.739828638531916 5.53290701791215 6.935003037503152 2.5545943159912965 0.6111412302748395 2.8286751031012596 9.085552479031666 7.593518890290615 2.2080304944594964 6.332630481335387 1.8251030589105894 0.15206785611843074 2.772956491024828 4.168735328034756 2.2854823380375398 3.6339725511548555 5.8564741714261235 4.348419358290383 6.784133853508089 8.335527724284072 8.765605761249029 10.265623419403472 1.4118000614046187 2.595300329463293 1.414157060619742 7.477505690184066 8.489305997400505 9.93513390783427 6.43914136478637 7.813218821635433 1.288482287153903 9.52565307121769 6.501166542330295 5.428445237382422 3.8750765834802534 4.77096986172596 1.320577821511192 9.136843754744554 3.0663285735126258 9.372257014190195 8.108905434884027 9.958948093597883 3.2449084239557626 7.657720576118774 0.3259018567905758 6.749362806528226 1.205382139150429 6.728999182678646 0.19126093090504429 1.8228522308312824 4.873807223877697 7.355408883995238 8.756910345225668 1.0220054767911084 2.737686439706629 2.717333432970631 4.50190035222653 8.587970833914659 6.223359148353177 4.483946813159981 4.675787438466583 7.765749706811933 6.04542694183852 6.304898580660151 5.8505604391611525 3.3109999560014534 9.6236490295762 9.589366369821093 3.4231272925371234 3.103934389818784 9.567473881615756 5.103752669828795 5.155128882450337 1.1445779296683931 8.482096977278573 0.7136271659670248 5.925814540227797 1.869970980906588 5.034465386595031 5.245629158620212 9.091657319341106 7.789563892575544 4.537032381068167 1.7920626014445347
4.26567630498754 1.1033634714340306 5.333284396251942 3.6885262922435236 3.21983143502591 10.233119737591249 1.4693571565135846 2.8115746357969233 8.571396937172182 8.104846553468304 2.4978763790771046 8.97181897673217 10.301488101098494 2.393805716427797 10.191674071266357 5.9448202986543395 8.330069353438217 3.221466330674996 5.187088630124878 3.383119292029786 1.8490351305001014 10.163392499778267 8.1379903470816 5.353614429810386 8.016710815294832 5.14127970333392 8.948038676381824 10.504438101900986 0.9490728486028864 7.002056357132005 9.270983648103941 0.03797098226030575 10.04259069723961 2.643265313585139 0.5783188569710577 10.294343394787878 0.3874490364224337 4.367177845902568 7.106339343891584 4.662987796332059 5.999971486297218 0.9165734586642631 0.6749125260771733 8.173575867963011 1.074912040657723 7.837063385594579 0.42949345673828765 1.5238926042366787 4.1238437993265435 3.6406047405553696 7.266357409597287 1.5038492082271009 2.2795965775130522 1.313245854436867 2.8941368660757827 1.137855523147547 7.564970038282353 4.808111325702255 10.342625897463492 2.002736553925244 0.9973659674840145 6.183769852353269 4.434866772256948 4.024327488842548 7.339311973886386 8.431815067080056 2.4432453855043885 4.365404939581806 6.064380005147912 7.300095710719341 8.068963778832513 6.411179590658972 9.570732210778958 3.8766454539435875 5.208894316249705 9.660460379779463 4.625969087706319 0.6922211875464613 7.260274323838024 6.323489733117069 0.22300932112033797 5.971445742082316 1.4054157507054874 3.631825138595666 7.5055192874064875 3.3109503269486895 6.118596966705599 3.681455899371501 7.89096186098686 2.871365105249223 8.33501650520753 10.317008993559302 7.5735479323373 4.683763710522072 9.433549603132896 10.07880257424632 7.188816644526334 9.757280174063018 4.651596607816023 0.7879761764170067 9.686098516094681 9.283924802624956 1.9515876757609714 5.330481717996365 10.311393020842635 8.17710044819351 2.635196997394843 3.443376874524682 6.805953808885753 5.5595157357456415 7.0670806159024835 2.6371609954148494 0.4688413608537006 2.7005185099197018 9.010865380610998 7.695018555823311 2.266241390977009 6.348586442951095 1.8397990317033153 0.26421824606227573 2.7310294845656373 4.278532529864446 2.2682797024356103 3.639574968620556 5.963027091110074 4.32729276178817 6.788023037773372 8.352076747467802 8.85603863940142 10.39292547918668 1.4668517320123873 2.57491818248892 1.4644843181828662 7.472290564149082 8.447495202623568 9.83236859566034 6.404544462213005 7.850875068967705 1.3567616808368985 9.625341971940648 6.41024536457378 5.413829547483228 3.7954527141759757 4.790859991742741 1.402772315532614 9.169078691379397 3.017624568609369 9.355350633320105 8.124210512325014 9.814395359725903 3.1496583165813603 7.6561101626161605 0.36424625765202406 6.739294654466188 1.1860318637680258 6.72320048690765 0.10738291876953412 1.8953324027446825 4.876957418457612 7.351764782953777 8.767902901227947 1.0925986390432934 2.8569695305728526 2.7081409454784287 4.373823590554049 8.575144457718464 6.260302077900433 4.4586364564017815 4.737269386310352 7.771550781370476 6.042213368035625 6.337110324790951 5.849348762471005 3.369721640671689 9.526505098609519 9.715335546078991 3.4357862875824954 3.2106696496677185 9.665704785303156 5.010849002394473 5.118635336973523 1.1635042756682779 8.533189213528923 0.694844451928859 6.065685798426078 1.8824443292512358 4.99315178780339 5.149560343634487 9.094489231441212 7.736973800012852 4.399578505129916 1.7820681061206434
4.307903246451534 1.1390037085169884 5.346254910762221 3.7387198105549713 3.3137798926130246 10.291822768816221 1.4694688984740893 2.7766505718174876 8.570867048089246 8.13760579695551 2.496951882697541 9.126475247822164 10.270255231768113 2.3031306257903106 10.25133056712403 5.980268325147881 8.367556923996482 3.162732835658488 5.232367276645 3.488814466166343 1.9291482597026774 10.181787996878361 8.149174997438994 5.293652197371267 7.9691730974395565 5.098461741507734 8.98873807839633 10.592611367441378 0.7951490264407003 6.933273254515736 9.278700452715844 0.060020799829401346 10.072644796353906 2.5345677051869573 0.5485785836960264 10.284838792744539 0.4541272063910561 4.402898057760867 7.138408977216905 4.709757833153503 6.055839616379439 0.822493733968771 0.5056207624879527 8.143390397197253 1.0692488593633647 7.8826694424483765 0.4889420086900215 1.560090764279573 4.110823508307213 3.543858386998767 7.24331721352768 1.504940703993172 2.1831081312332237 1.2313874892584884 2.9642202148854784 1.2121337923070774 7.639153693189159 4.771838799784597 10.301237338383972 2.0731158150769544 1.0985327347155935 6.185181154995697 4.363477864553843 4.061755238733689 7.32968288722869 8.322086781912773 2.502853236338657 4.416802326231841 5.998227120760773 7.279680590460169 8.118617448639043 6.528521060720197 9.490756467816308 3.8299042154665326 5.178140629608198 9.639468456783353 4.6540876895426155 0.7772284410312393 7.29120733516206 6.351947465084215 0.20232727274893988 6.023116822718357 1.3169358891638758 3.6472700570084675 7.458238993885519 3.1512167049019935 6.107922246445907 3.6694213610534483 7.923267783594545 2.7725535888939787 8.284481573368755 10.329247540288478 7.568528500512924 4.582019000292296 9.349123980429523 9.984973607368982 7.1924658011273435 9.766443085575926 4.723428594825729 0.7135893472157652 9.497326500017477 9.14042197207473 1.9644714699861923 5.182195156750116 10.377371168721607 8.118797885710803 2.700824545896385 3.4207366203855543 6.851089475301417 5.592010202500353 7.1716730820932675 2.7253427597650504 0.36138467429511395 2.5620472098215785 8.956376158878772 7.771116876318647 2.3438351063904546 6.356766196294766 1.864339509104378 0.3382855449261196 2.691675324963575 4.387603362442794 2.2504536147815712 3.637483999351797 6.068321616167123 4.321658919686942 6.793975835116442 8.37431800721481 8.962192600956707 10.469808019190095 1.4966193708013822 2.5760576177465304 1.5243642240709459 7.460351169019661 8.40630843864345 9.739526120047383 6.3667857607501865 7.902167260143934 1.397644329967916 9.725791674702771 6.354643407215228 5.39833754082869 3.722034688389801 4.812935996364455 1.4911001191945832 9.197302105460954 2.9953296888461094 9.337448640492063 8.13636396534398 9.660505296561574 3.047168198168431 7.668734759012523 0.3997477185405274 6.709223481115882 1.1619616724121935 6.7128216086057 0.05337753140498671 1.9641424376788639 4.868860874664888 7.31548142828658 8.763849803310059 1.1517298290488194 2.947651846119683 2.699784379247411 4.228033307333912 8.57125976406896 6.306986792379596 4.424019809102272 4.787409457683009 7.776190342218744 6.038199239128476 6.372910007244653 5.839856441481829 3.4337280895523277 9.428495064113454 9.847353191342524 3.4602417251557593 3.326813817561389 9.729962955244064 4.905033200580218 5.086797015515672 1.1892713539204516 8.60849348452406 0.6775125468090143 6.141706434646756 1.9141082990741498 4.9444640077326385 5.051887749102667 9.082851932237656 7.626087926404602 4.2656809716595205 1.8080325287696284
4.371573466671492 1.186384999621994 5.388866000358077 3.783638909557137 3.403507161379909 10.35649173587537 1.4493882483329505 2.748328239243108 8.587944774148049 8.154968314307292 2.5101344154055103 9.299756673423055 10.240700271282513 2.231914436468549 10.316486803551774 6.021007599398187 8.407116113212668 3.096137699924933 5.279229140738081 3.594278692762825 2.0051490773822813 10.221642218642412 8.148092134958302 5.214160110231904 7.9655019836341365 5.007832284210688 9.069532001886522 0.04534882726209988 0.6447288273483988 6.880890805209916 9.279595036442993 0.08715557324843952 10.096077665808167 2.4300184368794775 0.5059838696231361 10.257540543854805 0.5023208185254956 4.450564638081795 7.159503405498593 4.780345350748291 6.093027088968542 0.7196271864517495 0.30826612373119444 8.169251242399483 1.0310735431318514 7.945435849145034 0.5484973340425664 1.5981599064700343 4.144638325379076 3.4227243848382725 7.2550271192325475 1.544816459575946 2.093743554827824 1.1201911620000875 3.0271955128410073 1.2774413190566811 7.699994447382499 4.803446342172288 10.241177783737303 2.1324008408901207 1.2064935796626337 6.199098522259433 4.285069432639145 4.095528822250801 7.327110277130208 8.21784078752143 2.532800339926253 4.498156712742624 5.879260680040472 7.244521845227147 8.161366981201489 6.660417999139003 9.392797322392095 3.8379904383002286 5.162705490381211 9.635872384656443 4.675918682579459 0.8419435934546273 7.310270004557914 6.39492107427525 0.20526880951036888 6.091403546622254 1.2214768593551848 3.646189602292541 7.3945668699103395 3.04853501387622 6.087169602856441 3.6503704891189326 7.955283217101612 2.6595745909793016 8.265241857200342 10.322938527385395 7.57947030379327 4.475172446585354 9.262425810846288 9.878724607775222 7.203699836036465 9.79720792604847 4.79046861478986 0.6402815946861126 9.34549175520414 9.004908649671485 1.9835442916499633 5.033554288442092 10.4583610595641 8.06902668383281 2.7364116506491034 3.4076349912668795 6.865981805232555 5.634944085393666 7.225294010380898 2.788906186512452 0.3294411482542009 2.4093368418930883 8.93119133803965 7.822693925487998 2.446200803402948 6.354183956187642 1.9034919814512359 0.3770544456907982 2.6511491489992123 4.492787350473197 2.2260675617443315 3.630834924024042 6.1775361820786525 4.332470502318057 6.803353393939753 8.40191653314939 9.09170980256459 10.487054252403093 1.4972349963030014 2.6067617134794245 1.60207550859932 7.417646638558566 8.357433595138644 9.662772252942998 6.321904114243775 7.968483783629609 1.447605535168398 9.793218044203995 6.310974384723005 5.382477944851764 3.6503280435673955 4.836659986249968 1.5532419015560348 9.192645324119507 2.995870695806723 9.313933487636403 8.147168944212373 9.498943035398174 2.9364469236549637 7.687037942775838 0.42737683045424263 6.634642937968177 1.1043801940525657 6.709336497285363 0.03243689048455328 2.001976272404893 4.853065191919008 7.248214608210863 8.760252490612382 1.1883056608290419 3.02204898971715 2.706073692688053 4.069297471400953 8.582554189102854 6.3613254202337375 4.382354636761883 4.829306294446188 7.7843337582864605 6.022217297616991 6.4059144721233245 5.823529670872429 3.504856527062311 9.33533665699892 9.988690420419632 3.495221386863419 3.4369011990516207 9.7534147282502 4.799286678121665 5.083024578758432 1.2206173369365612 8.710081848695683 0.6652533737941011 6.13161009531565 1.9738667058995338 4.889451640974076 4.968209361850926 9.048945909391092 7.47260301641106 4.15852863211955 1.8368524655381913
4.444982410599351 1.2384860887351874 5.447320851599384 3.826147834397712 3.466154760657864 10.4396187758888 1.4021492037483285 2.73484820972173 8.624004302130285 8.151380110214662 2.536131099375812 9.479856510212747 10.231055991308978 2.1944819596342606 10.380831188679684 6.05226751015859 8.432109140633937 3.0594902203717433 5.280782545080437 3.6848284585403905 2.0755275420582633 10.285758896858553 8.140685670960595 5.114647401946068 7.997732422439458 4.882870894064759 9.176751911949399 0.03243131142046997 0.5521099750977148 6.859634016464178 9.268535239317393 0.10397689783892693 10.108356398081506 2.3443738621952392 0.43457723893049216 10.20418196885803 0.5356534823130082 4.50140406531476 7.164860527277937 4.858776577054851 6.121919289625804 0.6086175672714145 0.10790774083856189 8.22802359153548 0.983930849625224 8.01528063923135 0.5980992467590309 1.6362385963095851 4.1953075703553315 3.309292375368788 7.276207888360714 1.602150071187245 2.024675907787682 1.0126265340006968 3.068285547893194 1.3241689175207525 7.743219621580502 4.919389009057319 10.16952052734708 2.179586133530381 1.3100688086232766 6.229001606482257 4.225396290320148 4.118080563083152 7.324492008445299 8.139051798296778 2.550019017018247 4.589219416213488 5.7380440901310905 7.1949492472427545 8.197637803813606 6.797069424915332 9.290719835031933 3.897635068221032 5.1669737654391845 9.619807252475054 4.6840370785285685 0.8941590953550184 7.315792166988618 6.448842356267509 0.22772365491002597 6.174224433993418 1.122290157474723 3.6317806447801346 7.329064729991433 3.0168079494202416 6.050421446239732 3.6427191039774995 7.974062487939632 2.5530003041515736 8.284424027125384 10.303880030039057 7.602823277682609 4.370683642646737 9.176316919876564 9.76296208268848 7.217537006341871 9.840974197604313 4.85034197466697 0.5777161547997902 9.27224858628061 8.875270576787113 1.9942370722520473 4.8957827319340055 10.545852327725086 8.039555318808043 2.7214483319658895 3.4309628410093107 6.860069008537011 5.688550479892771 7.242936299570282 2.8011261482337937 0.38239410453452854 2.2452168887145696 8.930769199543091 7.86258781210383 2.5580080177705415 6.340020071119721 1.953549399097931 0.38665384397947705 2.614917712372544 4.586694340278499 2.201081107666037 3.6309530988854744 6.289698914986743 4.358461426356374 6.814861661650522 8.43398703324105 9.240398678898952 10.461888248105353 1.4766283342677275 2.6446775358920473 1.6988350165466868 7.3337435471650885 8.302173825609566 9.60835953426559 6.263058302916342 8.037815350516706 1.552879261766719 9.776881829019171 6.2562575731922765 5.366582079056275 3.5854699033674313 4.857800497281662 1.5788196426954844 9.152190774178399 3.0177203718169183 9.27421135538974 8.154562979040277 9.352806996256936 2.8256130190655275 7.697492406119161 0.43156942789028563 6.518929127807558 1.0055276755632994 6.721338365991191 0.03883206062878243 2.0050800453846436 4.847381906659148 7.179957935074106 8.765981470878234 1.1824357687161011 3.0879450676727447 2.7270607906617244 3.9093904637503054 8.610922711257006 6.4112738945624965 4.345082767726038 4.865057438204065 7.799747371923431 5.9839525355981324 6.427453477759375 5.802550231663561 3.576557870655708 9.250021552315063 10.12933150364231 3.536591647768732 3.526661097032812 9.742920618649855 4.712354001513792 5.119241342617706 1.2536577634706205 8.832301847641306 0.65814725002309 6.068754770675276 2.034415486394065 4.841493599331759 4.9257653562713015 8.983541164671795 7.3476739030585305 4.1171575311237225 1.8295978774657173
4.510796525603682 1.2812407133190802 5.500188879828849 3.8841325656284287 3.4923986308731254 10.546781605924004 1.329788391941122 2.740185451314559 8.67570145022082 8.130038697911495 2.5596593806343444 9.660553068770675 10.248005442166587 2.1946818369377796 10.441548995729066 6.079726793379472 8.406429459157437 3.0922622132793918 5.183504394062253 3.7548807368145445 2.150780985946082 10.378848650305931 8.128723157669114 4.993217863519216 8.046841386776432 4.763942539502401 9.285677145669748 10.558101617525777 0.5007805507335935 6.864711777847018 9.243208536070965 0.10284660212629688 10.10788979715756 2.283236791801893 0.3152999857534459 10.11275941789347 0.5632878087985728 4.553572801872054 7.156369171421876 4.931132851435258 6.150330989452394 0.4869567689930952 10.532650157513917 8.287479159177032 0.93992591927256 8.084100881383208 0.6419900037989863 1.6705451423041808 4.2554331898448226 3.2305106398798786 7.290745241663742 1.6522548892568905 1.9934890534175878 0.9320040329904187 3.081557535016796 1.3439941047197306 7.784391108421521 5.059769346909965 10.124079429495243 2.211179135945051 1.3971673925811103 6.280834703335641 4.203066200841676 4.131623878324012 7.312239471752958 8.08552251358062 2.559468415115289 4.6746661593440795 5.595045696821785 7.130132630942787 8.231717227612904 6.93528414633343 9.207635903549175 3.9892166470863226 5.184034853837407 9.57780134384674 4.6742736191104655 0.936047197396638 7.310022149892817 6.501452923821951 0.2602064335060109 6.270671094043701 1.0215159372889087 3.608420792894683 7.263055241400733 3.020459178114624 6.009111988111048 3.6561833910494976 7.974306317121952 2.4643675866257824 8.334753734338706 10.285180063209339 7.631936969042426 4.268270316403536 9.091836534633181 9.640363769728335 7.230898769830932 9.889785956005475 4.910041770775158 0.5447821890825704 9.273709973142285 8.733319990997986 1.9743182371435428 4.774371378681917 0.012316215059512288 8.025686650943314 2.6684991173003247 3.489449274523272 6.85500436396171 5.7461100315899785 7.2642859080790885 2.791905279392018 0.46923516882476946 2.0762726059280316 8.94136631481316 7.917727477504087 2.6605740482595324 6.313107876055975 2.009986352424859 0.3825357622541429 2.5954654154572006 4.66353711326136 2.1929313196797735 3.658040000262535 6.41408619885418 4.396588536013149 6.820248639493658 8.472227689667468 9.408340664076226 10.419174202413094 1.4451952206235017 2.662791370119674 1.8003592584797277 7.223811827234882 8.24954067605806 9.57230578057615 6.177522357526759 8.101712145918302 1.7022029816853375 9.691362172511585 6.1906459323640535 5.344042740414687 3.5361191255412714 4.871243942820437 1.5826691759522642 9.098721902514672 3.053867534753787 9.215879248455058 8.160561353373824 9.235824536000829 2.7131956579547527 7.690955923625998 0.3980241267690727 6.394819899820609 0.8842424957551542 6.756540420497731 0.05561446374663568 1.9946348465319192 4.870320942811669 7.137399929862389 8.784456313322776 1.1255825968980584 3.156034087448337 2.7589318997684806 3.7452794148842674 8.652456702873597 6.4400469002501906 4.329358064110203 4.897957897097163 7.826276212267636 5.9201857114043275 6.435983578372515 5.779836664094234 3.647197402458399 9.169188179046055 10.264184465308766 3.5827677581682633 3.6021825859388787 9.71371574743655 4.649713331520862 5.184777497522621 1.2865665294616206 8.966892039193542 0.6436768658839741 5.996582528221924 2.0637325368434047 4.803917988157964 4.933816977897535 8.8861878890017 7.311189161398155 4.1427529244067305 1.7832360169377752
4.542738165526318 1.3011872151582642 5.522199069416428 3.971533636833382 3.4920371820262224 0.04525135053808569 1.2448869675546617 2.7674447190404714 8.733806691714872 8.109103133919529 2.5518994439142784 9.825390610385845 10.28072655562018 2.2237748949331633 10.492865803705145 6.126657457134938 8.304700337900833 3.1981426742756427 5.017279434575679 3.810930442764757 2.234438624454765 10.498171141775593 8.114641906865078 4.857291659723226 8.100190165961173 4.703235252833535 9.380187860866066 10.465861632926561 0.44891542510147864 6.876291115813208 9.207053458275041 0.08964005310591643 10.096270561586818 2.2458769333346527 0.15216240119854105 9.9901531895017 0.5910825693752942 4.605595810984996 7.140019471295216 4.977956268797513 6.179753280543989 0.35945257028711514 10.382005459385047 8.331980386259081 0.8982573993838212 8.142155390098424 0.6863993342165907 1.6891241455456187 4.327214111752408 3.1997236650206364 7.29069107249596 1.6845933868334553 2.017110755736902 0.8659648676166137 3.0666870075660633 1.3342925247178643 7.842000583424715 5.160958600199573 10.13471304124529 2.2113179611437497 1.4545114853942334 6.35615577138641 4.212173161032797 4.151671085677399 7.2793376490252 8.040823432952852 2.560738137139646 4.738112545308665 5.468816757751573 7.053033148292139 8.265430225503373 7.068386796668017 9.160780299624587 4.096283356221914 5.205194509030974 9.517076193759785 4.6483568358328125 0.9631862488252014 7.301503351483535 6.534722840161576 0.2942075226967362 6.368060950016498 0.9332609589050281 3.586122047367561 7.2082779509096095 3.0224404880585207 5.980007302191593 3.6887591176784627 7.959110615991801 2.3969941829333155 8.396567571928724 10.278126939965661 7.662330004330897 4.172680224436377 9.022533800184833 9.52752770975857 7.240375246235824 9.928972030873286 4.980863594060119 0.5531653181857968 9.323930055967027 8.576004716147443 1.9114284213735628 4.668761166051759 0.04714111195877955 8.013989032992523 2.611860374786491 3.5641048943751983 6.864226777041007 5.798288862602583 7.311201509476316 2.8088900200468165 0.5255945373012887 1.9346445807698465 8.952673108473164 8.007590795279562 2.7392309311818246 6.266813878280053 2.0695805492536405 0.39217801764087135 2.606523204687619 4.715023714026072 2.2209948977842484 3.722278243607558 6.549089695656351 4.437098273867543 6.802865236918197 8.5147386721099 9.567169195820963 10.380000041594418 1.4184457971913227 2.652011173303647 1.8742804442042804 7.112834919022236 8.211018678252849 9.547475780903456 6.067195228041348 8.154315224955893 1.8353392627671867 9.58477230753871 6.132620657126123 5.3043406668915205 3.5169828816334725 4.870427676785657 1.5799721200842058 9.053050104766054 3.0935956822593793 9.158711217777112 8.167578570132013 9.154169848388808 2.604348016078735 7.665035726746825 0.32804921318051483 6.310646581418101 0.7604512430039145 6.82666498350223 0.0675029994731619 1.9870613209058803 4.924499682399671 7.1233925417824295 8.81870271151819 1.0580128004287885 3.228658978856864 2.7971758335872656 3.578270147023297 8.697603064722127 6.429486154196153 4.349772409227956 4.929974791288374 7.867901243884645 5.845538203457999 6.434855156323447 5.758689819244753 3.7127286350807505 9.097540669824838 10.375150962598028 3.6377535974691684 3.6693628016929023 9.677721830532974 4.6100098522596085 5.254311328887189 1.3156177347098847 9.087375642081858 0.6083620554707458 5.941363219686445 2.051744002660792 4.773870523903489 4.9833464922770885 8.778000157841708 7.338375451073154 4.204384924745378 1.7280759376588535
4.535678805472559 1.295538240118199 5.508378010629224 4.0841924220404096 3.4828722126172353 0.13022678126372064 1.1617534892829147 2.8193936803686546 8.785127875065692 8.10709690760645 2.498826141493978 9.966687961068589 10.306255397118381 2.2673352155207387 10.533182101982513 6.1944122867309455 8.16146421114329 3.3383668494093994 4.852202232155213 3.87614885520674 2.323018713051832 0.017097784564065042 8.104708652374942 4.720901266760698 8.150775442173826 4.71121025775462 9.459613610314605 10.405543127942979 0.3890117494694143 6.875765582578909 9.167683905282646 0.07353809364185437 10.082831466593793 2.2253974536554413 10.575767346377242 9.855342194941793 0.6236063457968462 4.659485956673984 7.120163701269992 4.989362383717697 6.2113848205762014 0.2267876553373214 10.259137775017633 8.362958651408777 0.8474760839646484 8.185845643440073 0.7343799921148492 1.6775635469503722 4.408018602497633 3.197672080104283 7.279062282673055 1.7111371082715405 2.0905406415829018 0.7944493876977626 3.032468504890036 1.3115236284677656 7.926619113378242 5.219388513148944 10.163267902791015 2.183247402436232 1.4915662295204546 6.450762296047269 4.223592226286663 4.192810269969437 7.221202819264364 7.980200946305608 2.5582990039923996 4.77646800514714 5.364583816756994 6.965415376735907 8.29918692949364 7.198466629460399 9.148206357061229 4.203605183615857 5.229419185121282 9.463052697847978 4.611975599268499 0.9764068387227367 7.298104637718953 6.539934439157966 0.3308646339861733 6.453511443180428 0.8685256348517836 3.5733180918514034 7.180485721184061 3.0112501839665407 5.96621184574334 3.733585939587198 7.935238061147066 2.338579522693575 8.44474312500334 10.282648820963376 7.6966566707531685 4.083895216944932 8.978321801593223 9.439074615323628 7.243440129086637 9.945299808661964 5.078407153216046 0.5976104529635634 9.394302790583607 8.407571259133364 1.8175683758552754 4.5624803364039375 0.041516367497782224 8.00226842464475 2.581916194615099 3.6488931018440427 6.890583379481959 5.842065031575656 7.3901639160428525 2.8727313805390216 0.5261772082657457 1.8305817132500755 8.953940369296442 8.130820242906108 2.8030474001174372 6.193308382090604 2.1362146960770487 0.4458596541067145 2.6384382350941444 4.7553239854975144 2.2779178398132474 3.801242556678923 6.674271142313421 4.461027254169436 6.744772436747565 8.554645323523536 9.650122076515151 10.360559013849047 1.4112359380001884 2.620510399156284 1.9016774178751734 7.008329669629199 8.188414344622407 9.527864637597284 5.952264435191327 8.193689735067117 1.9242437761960092 9.475736986744215 6.0895201169630715 5.24248559485456 3.5329406567373587 4.85348658274638 1.587276884731638 9.021671287662036 3.130355125978817 9.124376877084616 8.173734535799397 9.098031768264148 2.502562434122828 7.624159856392252 0.23311706242420493 6.280591149951484 0.6357758330098463 6.935811626332891 0.06423875849374326 1.9845764105777732 4.996431619202963 7.1333044122771385 8.880573168584485 1.0729740814769548 3.2914827455979547 2.824053431687021 3.4190155749605333 8.739220302282243 6.388221852384821 4.397839327977557 4.975075310199426 7.936395038125886 5.7892898981931555 6.430732795505681 5.736684596293785 3.7719466258390795 9.044067814499742 10.450399868424565 3.710849749783233 3.7387445708872575 9.64706510981882 4.580270184261755 5.306926028234519 1.3372849415649755 9.167110724027085 0.555405206512337 5.908670816365517 2.0106455432381556 4.753636285133914 5.059768147942581 8.67695583477988 7.359742851627275 4.2749131775948666 1.7004164958989894