-6823.448827993547
-6822.928047685428
-6821.589998225266
-6820.585345769535
-6820.104982801985
-6819.468480641701
-6818.583715148606
-6817.496260356567
-6816.928624494457
-6817.003050078353
-6817.4149372310885
-6817.748527300288
-6817.792957911806
-6817.536526265786
-6817.010673347544
-6817.284810080476
-6817.353501817622
-6816.441432285898
-6815.060917556418
-6814.330372309267
-6814.769529758513
-6815.182732853772
-6815.332475738614
-6815.594839330261
-6814.827590416153
-6812.398928691026
-6811.267408464241
-6811.338965151937
-6810.080948861602
-6810.154139728957
-6809.7238316938565
-6809.46165980641
-6809.681293634086
-6809.072583140429
-6808.455201195075
-6807.075464983286
-6806.226175923734
-6806.678535792205
-6807.004183946909
-6805.586773846272
-6804.119127177199
-6801.582358161454
-6800.661757860888
-6802.663676242202
-6804.3737884505845
-6803.552005066014
-6804.050705513037
-6803.049767275146
-6803.148977531695
-6801.709319539667
-6802.766285880881
-6804.745981541333
-6804.803282185022
-6802.606020489953
-6802.766086013266
-6804.1137855825455
-6803.963813305736
-6803.780804912289
-6806.133717627864
-6805.771854658715
-6805.583676102333
-6806.250557731849
-6805.732805098356
-6806.2680554680155
-6808.316855798364
-6806.755681289977
-6805.572439297422
-6805.639331409696
-6803.179052233429
-6803.879126172927
-6806.039030991768
-6806.881678704916
-6807.916915395544
-6806.683492073662
-6804.856541257922
-6803.033129010539
-6803.318962556826
-6803.64451043758
-6804.419570787596
-6805.1572413356125
-6805.315007088818
-6804.995085433791
-6804.949688001804
-6804.684326531998
-6805.244721444862
-6804.532081560408
-6804.868470456494
-6806.452464159277
-6806.740707273606
-6806.833140943174
-6806.289032587781
-6805.657592697295
-6804.702276113194
-6805.07424675088
-6806.021393389088
-6806.300597698038
-6804.693028596501
-6803.5761603393585
-6804.483643800501
-6805.38123592361
-6806.261035611264
