An instance of this daemon is already running
An instance of this daemon is already running

     Program PWSCF v.7.1 starts on 10May2023 at 14: 1:21 

     This program is part of the open-source Quantum ESPRESSO suite
     for quantum simulation of materials; please cite
         "P. Giannozzi et al., J. Phys.:Condens. Matter 21 395502 (2009);
         "P. Giannozzi et al., J. Phys.:Condens. Matter 29 465901 (2017);
         "P. Giannozzi et al., J. Chem. Phys. 152 154105 (2020);
          URL http://www.quantum-espresso.org", 
     in publications or presentations arising from this work. More details at
     http://www.quantum-espresso.org/quote

     Parallel version (MPI & OpenMP), running on       4 processor cores
     Number of MPI processes:                 4
     Threads/MPI process:                     1

     MPI processes distributed on     1 nodes
     246531 MiB available memory on the printing compute node when the environment starts
 
     Reading input from pw-si-23.in
Warning: card &CELL ignored
Warning: card / ignored

     Current dimensions of program PWSCF are:
     Max number of different atomic species (ntypx) = 10
     Max number of k-points (npk) =  40000
     Max angular momentum in pseudopotentials (lmaxx) =  4

     IMPORTANT: XC functional enforced from input :
     Exchange-correlation= PBE
                           (   1   4   3   4   0   0   0)
     Any further DFT definition will be discarded
     Please, verify this is what you really want


     gamma-point specific algorithms are used
 
     K-points division:     npool     =       2
     R & G space division:  proc/nbgrp/npool/nimage =       2
     Subspace diagonalization in iterative solution of the eigenvalue problem:
     a serial algorithm will be used

     Message from routine divide_et_impera:
     suboptimal parallelization: some nodes have no k-points
 
     Parallelization info
     --------------------
     sticks:   dense  smooth     PW     G-vecs:    dense   smooth      PW
     Min        2102    2102    554               103098   103098   14006
     Max        2103    2103    555               103099   103099   14011
     Sum        4205    4205   1109               206197   206197   28017
 
     Using Slab Decomposition
 


     bravais-lattice index     =            0
     lattice parameter (alat)  =      21.0196  a.u.
     unit-cell volume          =    9286.9129 (a.u.)^3
     number of atoms/cell      =           64
     number of atomic types    =            1
     number of electrons       =       256.00
     number of Kohn-Sham states=          154
     kinetic-energy cutoff     =      30.0000  Ry
     charge density cutoff     =     120.0000  Ry
     scf convergence threshold =      1.0E-06
     mixing beta               =       0.5000
     number of iterations used =            8  plain     mixing
     Exchange-correlation= PBE
                           (   1   4   3   4   0   0   0)

     GPU acceleration is ACTIVE.
     GPU-aware MPI enabled

     Message from routine print_cuda_info:
     High GPU oversubscription detected. Are you sure this is what you want?

     celldm(1)=  21.019568  celldm(2)=   0.000000  celldm(3)=   0.000000
     celldm(4)=   0.000000  celldm(5)=   0.000000  celldm(6)=   0.000000

     crystal axes: (cart. coord. in units of alat)
               a(1) = (   1.000000   0.000000   0.000000 )  
               a(2) = (   0.000000   1.000000   0.000000 )  
               a(3) = (   0.000000   0.000000   1.000000 )  

     reciprocal axes: (cart. coord. in units 2 pi/alat)
               b(1) = (  1.000000  0.000000  0.000000 )  
               b(2) = (  0.000000  1.000000  0.000000 )  
               b(3) = (  0.000000  0.000000  1.000000 )  


     PseudoPot. # 1 for Si read from file:
     /home/ppiaggi/pseudos/Si_ONCV_PBE_sr.upf
     MD5 check sum: 8553c464762ac42b85b1eed164b4d029
     Pseudo is Norm-conserving, Zval =  4.0
     Generated using ONCVPSP code by D. R. Hamann
     Using radial grid of 1510 points,  4 beta functions with: 
                l(1) =   0
                l(2) =   0
                l(3) =   1
                l(4) =   1

     atomic species   valence    mass     pseudopotential
        Si             4.00    28.08500     Si( 1.00)

     No symmetry found



   Cartesian axes

     site n.     atom                  positions (alat units)
         1           Si  tau(   1) = (   0.4105220   0.1966430   0.3952940  )
         2           Si  tau(   2) = (   0.3705080   0.3887640   0.9607500  )
         3           Si  tau(   3) = (   0.1161610   0.3100450   0.8098680  )
         4           Si  tau(   4) = (   0.6752140   0.2007360   0.0056400  )
         5           Si  tau(   5) = (   0.1153650   0.2644470   0.0162394  )
         6           Si  tau(   6) = (   0.6959600   0.7016850   0.4067870  )
         7           Si  tau(   7) = (   0.4305940   0.4556110   0.1935010  )
         8           Si  tau(   8) = (   0.0363832   0.7299390   0.4263920  )
         9           Si  tau(   9) = (   0.7308330   0.4013980   0.0111203  )
        10           Si  tau(  10) = (   0.9744130   0.9784360   0.6130440  )
        11           Si  tau(  11) = (   0.8090400   0.9776920   0.9429700  )
        12           Si  tau(  12) = (   0.2545690   0.9034340   0.8685050  )
        13           Si  tau(  13) = (   0.0875479   0.4127540   0.6261170  )
        14           Si  tau(  14) = (   0.4379820   0.6409530   0.9378300  )
        15           Si  tau(  15) = (   0.8203800   0.7232590   0.1297610  )
        16           Si  tau(  16) = (   0.8016270   0.1154880   0.1389910  )
        17           Si  tau(  17) = (   0.5047180   0.1836940   0.6041310  )
        18           Si  tau(  18) = (   0.3278700   0.2606110   0.1770780  )
        19           Si  tau(  19) = (   0.2189280   0.1310810   0.8714910  )
        20           Si  tau(  20) = (   0.4354090   0.8545070   0.2546000  )
        21           Si  tau(  21) = (   0.1477870   0.6549070   0.2691010  )
        22           Si  tau(  22) = (   0.3274760   0.6126070   0.5841820  )
        23           Si  tau(  23) = (   0.2189510   0.4920890   0.4353830  )
        24           Si  tau(  24) = (   0.5997770   0.7875270   0.8104690  )
        25           Si  tau(  25) = (   0.8937310   0.3789450   0.5762310  )
        26           Si  tau(  26) = (   0.9396310   0.4082470   0.1107280  )
        27           Si  tau(  27) = (   0.5852890   0.5617430   0.0782234  )
        28           Si  tau(  28) = (   0.6319850   0.1007330   0.3852840  )
        29           Si  tau(  29) = (   0.6900520   0.2901580   0.6256500  )
        30           Si  tau(  30) = (   0.3706890   0.6667670   0.1750430  )
        31           Si  tau(  31) = (   0.8055950   0.0112458   0.7271260  )
        32           Si  tau(  32) = (   0.3608560   0.7692820   0.7415320  )
        33           Si  tau(  33) = (   0.6508820   0.9757300   0.5717970  )
        34           Si  tau(  34) = (   0.1199230   0.8416330   0.7256290  )
        35           Si  tau(  35) = (   0.1701920   0.5063560   0.9405590  )
        36           Si  tau(  36) = (   0.7384890   0.2942620   0.3903010  )
        37           Si  tau(  37) = (   0.6878360   0.5416230   0.8169200  )
        38           Si  tau(  38) = (   0.2595850   0.0211889   0.0739996  )
        39           Si  tau(  39) = (   0.8624170   0.8233120   0.3079210  )
        40           Si  tau(  40) = (   0.5871050   0.2237880   0.2115550  )
        41           Si  tau(  41) = (   0.1564230   0.4400010   0.1840400  )
        42           Si  tau(  42) = (   0.4957200   0.6856730   0.3703860  )
        43           Si  tau(  43) = (   0.5696750   0.7844950   0.0460808  )
        44           Si  tau(  44) = (   0.9922730   0.1827030   0.2062440  )
        45           Si  tau(  45) = (   0.1244410   0.6144190   0.7141800  )
        46           Si  tau(  46) = (   0.9088930   0.6030640   0.7246530  )
        47           Si  tau(  47) = (   0.2645750   0.7928270   0.4178890  )
        48           Si  tau(  48) = (   0.4121700   0.4113890   0.4976940  )
        49           Si  tau(  49) = (   0.2117460   0.8257040   0.1420940  )
        50           Si  tau(  50) = (   0.9153470   0.8369960   0.7905420  )
        51           Si  tau(  51) = (   0.2113540   0.7232770   0.9699980  )
        52           Si  tau(  52) = (   0.5921550   0.0100518   0.7922960  )
        53           Si  tau(  53) = (   0.9210230   0.2116150   0.4047080  )
        54           Si  tau(  54) = (   0.6933610   0.9063800   0.1541550  )
        55           Si  tau(  55) = (   0.2191390   0.0501103   0.2960880  )
        56           Si  tau(  56) = (   0.8363730   0.5739330   0.5123280  )
        57           Si  tau(  57) = (   0.5109410   0.7891420   0.5624480  )
        58           Si  tau(  58) = (   0.6204240   0.4880310   0.5173090  )
        59           Si  tau(  59) = (   0.8638650   0.0121905   0.4187410  )
        60           Si  tau(  60) = (   0.3619750   0.9826730   0.4282460  )
        61           Si  tau(  61) = (   0.4302400   0.2261010   0.8524350  )
        62           Si  tau(  62) = (   0.0172455   0.6085700   0.0637043  )
        63           Si  tau(  63) = (   0.4710000   0.4974820   0.7865110  )
        64           Si  tau(  64) = (   0.7295950   0.4087660   0.2173810  )

     number of k points=     1  Fermi-Dirac smearing, width (Ry)=  0.0100
                       cart. coord. in units 2pi/alat
        k(    1) = (   0.0000000   0.0000000   0.0000000), wk =   2.0000000

     Dense  grid:   103099 G-vectors     FFT dimensions: (  75,  75,  75)

     Estimated max dynamical RAM per process >     165.15 MB

     Estimated total dynamical RAM >     635.44 MB

     Initial potential from superposition of free atoms

     starting charge     255.9608, renormalised to     256.0000
     Starting wfcs are  256 randomized atomic wfcs

     total cpu time spent up to now is        4.3 secs

     Self-consistent Calculation

     iteration #  1     ecut=    30.00 Ry     beta= 0.50
     Davidson diagonalization with overlap
     ethr =  1.00E-02,  avg # of iterations =  3.0

     Threshold (ethr) on eigenvalues was too large:
     Diagonalizing with lowered threshold

     Davidson diagonalization with overlap
     ethr =  5.31E-04,  avg # of iterations =  4.0

     total cpu time spent up to now is        4.5 secs

     total energy              =    -500.41422132 Ry
     estimated scf accuracy    <       1.80934454 Ry

     iteration #  2     ecut=    30.00 Ry     beta= 0.50
     Davidson diagonalization with overlap
     ethr =  7.07E-04,  avg # of iterations =  3.0

     total cpu time spent up to now is        4.7 secs

     total energy              =    -499.57102309 Ry
     estimated scf accuracy    <      11.33671390 Ry

     iteration #  3     ecut=    30.00 Ry     beta= 0.50
     Davidson diagonalization with overlap
     ethr =  7.07E-04,  avg # of iterations =  5.0

     total cpu time spent up to now is        4.8 secs

     total energy              =    -500.57723385 Ry
     estimated scf accuracy    <       3.46744870 Ry

     iteration #  4     ecut=    30.00 Ry     beta= 0.50
     Davidson diagonalization with overlap
     ethr =  7.07E-04,  avg # of iterations =  2.0

     total cpu time spent up to now is        4.9 secs

     total energy              =    -500.82263458 Ry
     estimated scf accuracy    <       0.85712037 Ry

     iteration #  5     ecut=    30.00 Ry     beta= 0.50
     Davidson diagonalization with overlap
     ethr =  3.35E-04,  avg # of iterations =  2.0

     total cpu time spent up to now is        5.0 secs

     total energy              =    -500.86583339 Ry
     estimated scf accuracy    <       0.62050022 Ry

     iteration #  6     ecut=    30.00 Ry     beta= 0.50
     Davidson diagonalization with overlap
     ethr =  2.42E-04,  avg # of iterations =  2.0

     total cpu time spent up to now is        5.1 secs

     total energy              =    -500.92224267 Ry
     estimated scf accuracy    <       0.09067125 Ry

     iteration #  7     ecut=    30.00 Ry     beta= 0.50
     Davidson diagonalization with overlap
     ethr =  3.54E-05,  avg # of iterations =  2.0

     total cpu time spent up to now is        5.2 secs

     total energy              =    -500.93101332 Ry
     estimated scf accuracy    <       0.03178322 Ry

     iteration #  8     ecut=    30.00 Ry     beta= 0.50
     Davidson diagonalization with overlap
     ethr =  1.24E-05,  avg # of iterations = 11.0

     total cpu time spent up to now is        5.4 secs

     total energy              =    -500.93354914 Ry
     estimated scf accuracy    <       0.03422223 Ry

     iteration #  9     ecut=    30.00 Ry     beta= 0.50
     Davidson diagonalization with overlap
     ethr =  1.24E-05,  avg # of iterations =  2.0

     total cpu time spent up to now is        5.5 secs

     total energy              =    -500.93615760 Ry
     estimated scf accuracy    <       0.00455085 Ry

     iteration # 10     ecut=    30.00 Ry     beta= 0.50
     Davidson diagonalization with overlap
     ethr =  1.78E-06,  avg # of iterations = 11.0

     total cpu time spent up to now is        5.6 secs

     total energy              =    -500.93663599 Ry
     estimated scf accuracy    <       0.00247231 Ry

     iteration # 11     ecut=    30.00 Ry     beta= 0.50
     Davidson diagonalization with overlap
     ethr =  9.66E-07,  avg # of iterations =  2.0

     total cpu time spent up to now is        5.8 secs

     total energy              =    -500.93685107 Ry
     estimated scf accuracy    <       0.00146482 Ry

     iteration # 12     ecut=    30.00 Ry     beta= 0.50
     Davidson diagonalization with overlap
     ethr =  5.72E-07,  avg # of iterations =  2.0

     total cpu time spent up to now is        5.9 secs

     total energy              =    -500.93697848 Ry
     estimated scf accuracy    <       0.00019401 Ry

     iteration # 13     ecut=    30.00 Ry     beta= 0.50
     Davidson diagonalization with overlap
     ethr =  7.58E-08,  avg # of iterations =  5.0

     total cpu time spent up to now is        6.0 secs

     total energy              =    -500.93699727 Ry
     estimated scf accuracy    <       0.00030905 Ry

     iteration # 14     ecut=    30.00 Ry     beta= 0.50
     Davidson diagonalization with overlap
     ethr =  7.58E-08,  avg # of iterations =  2.0

     total cpu time spent up to now is        6.1 secs

     total energy              =    -500.93701793 Ry
     estimated scf accuracy    <       0.00001983 Ry

     iteration # 15     ecut=    30.00 Ry     beta= 0.50
     Davidson diagonalization with overlap
     ethr =  7.75E-09,  avg # of iterations =  5.0

     total cpu time spent up to now is        6.2 secs

     total energy              =    -500.93701862 Ry
     estimated scf accuracy    <       0.00006596 Ry

     iteration # 16     ecut=    30.00 Ry     beta= 0.50
     Davidson diagonalization with overlap
     ethr =  7.75E-09,  avg # of iterations =  3.0

     total cpu time spent up to now is        6.3 secs

     total energy              =    -500.93702383 Ry
     estimated scf accuracy    <       0.00001445 Ry

     iteration # 17     ecut=    30.00 Ry     beta= 0.50
     Davidson diagonalization with overlap
     ethr =  5.64E-09,  avg # of iterations =  2.0

     total cpu time spent up to now is        6.4 secs

     total energy              =    -500.93702483 Ry
     estimated scf accuracy    <       0.00000174 Ry

     iteration # 18     ecut=    30.00 Ry     beta= 0.50
     Davidson diagonalization with overlap
     ethr =  6.81E-10,  avg # of iterations =  4.0

     total cpu time spent up to now is        6.5 secs

     total energy              =    -500.93702497 Ry
     estimated scf accuracy    <       0.00000319 Ry

     iteration # 19     ecut=    30.00 Ry     beta= 0.50
     Davidson diagonalization with overlap
     ethr =  6.81E-10,  avg # of iterations =  2.0

     total cpu time spent up to now is        6.6 secs

     End of self-consistent calculation

          k = 0.0000 0.0000 0.0000 ( 12839 PWs)   bands (ev):

    -6.8224  -6.2702  -5.8491  -5.8190  -5.7027  -5.4357  -5.1963  -5.1818
    -5.0246  -4.8901  -4.7205  -4.5625  -4.4459  -4.3965  -4.3000  -4.1952
    -4.0152  -3.9818  -3.7610  -3.6125  -3.4233  -3.3397  -3.0063  -2.8185
    -2.6722  -2.5701  -2.5605  -2.4526  -2.3550  -2.2228  -2.1582  -1.9896
    -1.8446  -1.7686  -1.6920  -1.5402  -1.4043  -1.2901  -1.1370  -1.0582
    -1.0449  -0.9254  -0.8682  -0.8483  -0.7590  -0.6521  -0.5188  -0.3825
    -0.3514  -0.2018  -0.0755   0.0097   0.1505   0.2222   0.3107   0.4940
     0.4979   0.6868   0.8192   0.8840   1.0109   1.0706   1.1280   1.2871
     1.4252   1.4803   1.5537   1.6264   1.7061   1.7909   1.9037   1.9567
     2.0040   2.1241   2.1829   2.2230   2.2886   2.3950   2.4671   2.5685
     2.6793   2.6939   2.8800   2.9409   3.0092   3.0350   3.1197   3.2598
     3.3537   3.3817   3.4121   3.4615   3.4967   3.5493   3.6398   3.6790
     3.7249   3.7730   3.8383   4.0081   4.0933   4.1085   4.1446   4.2437
     4.2865   4.3238   4.4018   4.4408   4.5128   4.5993   4.6347   4.6852
     4.7600   4.7731   4.8139   4.9226   5.0444   5.0770   5.1079   5.1173
     5.1826   5.2426   5.2839   5.4537   5.4749   5.5777   5.6276   5.6798
     5.7278   5.8113   5.8445   5.8984   5.9947   6.0359   6.0640   6.1906
     6.2302   6.2943   6.3385   6.3773   6.3979   6.4819   6.4910   6.5559
     6.6876   6.7224   6.7826   6.8674   6.8840   6.9887   7.0557   7.0876
     7.1618   7.1872

     the Fermi energy is     5.7024 ev

!    total energy              =    -500.93702496 Ry
     estimated scf accuracy    <       0.00000041 Ry
     smearing contrib. (-TS)   =      -0.14476255 Ry
     internal energy E=F+TS    =    -500.79226241 Ry

     The total energy is F=E-TS. E is the sum of the following terms:
     one-electron contribution =      72.07720080 Ry
     hartree contribution      =      68.40581145 Ry
     xc contribution           =    -149.76021417 Ry
     ewald contribution        =    -491.51506049 Ry

     convergence has been achieved in  19 iterations

     Forces acting on atoms (cartesian axes, Ry/au):

     atom    1 type  1   force =     0.00585027    0.01000627   -0.01382932
     atom    2 type  1   force =    -0.02373763    0.04915278    0.03228010
     atom    3 type  1   force =     0.00531301    0.00973774    0.00160097
     atom    4 type  1   force =    -0.05467271    0.00538206   -0.04166116
     atom    5 type  1   force =    -0.01097373    0.01359955    0.06225920
     atom    6 type  1   force =     0.04813545    0.01388188    0.00514066
     atom    7 type  1   force =    -0.00616034   -0.00343799    0.00233973
     atom    8 type  1   force =    -0.01567599    0.00583003    0.02701653
     atom    9 type  1   force =     0.01799513    0.03143752   -0.06708156
     atom   10 type  1   force =     0.02704016   -0.01614930   -0.02975140
     atom   11 type  1   force =    -0.01744836   -0.00275150    0.01554408
     atom   12 type  1   force =     0.03440912    0.05175285    0.02181226
     atom   13 type  1   force =     0.03768608    0.01263115   -0.02458103
     atom   14 type  1   force =    -0.04927955    0.03327907   -0.01813919
     atom   15 type  1   force =    -0.00003562   -0.00986171   -0.01113847
     atom   16 type  1   force =     0.02015359   -0.06331177    0.00838116
     atom   17 type  1   force =    -0.00156736   -0.01876045    0.02036950
     atom   18 type  1   force =    -0.01482415    0.00089173    0.00499551
     atom   19 type  1   force =     0.03518655   -0.02199521   -0.00153033
     atom   20 type  1   force =    -0.00390132    0.03516057   -0.00642522
     atom   21 type  1   force =     0.01684232   -0.01670370   -0.03674771
     atom   22 type  1   force =    -0.01029400    0.02381516    0.00942413
     atom   23 type  1   force =    -0.00716483   -0.00338399   -0.00483265
     atom   24 type  1   force =    -0.02051845   -0.02050244    0.01517819
     atom   25 type  1   force =    -0.02736647   -0.03265389   -0.02404391
     atom   26 type  1   force =    -0.01142238   -0.03558401   -0.00543369
     atom   27 type  1   force =     0.03391240   -0.01764862    0.01618194
     atom   28 type  1   force =    -0.01298104   -0.01102419    0.00520637
     atom   29 type  1   force =     0.00671960    0.03806577   -0.01040793
     atom   30 type  1   force =    -0.02317516   -0.02516702   -0.00300933
     atom   31 type  1   force =    -0.02298301    0.02489507   -0.00094252
     atom   32 type  1   force =     0.04105281   -0.01907947    0.00250905
     atom   33 type  1   force =    -0.02366217    0.00089285   -0.00617098
     atom   34 type  1   force =    -0.03407144   -0.01043420   -0.04212839
     atom   35 type  1   force =     0.00623124   -0.00750451   -0.01800453
     atom   36 type  1   force =    -0.05862345    0.01259476    0.02234975
     atom   37 type  1   force =    -0.00223140    0.01420146    0.00993079
     atom   38 type  1   force =     0.01428485    0.02460510    0.00080565
     atom   39 type  1   force =    -0.00338927   -0.00135391    0.02590126
     atom   40 type  1   force =    -0.01378039    0.01879706   -0.00496896
     atom   41 type  1   force =     0.01061415   -0.01523402   -0.00641571
     atom   42 type  1   force =    -0.02041745   -0.03230949    0.00739767
     atom   43 type  1   force =    -0.00855017   -0.03491542   -0.02245694
     atom   44 type  1   force =     0.02519983    0.02765802   -0.01395558
     atom   45 type  1   force =     0.03322438   -0.00161718    0.01835793
     atom   46 type  1   force =    -0.05542984    0.02724602   -0.01258367
     atom   47 type  1   force =    -0.02868086   -0.01966581    0.02821701
     atom   48 type  1   force =     0.01343094   -0.01292218   -0.01026229
     atom   49 type  1   force =     0.00380170    0.01741491    0.06235218
     atom   50 type  1   force =    -0.01636836   -0.04530621    0.01284930
     atom   51 type  1   force =     0.02646594   -0.05443665   -0.04977778
     atom   52 type  1   force =     0.00769182    0.00822434    0.01388860
     atom   53 type  1   force =     0.05071167    0.01173538    0.00744896
     atom   54 type  1   force =     0.05317277    0.05172224    0.01662399
     atom   55 type  1   force =    -0.03456733    0.02873042   -0.04784953
     atom   56 type  1   force =     0.03140091    0.02771859    0.02019073
     atom   57 type  1   force =     0.00808182    0.03564531    0.01179183
     atom   58 type  1   force =    -0.01476831   -0.03755485   -0.00279158
     atom   59 type  1   force =    -0.01458272   -0.02594859    0.02758130
     atom   60 type  1   force =     0.03907204   -0.01023611    0.02251587
     atom   61 type  1   force =     0.00691584   -0.05208625   -0.03564263
     atom   62 type  1   force =     0.01086226    0.00415110    0.01924424
     atom   63 type  1   force =    -0.00215550   -0.02625473   -0.03148934
     atom   64 type  1   force =    -0.00599787    0.03493860    0.02636691

     Total force =     0.356353     Total SCF correction =     0.001123


     Computing stress (Cartesian axis) and pressure

          total   stress  (Ry/bohr**3)                   (kbar)     P=      -24.63
  -0.00019056   0.00003604   0.00000448          -28.03        5.30        0.66
   0.00003604  -0.00013326   0.00006881            5.30      -19.60       10.12
   0.00000448   0.00006881  -0.00017845            0.66       10.12      -26.25

 
     init_run     :      0.64s CPU      4.25s WALL (       1 calls)
     electrons    :      2.12s CPU      2.32s WALL (       1 calls)
     forces       :      0.03s CPU      0.03s WALL (       1 calls)
     stress       :      0.16s CPU      0.16s WALL (       1 calls)

     Called by init_run:
     wfcinit      :      0.45s CPU      3.90s WALL (       1 calls)
                                        3.90s GPU  (       1 calls)
     potinit      :      0.04s CPU      0.12s WALL (       1 calls)
     hinit0       :      0.13s CPU      0.16s WALL (       1 calls)

     Called by electrons:
     c_bands      :      1.39s CPU      1.50s WALL (      20 calls)
     sum_band     :      0.39s CPU      0.45s WALL (      20 calls)
     v_of_rho     :      0.15s CPU      0.25s WALL (      20 calls)
     mix_rho      :      0.16s CPU      0.18s WALL (      20 calls)

     Called by c_bands:
     init_us_2    :      0.05s CPU      0.05s WALL (      41 calls)
     init_us_2:gp :      0.05s CPU      0.05s WALL (      41 calls)
     regterg      :      1.23s CPU      1.32s WALL (      20 calls)

     Called by *egterg:
     rdiaghg      :      0.42s CPU      1.16s WALL (      93 calls)
                                        1.14s GPU  (      93 calls)
     h_psi        :      1.08s CPU      3.85s WALL (      95 calls)
                                        3.84s GPU  (      95 calls)
     g_psi        :      0.00s CPU      0.00s WALL (      74 calls)
                                        0.00s GPU  (      74 calls)

     Called by h_psi:
     h_psi:calbec :      0.42s CPU      3.10s WALL (      95 calls)
                                        3.10s GPU  (      95 calls)
     vloc_psi     :      0.61s CPU      0.68s WALL (      95 calls)
                                        0.68s GPU  (      95 calls)
     add_vuspsi   :      0.04s CPU      0.06s WALL (      95 calls)
                                        0.05s GPU  (      95 calls)

     General routines
     calbec       :      0.42s CPU      3.11s WALL (     100 calls)
     fft          :      0.27s CPU      0.39s WALL (     167 calls)
                                        0.12s GPU  (     106 calls)
     ffts         :      0.04s CPU      0.05s WALL (      20 calls)
     fftw         :      0.68s CPU      0.88s WALL (    2120 calls)
                                        0.79s GPU  (    2120 calls)
 
     Parallel routines
 
     PWSCF        :      2.99s CPU      6.84s WALL

 
   This run was terminated on:  14: 1:28  10May2023            

=------------------------------------------------------------------------------=
   JOB DONE.
=------------------------------------------------------------------------------=
