An instance of this daemon is already running
An instance of this daemon is already running
An instance of this daemon is already running

     Program PWSCF v.7.1 starts on 10May2023 at 14: 2: 1 

     This program is part of the open-source Quantum ESPRESSO suite
     for quantum simulation of materials; please cite
         "P. Giannozzi et al., J. Phys.:Condens. Matter 21 395502 (2009);
         "P. Giannozzi et al., J. Phys.:Condens. Matter 29 465901 (2017);
         "P. Giannozzi et al., J. Chem. Phys. 152 154105 (2020);
          URL http://www.quantum-espresso.org", 
     in publications or presentations arising from this work. More details at
     http://www.quantum-espresso.org/quote

     Parallel version (MPI & OpenMP), running on       4 processor cores
     Number of MPI processes:                 4
     Threads/MPI process:                     1

     MPI processes distributed on     1 nodes
     246498 MiB available memory on the printing compute node when the environment starts
 
     Reading input from pw-si-27.in
Warning: card &CELL ignored
Warning: card / ignored

     Current dimensions of program PWSCF are:
     Max number of different atomic species (ntypx) = 10
     Max number of k-points (npk) =  40000
     Max angular momentum in pseudopotentials (lmaxx) =  4

     IMPORTANT: XC functional enforced from input :
     Exchange-correlation= PBE
                           (   1   4   3   4   0   0   0)
     Any further DFT definition will be discarded
     Please, verify this is what you really want


     gamma-point specific algorithms are used
 
     K-points division:     npool     =       2
     R & G space division:  proc/nbgrp/npool/nimage =       2
     Subspace diagonalization in iterative solution of the eigenvalue problem:
     a serial algorithm will be used

     Message from routine divide_et_impera:
     suboptimal parallelization: some nodes have no k-points
 
     Parallelization info
     --------------------
     sticks:   dense  smooth     PW     G-vecs:    dense   smooth      PW
     Min        2185    2185    576               108099   108099   14639
     Max        2188    2188    577               108100   108100   14640
     Sum        4373    4373   1153               216199   216199   29279
 
     Using Slab Decomposition
 


     bravais-lattice index     =            0
     lattice parameter (alat)  =      21.3465  a.u.
     unit-cell volume          =    9727.0254 (a.u.)^3
     number of atoms/cell      =           64
     number of atomic types    =            1
     number of electrons       =       256.00
     number of Kohn-Sham states=          154
     kinetic-energy cutoff     =      30.0000  Ry
     charge density cutoff     =     120.0000  Ry
     scf convergence threshold =      1.0E-06
     mixing beta               =       0.5000
     number of iterations used =            8  plain     mixing
     Exchange-correlation= PBE
                           (   1   4   3   4   0   0   0)

     GPU acceleration is ACTIVE.
     GPU-aware MPI enabled

     Message from routine print_cuda_info:
     High GPU oversubscription detected. Are you sure this is what you want?

     celldm(1)=  21.346500  celldm(2)=   0.000000  celldm(3)=   0.000000
     celldm(4)=   0.000000  celldm(5)=   0.000000  celldm(6)=   0.000000

     crystal axes: (cart. coord. in units of alat)
               a(1) = (   1.000000   0.000000   0.000000 )  
               a(2) = (   0.000000   1.000000   0.000000 )  
               a(3) = (   0.000000   0.000000   1.000000 )  

     reciprocal axes: (cart. coord. in units 2 pi/alat)
               b(1) = (  1.000000  0.000000  0.000000 )  
               b(2) = (  0.000000  1.000000  0.000000 )  
               b(3) = (  0.000000  0.000000  1.000000 )  


     PseudoPot. # 1 for Si read from file:
     /home/ppiaggi/pseudos/Si_ONCV_PBE_sr.upf
     MD5 check sum: 8553c464762ac42b85b1eed164b4d029
     Pseudo is Norm-conserving, Zval =  4.0
     Generated using ONCVPSP code by D. R. Hamann
     Using radial grid of 1510 points,  4 beta functions with: 
                l(1) =   0
                l(2) =   0
                l(3) =   1
                l(4) =   1

     atomic species   valence    mass     pseudopotential
        Si             4.00    28.08500     Si( 1.00)

     No symmetry found



   Cartesian axes

     site n.     atom                  positions (alat units)
         1           Si  tau(   1) = (   0.4003360   0.2171660   0.4276260  )
         2           Si  tau(   2) = (   0.3484150   0.3924300   0.9672100  )
         3           Si  tau(   3) = (   0.1617090   0.3292430   0.8247940  )
         4           Si  tau(   4) = (   0.6523770   0.2062070   0.0455101  )
         5           Si  tau(   5) = (   0.1774670   0.2651930   0.0297573  )
         6           Si  tau(   6) = (   0.7397090   0.6679420   0.4128920  )
         7           Si  tau(   7) = (   0.4281810   0.4334260   0.1391910  )
         8           Si  tau(   8) = (   0.0599302   0.7193070   0.4077800  )
         9           Si  tau(   9) = (   0.7212470   0.4136750   0.0141583  )
        10           Si  tau(  10) = (   0.9642620   0.9526310   0.6162540  )
        11           Si  tau(  11) = (   0.7729340   0.9848890   0.9301430  )
        12           Si  tau(  12) = (   0.2739460   0.9445990   0.8532510  )
        13           Si  tau(  13) = (   0.1255530   0.4126250   0.6281140  )
        14           Si  tau(  14) = (   0.4300660   0.6664910   0.9126020  )
        15           Si  tau(  15) = (   0.7919600   0.7084410   0.1581650  )
        16           Si  tau(  16) = (   0.8345420   0.0683423   0.0929032  )
        17           Si  tau(  17) = (   0.5077110   0.1609810   0.5799080  )
        18           Si  tau(  18) = (   0.3425160   0.2566540   0.2385060  )
        19           Si  tau(  19) = (   0.2078420   0.1317800   0.8713340  )
        20           Si  tau(  20) = (   0.4200300   0.8545160   0.2753130  )
        21           Si  tau(  21) = (   0.1459080   0.6577420   0.2193190  )
        22           Si  tau(  22) = (   0.3221870   0.5866580   0.5786440  )
        23           Si  tau(  23) = (   0.2058690   0.4710260   0.4532620  )
        24           Si  tau(  24) = (   0.5876320   0.7890960   0.8168890  )
        25           Si  tau(  25) = (   0.9107650   0.3477000   0.5629490  )
        26           Si  tau(  26) = (   0.9287050   0.4177550   0.0881221  )
        27           Si  tau(  27) = (   0.5823250   0.5489690   0.0741421  )
        28           Si  tau(  28) = (   0.6331480   0.1077040   0.4239360  )
        29           Si  tau(  29) = (   0.7174530   0.3122880   0.6313940  )
        30           Si  tau(  30) = (   0.3540780   0.6409420   0.1940110  )
        31           Si  tau(  31) = (   0.7858560   0.0148447   0.7286960  )
        32           Si  tau(  32) = (   0.3366710   0.7724070   0.6633050  )
        33           Si  tau(  33) = (   0.6153410   0.9967710   0.6019670  )
        34           Si  tau(  34) = (   0.1300410   0.8479800   0.7266880  )
        35           Si  tau(  35) = (   0.1913230   0.5158540   0.8907230  )
        36           Si  tau(  36) = (   0.7063030   0.3098230   0.4195030  )
        37           Si  tau(  37) = (   0.6839080   0.5521510   0.8622760  )
        38           Si  tau(  38) = (   0.2431630   0.0374946   0.0530218  )
        39           Si  tau(  39) = (   0.8535300   0.8179230   0.3338820  )
        40           Si  tau(  40) = (   0.5731020   0.2192160   0.2395220  )
        41           Si  tau(  41) = (   0.1316520   0.4170090   0.1738870  )
        42           Si  tau(  42) = (   0.5400060   0.7093010   0.3807100  )
        43           Si  tau(  43) = (   0.5564450   0.7503730   0.0872204  )
        44           Si  tau(  44) = (   0.0134202   0.1919640   0.1860770  )
        45           Si  tau(  45) = (   0.1109320   0.6107160   0.7009420  )
        46           Si  tau(  46) = (   0.8899320   0.6500690   0.7249580  )
        47           Si  tau(  47) = (   0.2519620   0.7829470   0.3751390  )
        48           Si  tau(  48) = (   0.4059430   0.4184970   0.5041630  )
        49           Si  tau(  49) = (   0.1889200   0.8425100   0.1343660  )
        50           Si  tau(  50) = (   0.9161860   0.8674970   0.7815160  )
        51           Si  tau(  51) = (   0.2450160   0.7186320   0.9441140  )
        52           Si  tau(  52) = (   0.6078860   0.0287553   0.8274950  )
        53           Si  tau(  53) = (   0.9174330   0.2307530   0.4010650  )
        54           Si  tau(  54) = (   0.7414540   0.9051390   0.1366000  )
        55           Si  tau(  55) = (   0.2169280   0.0311307   0.2611370  )
        56           Si  tau(  56) = (   0.8047410   0.5467660   0.5673680  )
        57           Si  tau(  57) = (   0.5341580   0.7908040   0.5889770  )
        58           Si  tau(  58) = (   0.6127410   0.4901160   0.5477500  )
        59           Si  tau(  59) = (   0.8684280   0.0108398   0.4476810  )
        60           Si  tau(  60) = (   0.3593650   0.9855580   0.4195030  )
        61           Si  tau(  61) = (   0.3847160   0.2064720   0.7806120  )
        62           Si  tau(  62) = (   0.9916450   0.6141830   0.0548671  )
        63           Si  tau(  63) = (   0.4884660   0.5002390   0.7792410  )
        64           Si  tau(  64) = (   0.7858130   0.4077650   0.2248420  )

     number of k points=     1  Fermi-Dirac smearing, width (Ry)=  0.0100
                       cart. coord. in units 2pi/alat
        k(    1) = (   0.0000000   0.0000000   0.0000000), wk =   2.0000000

     Dense  grid:   108100 G-vectors     FFT dimensions: (  75,  75,  75)

     Estimated max dynamical RAM per process >     172.16 MB

     Estimated total dynamical RAM >     662.24 MB

     Initial potential from superposition of free atoms

     starting charge     255.9608, renormalised to     256.0000
     Starting wfcs are  256 randomized atomic wfcs

     total cpu time spent up to now is        4.3 secs

     Self-consistent Calculation

     iteration #  1     ecut=    30.00 Ry     beta= 0.50
     Davidson diagonalization with overlap
     ethr =  1.00E-02,  avg # of iterations =  3.0

     Threshold (ethr) on eigenvalues was too large:
     Diagonalizing with lowered threshold

     Davidson diagonalization with overlap
     ethr =  6.30E-04,  avg # of iterations =  4.0

     total cpu time spent up to now is        4.5 secs

     total energy              =    -500.11536638 Ry
     estimated scf accuracy    <       2.08824537 Ry

     iteration #  2     ecut=    30.00 Ry     beta= 0.50
     Davidson diagonalization with overlap
     ethr =  8.16E-04,  avg # of iterations =  4.0

     total cpu time spent up to now is        4.7 secs

     total energy              =    -499.69284386 Ry
     estimated scf accuracy    <       4.65692510 Ry

     iteration #  3     ecut=    30.00 Ry     beta= 0.50
     Davidson diagonalization with overlap
     ethr =  8.16E-04,  avg # of iterations =  4.0

     total cpu time spent up to now is        4.8 secs

     total energy              =    -500.06713318 Ry
     estimated scf accuracy    <       6.70840515 Ry

     iteration #  4     ecut=    30.00 Ry     beta= 0.50
     Davidson diagonalization with overlap
     ethr =  8.16E-04,  avg # of iterations =  2.0

     total cpu time spent up to now is        4.9 secs

     total energy              =    -500.51360402 Ry
     estimated scf accuracy    <       0.65518104 Ry

     iteration #  5     ecut=    30.00 Ry     beta= 0.50
     Davidson diagonalization with overlap
     ethr =  2.56E-04,  avg # of iterations =  3.0

     total cpu time spent up to now is        5.0 secs

     total energy              =    -500.56721661 Ry
     estimated scf accuracy    <       0.36185522 Ry

     iteration #  6     ecut=    30.00 Ry     beta= 0.50
     Davidson diagonalization with overlap
     ethr =  1.41E-04,  avg # of iterations =  2.0

     total cpu time spent up to now is        5.1 secs

     total energy              =    -500.59451094 Ry
     estimated scf accuracy    <       0.31854484 Ry

     iteration #  7     ecut=    30.00 Ry     beta= 0.50
     Davidson diagonalization with overlap
     ethr =  1.24E-04,  avg # of iterations =  1.0

     total cpu time spent up to now is        5.2 secs

     total energy              =    -500.62024823 Ry
     estimated scf accuracy    <       0.01444819 Ry

     iteration #  8     ecut=    30.00 Ry     beta= 0.50
     Davidson diagonalization with overlap
     ethr =  5.64E-06,  avg # of iterations = 10.0

     total cpu time spent up to now is        5.4 secs

     total energy              =    -500.62202757 Ry
     estimated scf accuracy    <       0.01380989 Ry

     iteration #  9     ecut=    30.00 Ry     beta= 0.50
     Davidson diagonalization with overlap
     ethr =  5.39E-06,  avg # of iterations =  2.0

     total cpu time spent up to now is        5.5 secs

     total energy              =    -500.62326836 Ry
     estimated scf accuracy    <       0.00905393 Ry

     iteration # 10     ecut=    30.00 Ry     beta= 0.50
     Davidson diagonalization with overlap
     ethr =  3.54E-06,  avg # of iterations =  2.0

     total cpu time spent up to now is        5.6 secs

     total energy              =    -500.62397421 Ry
     estimated scf accuracy    <       0.00136928 Ry

     iteration # 11     ecut=    30.00 Ry     beta= 0.50
     Davidson diagonalization with overlap
     ethr =  5.35E-07,  avg # of iterations =  2.0

     total cpu time spent up to now is        5.7 secs

     total energy              =    -500.62408107 Ry
     estimated scf accuracy    <       0.00088237 Ry

     iteration # 12     ecut=    30.00 Ry     beta= 0.50
     Davidson diagonalization with overlap
     ethr =  3.45E-07,  avg # of iterations =  2.0

     total cpu time spent up to now is        5.8 secs

     total energy              =    -500.62416906 Ry
     estimated scf accuracy    <       0.00049621 Ry

     iteration # 13     ecut=    30.00 Ry     beta= 0.50
     Davidson diagonalization with overlap
     ethr =  1.94E-07,  avg # of iterations =  2.0

     total cpu time spent up to now is        5.9 secs

     total energy              =    -500.62420363 Ry
     estimated scf accuracy    <       0.00014166 Ry

     iteration # 14     ecut=    30.00 Ry     beta= 0.50
     Davidson diagonalization with overlap
     ethr =  5.53E-08,  avg # of iterations =  2.0

     total cpu time spent up to now is        6.0 secs

     total energy              =    -500.62421593 Ry
     estimated scf accuracy    <       0.00007079 Ry

     iteration # 15     ecut=    30.00 Ry     beta= 0.50
     Davidson diagonalization with overlap
     ethr =  2.77E-08,  avg # of iterations =  2.0

     total cpu time spent up to now is        6.1 secs

     total energy              =    -500.62421984 Ry
     estimated scf accuracy    <       0.00001571 Ry

     iteration # 16     ecut=    30.00 Ry     beta= 0.50
     Davidson diagonalization with overlap
     ethr =  6.14E-09,  avg # of iterations =  4.0

     total cpu time spent up to now is        6.2 secs

     total energy              =    -500.62422148 Ry
     estimated scf accuracy    <       0.00003754 Ry

     iteration # 17     ecut=    30.00 Ry     beta= 0.50
     Davidson diagonalization with overlap
     ethr =  6.14E-09,  avg # of iterations =  2.0

     total cpu time spent up to now is        6.3 secs

     total energy              =    -500.62422310 Ry
     estimated scf accuracy    <       0.00001156 Ry

     iteration # 18     ecut=    30.00 Ry     beta= 0.50
     Davidson diagonalization with overlap
     ethr =  4.51E-09,  avg # of iterations =  2.0

     total cpu time spent up to now is        6.4 secs

     total energy              =    -500.62422401 Ry
     estimated scf accuracy    <       0.00000243 Ry

     iteration # 19     ecut=    30.00 Ry     beta= 0.50
     Davidson diagonalization with overlap
     ethr =  9.48E-10,  avg # of iterations =  2.0

     total cpu time spent up to now is        6.5 secs

     End of self-consistent calculation

          k = 0.0000 0.0000 0.0000 ( 13541 PWs)   bands (ev):

    -7.2232  -6.9267  -6.6757  -6.5335  -6.3682  -6.1491  -5.9877  -5.7338
    -5.5942  -5.4332  -5.2831  -5.2275  -5.1431  -4.8786  -4.8162  -4.6213
    -4.5142  -4.3337  -4.2357  -4.1014  -3.9578  -3.8036  -3.5844  -3.3185
    -3.1695  -3.1048  -3.0340  -2.8672  -2.8368  -2.7397  -2.6063  -2.5899
    -2.4249  -2.3676  -2.2272  -2.1160  -1.9489  -1.8371  -1.7476  -1.5004
    -1.4525  -1.4269  -1.3083  -1.1536  -1.1062  -0.9886  -0.8831  -0.8005
    -0.7103  -0.6677  -0.4891  -0.3036  -0.2908  -0.1971  -0.0321  -0.0230
     0.0737   0.2772   0.3480   0.4664   0.5503   0.6259   0.8017   0.8139
     0.9470   1.0226   1.1407   1.1634   1.3121   1.4832   1.5023   1.5598
     1.6305   1.6470   1.7594   1.8460   1.9629   2.0400   2.1026   2.1600
     2.2192   2.2575   2.3059   2.3283   2.5346   2.5642   2.6115   2.6779
     2.7652   2.8376   2.8534   2.9391   2.9710   3.0732   3.1157   3.1716
     3.2740   3.3269   3.3636   3.4351   3.4593   3.5583   3.6324   3.6794
     3.7141   3.7999   3.8136   3.9136   3.9635   4.0190   4.1092   4.1643
     4.2526   4.3184   4.3464   4.3666   4.5202   4.5815   4.7065   4.7217
     4.7790   4.8119   4.9040   4.9211   4.9944   5.0405   5.0916   5.1572
     5.1896   5.2704   5.3323   5.3678   5.4243   5.4784   5.6227   5.6611
     5.7018   5.7445   5.8086   5.8311   5.8662   5.9867   6.0390   6.0988
     6.1964   6.2225   6.2552   6.3750   6.4574   6.5127   6.5211   6.6926
     6.7372   6.8185

     the Fermi energy is     5.1842 ev

!    total energy              =    -500.62422395 Ry
     estimated scf accuracy    <       0.00000055 Ry
     smearing contrib. (-TS)   =      -0.15690082 Ry
     internal energy E=F+TS    =    -500.46732312 Ry

     The total energy is F=E-TS. E is the sum of the following terms:
     one-electron contribution =      48.23584313 Ry
     hartree contribution      =      75.78144439 Ry
     xc contribution           =    -149.90830241 Ry
     ewald contribution        =    -474.57630824 Ry

     convergence has been achieved in  19 iterations

     Forces acting on atoms (cartesian axes, Ry/au):

     atom    1 type  1   force =    -0.02245028   -0.00248902   -0.01361575
     atom    2 type  1   force =    -0.01525591   -0.01797351   -0.09881183
     atom    3 type  1   force =     0.00730788   -0.02993597   -0.05003626
     atom    4 type  1   force =     0.02652211   -0.00387396   -0.00352269
     atom    5 type  1   force =     0.00207199   -0.00249801    0.05543982
     atom    6 type  1   force =    -0.00567797    0.00546343   -0.03114770
     atom    7 type  1   force =    -0.01901096    0.01396950    0.09744674
     atom    8 type  1   force =    -0.01739954   -0.01621254    0.00800796
     atom    9 type  1   force =     0.03278486   -0.04115058   -0.00476174
     atom   10 type  1   force =     0.04931471    0.03375349   -0.05089505
     atom   11 type  1   force =     0.02638785   -0.06265530   -0.01630540
     atom   12 type  1   force =     0.02335525   -0.06159195    0.00013794
     atom   13 type  1   force =    -0.04918114   -0.02142976    0.00977990
     atom   14 type  1   force =     0.06102503    0.00013165   -0.01525344
     atom   15 type  1   force =     0.01566285   -0.02766296   -0.00316055
     atom   16 type  1   force =     0.05997110    0.12771570    0.05069693
     atom   17 type  1   force =    -0.02433157    0.03765817    0.10067625
     atom   18 type  1   force =    -0.00130800    0.01479757   -0.05095117
     atom   19 type  1   force =    -0.00585254    0.00959444   -0.05078604
     atom   20 type  1   force =     0.02798202   -0.03113884   -0.05855346
     atom   21 type  1   force =    -0.04329232   -0.04556521   -0.00705217
     atom   22 type  1   force =    -0.01119578    0.03685254    0.01398444
     atom   23 type  1   force =    -0.01063135    0.00924181   -0.05337796
     atom   24 type  1   force =    -0.01131058    0.00090405   -0.01207301
     atom   25 type  1   force =     0.04491865    0.04415804    0.04560789
     atom   26 type  1   force =     0.03891283   -0.03175941   -0.01562711
     atom   27 type  1   force =     0.01332033    0.00782674    0.00199306
     atom   28 type  1   force =     0.04130652   -0.00129962   -0.07418000
     atom   29 type  1   force =    -0.03415974   -0.01148598    0.02906811
     atom   30 type  1   force =     0.00665927   -0.00557506    0.00059060
     atom   31 type  1   force =     0.02503815    0.05854697   -0.08402998
     atom   32 type  1   force =     0.00793967    0.01648648    0.01196079
     atom   33 type  1   force =     0.01404525   -0.09591641    0.01869293
     atom   34 type  1   force =     0.00144984   -0.01242463    0.00604295
     atom   35 type  1   force =    -0.01617026    0.08711047    0.02703890
     atom   36 type  1   force =     0.00578074    0.01974136   -0.05154749
     atom   37 type  1   force =     0.00112056    0.02164012   -0.02811701
     atom   38 type  1   force =     0.00282831   -0.01421722    0.01488465
     atom   39 type  1   force =     0.04334386    0.04487160    0.00424003
     atom   40 type  1   force =    -0.01975951    0.00435218    0.03280573
     atom   41 type  1   force =     0.01206196   -0.00116754    0.01503983
     atom   42 type  1   force =    -0.00739395   -0.01486980    0.03232677
     atom   43 type  1   force =    -0.00033240    0.03973549    0.01856162
     atom   44 type  1   force =    -0.00065012    0.01655982    0.00836540
     atom   45 type  1   force =    -0.01476731    0.01028736    0.02018810
     atom   46 type  1   force =     0.00880532    0.00818965    0.02816300
     atom   47 type  1   force =     0.00383082    0.01754550    0.03621966
     atom   48 type  1   force =     0.03339878   -0.00904788   -0.00834559
     atom   49 type  1   force =     0.01476492    0.00293445   -0.02635959
     atom   50 type  1   force =    -0.01876860   -0.10883714    0.09223883
     atom   51 type  1   force =    -0.05838982    0.04192009    0.01045451
     atom   52 type  1   force =    -0.10191157    0.01009981    0.01187325
     atom   53 type  1   force =    -0.00960083   -0.06101748   -0.07222516
     atom   54 type  1   force =    -0.04469660   -0.06397192    0.02138588
     atom   55 type  1   force =    -0.01102666    0.00537469   -0.00924780
     atom   56 type  1   force =     0.04370900   -0.00169198   -0.00188774
     atom   57 type  1   force =     0.00774082    0.03325405    0.00103732
     atom   58 type  1   force =    -0.06458385   -0.04611300   -0.00032058
     atom   59 type  1   force =    -0.03113512    0.01964225   -0.03338983
     atom   60 type  1   force =    -0.00961991    0.02053926    0.01948263
     atom   61 type  1   force =     0.00567984    0.02381710    0.00789584
     atom   62 type  1   force =     0.02269498    0.01381191    0.01602809
     atom   63 type  1   force =    -0.00397323   -0.00944159    0.00321267
     atom   64 type  1   force =    -0.04789868   -0.00551346    0.05401309

     Total force =     0.500833     Total SCF correction =     0.001281


     Computing stress (Cartesian axis) and pressure

          total   stress  (Ry/bohr**3)                   (kbar)     P=       -6.21
  -0.00006190   0.00002032  -0.00004118           -9.11        2.99       -6.06
   0.00002032  -0.00003305  -0.00000896            2.99       -4.86       -1.32
  -0.00004118  -0.00000896  -0.00003174           -6.06       -1.32       -4.67

 
     init_run     :      0.87s CPU      4.24s WALL (       1 calls)
     electrons    :      2.07s CPU      2.24s WALL (       1 calls)
     forces       :      0.03s CPU      0.04s WALL (       1 calls)
     stress       :      0.16s CPU      0.16s WALL (       1 calls)

     Called by init_run:
     wfcinit      :      0.67s CPU      3.90s WALL (       1 calls)
                                        3.90s GPU  (       1 calls)
     potinit      :      0.04s CPU      0.12s WALL (       1 calls)
     hinit0       :      0.14s CPU      0.16s WALL (       1 calls)

     Called by electrons:
     c_bands      :      1.31s CPU      1.38s WALL (      20 calls)
     sum_band     :      0.39s CPU      0.43s WALL (      20 calls)
     v_of_rho     :      0.16s CPU      0.24s WALL (      20 calls)
     mix_rho      :      0.18s CPU      0.22s WALL (      20 calls)

     Called by c_bands:
     init_us_2    :      0.05s CPU      0.06s WALL (      41 calls)
     init_us_2:gp :      0.05s CPU      0.05s WALL (      41 calls)
     regterg      :      1.16s CPU      1.22s WALL (      20 calls)

     Called by *egterg:
     rdiaghg      :      0.36s CPU      1.10s WALL (      76 calls)
                                        1.09s GPU  (      76 calls)
     h_psi        :      1.29s CPU      3.82s WALL (      78 calls)
                                        3.82s GPU  (      78 calls)
     g_psi        :      0.00s CPU      0.00s WALL (      57 calls)
                                        0.00s GPU  (      57 calls)

     Called by h_psi:
     h_psi:calbec :      0.64s CPU      3.09s WALL (      78 calls)
                                        3.09s GPU  (      78 calls)
     vloc_psi     :      0.60s CPU      0.67s WALL (      78 calls)
                                        0.67s GPU  (      78 calls)
     add_vuspsi   :      0.03s CPU      0.05s WALL (      78 calls)
                                        0.05s GPU  (      78 calls)

     General routines
     calbec       :      0.65s CPU      3.10s WALL (      83 calls)
     fft          :      0.28s CPU      0.39s WALL (     167 calls)
                                        0.11s GPU  (     106 calls)
     ffts         :      0.04s CPU      0.05s WALL (      20 calls)
     fftw         :      0.67s CPU      0.86s WALL (    2074 calls)
                                        0.77s GPU  (    2074 calls)
 
     Parallel routines
 
     PWSCF        :      3.17s CPU      6.76s WALL

 
   This run was terminated on:  14: 2: 7  10May2023            

=------------------------------------------------------------------------------=
   JOB DONE.
=------------------------------------------------------------------------------=
