An instance of this daemon is already running
An instance of this daemon is already running

     Program PWSCF v.7.1 starts on 10May2023 at 14:13:37 

     This program is part of the open-source Quantum ESPRESSO suite
     for quantum simulation of materials; please cite
         "P. Giannozzi et al., J. Phys.:Condens. Matter 21 395502 (2009);
         "P. Giannozzi et al., J. Phys.:Condens. Matter 29 465901 (2017);
         "P. Giannozzi et al., J. Chem. Phys. 152 154105 (2020);
          URL http://www.quantum-espresso.org", 
     in publications or presentations arising from this work. More details at
     http://www.quantum-espresso.org/quote

     Parallel version (MPI & OpenMP), running on       4 processor cores
     Number of MPI processes:                 4
     Threads/MPI process:                     1

     MPI processes distributed on     1 nodes
     247585 MiB available memory on the printing compute node when the environment starts
 
     Reading input from pw-si-95.in
Warning: card &CELL ignored
Warning: card / ignored

     Current dimensions of program PWSCF are:
     Max number of different atomic species (ntypx) = 10
     Max number of k-points (npk) =  40000
     Max angular momentum in pseudopotentials (lmaxx) =  4

     IMPORTANT: XC functional enforced from input :
     Exchange-correlation= PBE
                           (   1   4   3   4   0   0   0)
     Any further DFT definition will be discarded
     Please, verify this is what you really want


     gamma-point specific algorithms are used
 
     K-points division:     npool     =       2
     R & G space division:  proc/nbgrp/npool/nimage =       2
     Subspace diagonalization in iterative solution of the eigenvalue problem:
     a serial algorithm will be used

     Message from routine divide_et_impera:
     suboptimal parallelization: some nodes have no k-points
 
     Parallelization info
     --------------------
     sticks:   dense  smooth     PW     G-vecs:    dense   smooth      PW
     Min        2283    2283    600               115674   115674   15668
     Max        2286    2286    601               115675   115675   15675
     Sum        4569    4569   1201               231349   231349   31343
 
     Using Slab Decomposition
 


     bravais-lattice index     =            0
     lattice parameter (alat)  =      21.8441  a.u.
     unit-cell volume          =   10423.2429 (a.u.)^3
     number of atoms/cell      =           64
     number of atomic types    =            1
     number of electrons       =       256.00
     number of Kohn-Sham states=          154
     kinetic-energy cutoff     =      30.0000  Ry
     charge density cutoff     =     120.0000  Ry
     scf convergence threshold =      1.0E-06
     mixing beta               =       0.5000
     number of iterations used =            8  plain     mixing
     Exchange-correlation= PBE
                           (   1   4   3   4   0   0   0)

     GPU acceleration is ACTIVE.
     GPU-aware MPI enabled

     Message from routine print_cuda_info:
     High GPU oversubscription detected. Are you sure this is what you want?

     celldm(1)=  21.844107  celldm(2)=   0.000000  celldm(3)=   0.000000
     celldm(4)=   0.000000  celldm(5)=   0.000000  celldm(6)=   0.000000

     crystal axes: (cart. coord. in units of alat)
               a(1) = (   1.000000   0.000000   0.000000 )  
               a(2) = (   0.000000   1.000000   0.000000 )  
               a(3) = (   0.000000   0.000000   1.000000 )  

     reciprocal axes: (cart. coord. in units 2 pi/alat)
               b(1) = (  1.000000  0.000000  0.000000 )  
               b(2) = (  0.000000  1.000000  0.000000 )  
               b(3) = (  0.000000  0.000000  1.000000 )  


     PseudoPot. # 1 for Si read from file:
     /home/ppiaggi/pseudos/Si_ONCV_PBE_sr.upf
     MD5 check sum: 8553c464762ac42b85b1eed164b4d029
     Pseudo is Norm-conserving, Zval =  4.0
     Generated using ONCVPSP code by D. R. Hamann
     Using radial grid of 1510 points,  4 beta functions with: 
                l(1) =   0
                l(2) =   0
                l(3) =   1
                l(4) =   1

     atomic species   valence    mass     pseudopotential
        Si             4.00    28.08500     Si( 1.00)

     No symmetry found



   Cartesian axes

     site n.     atom                  positions (alat units)
         1           Si  tau(   1) = (   0.0863737   0.2638370   0.2947620  )
         2           Si  tau(   2) = (   0.3320150   0.4068820   0.0054170  )
         3           Si  tau(   3) = (   0.6687710   0.2843170   0.6895680  )
         4           Si  tau(   4) = (   0.6507700   0.2146180   0.2015780  )
         5           Si  tau(   5) = (   0.3451660   0.0488800   0.1516830  )
         6           Si  tau(   6) = (   0.8150780   0.9043750   0.3545170  )
         7           Si  tau(   7) = (   0.3085270   0.3515400   0.2147350  )
         8           Si  tau(   8) = (   0.0237949   0.8537320   0.1867530  )
         9           Si  tau(   9) = (   0.7628380   0.3427120   0.0816954  )
        10           Si  tau(  10) = (   0.8309030   0.0260241   0.6725980  )
        11           Si  tau(  11) = (   0.7579090   0.8226650   0.9244190  )
        12           Si  tau(  12) = (   0.2485090   0.0362396   0.7599520  )
        13           Si  tau(  13) = (   0.0594398   0.4405250   0.6087880  )
        14           Si  tau(  14) = (   0.6132770   0.6355410   0.8514020  )
        15           Si  tau(  15) = (   0.9371610   0.6639610   0.2554420  )
        16           Si  tau(  16) = (   0.9572910   0.0102395   0.0819586  )
        17           Si  tau(  17) = (   0.5961470   0.4108010   0.5507710  )
        18           Si  tau(  18) = (   0.3348440   0.1844630   0.3193020  )
        19           Si  tau(  19) = (   0.2676790   0.2131570   0.6960770  )
        20           Si  tau(  20) = (   0.3911520   0.8755070   0.4716840  )
        21           Si  tau(  21) = (   0.1339720   0.6754120   0.2449890  )
        22           Si  tau(  22) = (   0.2280790   0.6501930   0.7563160  )
        23           Si  tau(  23) = (   0.2425950   0.3887680   0.5460990  )
        24           Si  tau(  24) = (   0.5285010   0.8019980   0.9404530  )
        25           Si  tau(  25) = (   0.9038280   0.3300760   0.4473940  )
        26           Si  tau(  26) = (   0.9551790   0.2960000   0.1397500  )
        27           Si  tau(  27) = (   0.4355860   0.4854630   0.2959080  )
        28           Si  tau(  28) = (   0.8230930   0.2024760   0.5812700  )
        29           Si  tau(  29) = (   0.7386290   0.5901460   0.2888730  )
        30           Si  tau(  30) = (   0.3039180   0.5468890   0.1548770  )
        31           Si  tau(  31) = (   0.8404120   0.8369510   0.7497610  )
        32           Si  tau(  32) = (   0.2081200   0.9773510   0.4977370  )
        33           Si  tau(  33) = (   0.7155170   0.1218840   0.7832570  )
        34           Si  tau(  34) = (   0.1275400   0.8898760   0.6548150  )
        35           Si  tau(  35) = (   0.3586190   0.5034800   0.8217590  )
        36           Si  tau(  36) = (   0.7501700   0.4517420   0.4470030  )
        37           Si  tau(  37) = (   0.7281110   0.5023930   0.9371380  )
        38           Si  tau(  38) = (   0.1750480   0.1708770   0.8789060  )
        39           Si  tau(  39) = (   0.6659570   0.7958530   0.2516930  )
        40           Si  tau(  40) = (   0.4860300   0.2897310   0.3985970  )
        41           Si  tau(  41) = (   0.1359470   0.3202030   0.0460626  )
        42           Si  tau(  42) = (   0.5607310   0.8970200   0.6245040  )
        43           Si  tau(  43) = (   0.3269380   0.6958240   0.3248680  )
        44           Si  tau(  44) = (   0.0037577   0.1831500   0.9678530  )
        45           Si  tau(  45) = (   0.0520496   0.6380210   0.6311570  )
        46           Si  tau(  46) = (   0.8005450   0.6544420   0.8162590  )
        47           Si  tau(  47) = (   0.1883690   0.8532470   0.3395470  )
        48           Si  tau(  48) = (   0.2012790   0.4020930   0.7563990  )
        49           Si  tau(  49) = (   0.4309640   0.9188720   0.8140850  )
        50           Si  tau(  50) = (   0.0265433   0.7611640   0.7839320  )
        51           Si  tau(  51) = (   0.2414480   0.8289910   0.8044210  )
        52           Si  tau(  52) = (   0.6243390   0.9986420   0.9106250  )
        53           Si  tau(  53) = (   0.6823380   0.2751710   0.4069530  )
        54           Si  tau(  54) = (   0.8395650   0.8183450   0.1448440  )
        55           Si  tau(  55) = (   0.3874770   0.8864230   0.0385505  )
        56           Si  tau(  56) = (   0.8810610   0.5222650   0.6509830  )
        57           Si  tau(  57) = (   0.7776600   0.8649860   0.5584390  )
        58           Si  tau(  58) = (   0.5131200   0.3477910   0.7703460  )
        59           Si  tau(  59) = (   0.6302650   0.9121360   0.4334400  )
        60           Si  tau(  60) = (   0.3585470   0.8918180   0.2535660  )
        61           Si  tau(  61) = (   0.2238070   0.1835340   0.4993610  )
        62           Si  tau(  62) = (   0.8764860   0.4760970   0.2093570  )
        63           Si  tau(  63) = (   0.5272480   0.4897430   0.9470030  )
        64           Si  tau(  64) = (   0.8051920   0.1413600   0.0956429  )

     number of k points=     1  Fermi-Dirac smearing, width (Ry)=  0.0100
                       cart. coord. in units 2pi/alat
        k(    1) = (   0.0000000   0.0000000   0.0000000), wk =   2.0000000

     Dense  grid:   115675 G-vectors     FFT dimensions: (  80,  80,  80)

     Estimated max dynamical RAM per process >     186.08 MB

     Estimated total dynamical RAM >     716.09 MB

     Initial potential from superposition of free atoms

     starting charge     255.9608, renormalised to     256.0000
     Starting wfcs are  256 randomized atomic wfcs

     total cpu time spent up to now is        4.5 secs

     Self-consistent Calculation

     iteration #  1     ecut=    30.00 Ry     beta= 0.50
     Davidson diagonalization with overlap
     ethr =  1.00E-02,  avg # of iterations =  3.0

     Threshold (ethr) on eigenvalues was too large:
     Diagonalizing with lowered threshold

     Davidson diagonalization with overlap
     ethr =  7.62E-04,  avg # of iterations =  4.0

     total cpu time spent up to now is        4.7 secs

     total energy              =    -499.65958280 Ry
     estimated scf accuracy    <       2.55890030 Ry

     iteration #  2     ecut=    30.00 Ry     beta= 0.50
     Davidson diagonalization with overlap
     ethr =  1.00E-03,  avg # of iterations =  3.0

     total cpu time spent up to now is        4.8 secs

     total energy              =    -499.28822413 Ry
     estimated scf accuracy    <       3.96934310 Ry

     iteration #  3     ecut=    30.00 Ry     beta= 0.50
     Davidson diagonalization with overlap
     ethr =  1.00E-03,  avg # of iterations =  5.0

     total cpu time spent up to now is        5.0 secs

     total energy              =    -499.42770697 Ry
     estimated scf accuracy    <      10.96317270 Ry

     iteration #  4     ecut=    30.00 Ry     beta= 0.50
     Davidson diagonalization with overlap
     ethr =  1.00E-03,  avg # of iterations =  3.0

     total cpu time spent up to now is        5.1 secs

     total energy              =    -500.13702352 Ry
     estimated scf accuracy    <       0.58063814 Ry

     iteration #  5     ecut=    30.00 Ry     beta= 0.50
     Davidson diagonalization with overlap
     ethr =  2.27E-04,  avg # of iterations =  5.0

     total cpu time spent up to now is        5.2 secs

     total energy              =    -500.20321631 Ry
     estimated scf accuracy    <       0.31931992 Ry

     iteration #  6     ecut=    30.00 Ry     beta= 0.50
     Davidson diagonalization with overlap
     ethr =  1.25E-04,  avg # of iterations =  3.0

     total cpu time spent up to now is        5.3 secs

     total energy              =    -500.22784795 Ry
     estimated scf accuracy    <       0.26884891 Ry

     iteration #  7     ecut=    30.00 Ry     beta= 0.50
     Davidson diagonalization with overlap
     ethr =  1.05E-04,  avg # of iterations =  1.0

     total cpu time spent up to now is        5.4 secs

     total energy              =    -500.24748576 Ry
     estimated scf accuracy    <       0.02837344 Ry

     iteration #  8     ecut=    30.00 Ry     beta= 0.50
     Davidson diagonalization with overlap
     ethr =  1.11E-05,  avg # of iterations = 10.0

     total cpu time spent up to now is        5.5 secs

     total energy              =    -500.24941568 Ry
     estimated scf accuracy    <       0.04007535 Ry

     iteration #  9     ecut=    30.00 Ry     beta= 0.50
     Davidson diagonalization with overlap
     ethr =  1.11E-05,  avg # of iterations =  2.0

     total cpu time spent up to now is        5.6 secs

     total energy              =    -500.25267248 Ry
     estimated scf accuracy    <       0.00832616 Ry

     iteration # 10     ecut=    30.00 Ry     beta= 0.50
     Davidson diagonalization with overlap
     ethr =  3.25E-06,  avg # of iterations =  2.0

     total cpu time spent up to now is        5.7 secs

     total energy              =    -500.25356974 Ry
     estimated scf accuracy    <       0.00209454 Ry

     iteration # 11     ecut=    30.00 Ry     beta= 0.50
     Davidson diagonalization with overlap
     ethr =  8.18E-07,  avg # of iterations =  3.0

     total cpu time spent up to now is        5.8 secs

     total energy              =    -500.25366053 Ry
     estimated scf accuracy    <       0.00223019 Ry

     iteration # 12     ecut=    30.00 Ry     beta= 0.50
     Davidson diagonalization with overlap
     ethr =  8.18E-07,  avg # of iterations =  2.0

     total cpu time spent up to now is        5.9 secs

     total energy              =    -500.25379802 Ry
     estimated scf accuracy    <       0.00080461 Ry

     iteration # 13     ecut=    30.00 Ry     beta= 0.50
     Davidson diagonalization with overlap
     ethr =  3.14E-07,  avg # of iterations =  2.0

     total cpu time spent up to now is        6.0 secs

     total energy              =    -500.25386526 Ry
     estimated scf accuracy    <       0.00040266 Ry

     iteration # 14     ecut=    30.00 Ry     beta= 0.50
     Davidson diagonalization with overlap
     ethr =  1.57E-07,  avg # of iterations =  2.0

     total cpu time spent up to now is        6.1 secs

     total energy              =    -500.25389563 Ry
     estimated scf accuracy    <       0.00012958 Ry

     iteration # 15     ecut=    30.00 Ry     beta= 0.50
     Davidson diagonalization with overlap
     ethr =  5.06E-08,  avg # of iterations =  2.0

     total cpu time spent up to now is        6.2 secs

     total energy              =    -500.25390507 Ry
     estimated scf accuracy    <       0.00002536 Ry

     iteration # 16     ecut=    30.00 Ry     beta= 0.50
     Davidson diagonalization with overlap
     ethr =  9.91E-09,  avg # of iterations =  3.0

     total cpu time spent up to now is        6.3 secs

     total energy              =    -500.25390851 Ry
     estimated scf accuracy    <       0.00002077 Ry

     iteration # 17     ecut=    30.00 Ry     beta= 0.50
     Davidson diagonalization with overlap
     ethr =  8.11E-09,  avg # of iterations =  3.0

     total cpu time spent up to now is        6.4 secs

     total energy              =    -500.25390909 Ry
     estimated scf accuracy    <       0.00002675 Ry

     iteration # 18     ecut=    30.00 Ry     beta= 0.50
     Davidson diagonalization with overlap
     ethr =  8.11E-09,  avg # of iterations =  2.0

     total cpu time spent up to now is        6.5 secs

     total energy              =    -500.25391105 Ry
     estimated scf accuracy    <       0.00000167 Ry

     iteration # 19     ecut=    30.00 Ry     beta= 0.50
     Davidson diagonalization with overlap
     ethr =  6.52E-10,  avg # of iterations =  4.0

     total cpu time spent up to now is        6.7 secs

     total energy              =    -500.25391123 Ry
     estimated scf accuracy    <       0.00000298 Ry

     iteration # 20     ecut=    30.00 Ry     beta= 0.50
     Davidson diagonalization with overlap
     ethr =  6.52E-10,  avg # of iterations =  2.0

     total cpu time spent up to now is        6.8 secs

     End of self-consistent calculation

          k = 0.0000 0.0000 0.0000 ( 14444 PWs)   bands (ev):

    -8.0782  -7.7395  -7.6405  -7.5203  -7.4320  -7.2609  -6.9752  -6.9113
    -6.7753  -6.6769  -6.4722  -6.3802  -6.3502  -5.9970  -5.9669  -5.6554
    -5.5767  -5.3004  -5.1996  -5.1575  -4.8734  -4.7502  -4.5142  -4.3846
    -4.2657  -4.1204  -3.9986  -3.8413  -3.7227  -3.6633  -3.6080  -3.3462
    -3.3196  -3.1950  -3.0316  -2.9068  -2.7761  -2.6953  -2.4742  -2.3898
    -2.2415  -2.1596  -1.9972  -1.9587  -1.8404  -1.7054  -1.6540  -1.5350
    -1.3598  -1.2703  -1.2247  -1.0590  -0.9999  -0.8647  -0.8021  -0.7017
    -0.5398  -0.5207  -0.2974  -0.1177   0.0244   0.1286   0.1924   0.2879
     0.3167   0.3704   0.4723   0.5356   0.5674   0.6063   0.6391   0.7269
     0.8611   0.9374   1.0055   1.1271   1.1593   1.2192   1.3096   1.3786
     1.4321   1.4572   1.5570   1.6203   1.6748   1.7137   1.7969   1.8832
     1.9332   2.0225   2.0322   2.1288   2.3124   2.3360   2.4161   2.4610
     2.5227   2.5770   2.6216   2.6843   2.8153   2.9104   2.9751   3.0102
     3.0366   3.0790   3.1012   3.1918   3.2697   3.3824   3.3986   3.4607
     3.5282   3.5783   3.6736   3.6927   3.7702   3.8419   3.8636   3.9985
     4.0345   4.0751   4.1135   4.2521   4.3384   4.3716   4.4108   4.4823
     4.5419   4.6391   4.6739   4.7211   4.7370   4.8797   4.8938   4.9350
     4.9891   5.0492   5.0635   5.1859   5.2563   5.3088   5.3528   5.4447
     5.5158   5.5458   5.6347   5.6777   5.7722   5.8425   5.8543   5.9197
     6.0092   6.0792

     the Fermi energy is     4.5121 ev

!    total energy              =    -500.25391074 Ry
     estimated scf accuracy    <       0.00000098 Ry
     smearing contrib. (-TS)   =      -0.14767669 Ry
     internal energy E=F+TS    =    -500.10623405 Ry

     The total energy is F=E-TS. E is the sum of the following terms:
     one-electron contribution =      -1.52947337 Ry
     hartree contribution      =      93.83882143 Ry
     xc contribution           =    -151.08444775 Ry
     ewald contribution        =    -441.33113435 Ry

     convergence has been achieved in  20 iterations

     Forces acting on atoms (cartesian axes, Ry/au):

     atom    1 type  1   force =     0.02153963    0.01814760    0.03219568
     atom    2 type  1   force =    -0.02033757   -0.02252909   -0.00164256
     atom    3 type  1   force =     0.07413305   -0.00695297   -0.02435730
     atom    4 type  1   force =    -0.02382572    0.01478518    0.02043671
     atom    5 type  1   force =    -0.00344344    0.06901833   -0.01638724
     atom    6 type  1   force =     0.03570890    0.00924153    0.00251309
     atom    7 type  1   force =    -0.06246090   -0.02603519   -0.01158541
     atom    8 type  1   force =     0.09439574    0.01305907    0.02800735
     atom    9 type  1   force =    -0.02926059    0.04468616   -0.01483971
     atom   10 type  1   force =     0.05759165   -0.03073322   -0.04192416
     atom   11 type  1   force =    -0.02400532    0.03724195    0.10824518
     atom   12 type  1   force =     0.01653091   -0.08014448    0.01370705
     atom   13 type  1   force =    -0.02346027   -0.03965392   -0.00593685
     atom   14 type  1   force =    -0.09304800    0.07439607   -0.04015589
     atom   15 type  1   force =    -0.02843076   -0.01349980    0.00124261
     atom   16 type  1   force =     0.01077486   -0.00188986   -0.00837328
     atom   17 type  1   force =    -0.09856083   -0.00510871    0.04158083
     atom   18 type  1   force =    -0.00663950   -0.02057200    0.00150912
     atom   19 type  1   force =     0.04163858    0.07902010   -0.01211879
     atom   20 type  1   force =     0.02293037   -0.02168992   -0.00837882
     atom   21 type  1   force =     0.01854386   -0.01122107   -0.03401298
     atom   22 type  1   force =     0.00028136   -0.10162937   -0.03309543
     atom   23 type  1   force =     0.01897847   -0.01448633   -0.01348803
     atom   24 type  1   force =     0.07222074   -0.05076299   -0.00804277
     atom   25 type  1   force =     0.07957541   -0.00838002   -0.01926472
     atom   26 type  1   force =     0.00937468   -0.00841039    0.00010755
     atom   27 type  1   force =     0.03830443    0.02134924    0.05246314
     atom   28 type  1   force =    -0.00792445    0.01579367   -0.02031187
     atom   29 type  1   force =    -0.03353636    0.03352953    0.02633977
     atom   30 type  1   force =    -0.03085303    0.03254212   -0.00763950
     atom   31 type  1   force =     0.04428055    0.03980683   -0.04120078
     atom   32 type  1   force =     0.02225617    0.00620273   -0.00644359
     atom   33 type  1   force =    -0.03709889    0.00007725    0.04797330
     atom   34 type  1   force =    -0.01310809    0.01603359    0.01639468
     atom   35 type  1   force =     0.00118614    0.01383445   -0.03575780
     atom   36 type  1   force =     0.03726059    0.11036742   -0.02011135
     atom   37 type  1   force =     0.04788801   -0.06746814    0.05471548
     atom   38 type  1   force =     0.01989854    0.04643957    0.01486146
     atom   39 type  1   force =    -0.01549773   -0.02641522    0.00432829
     atom   40 type  1   force =    -0.00846717    0.03819345   -0.00627358
     atom   41 type  1   force =     0.05554755    0.02015516    0.00731376
     atom   42 type  1   force =    -0.03185951   -0.00097692    0.00610935
     atom   43 type  1   force =     0.04622005   -0.00093874    0.02597069
     atom   44 type  1   force =    -0.05207523   -0.04167081   -0.00643827
     atom   45 type  1   force =     0.02463892    0.02015961   -0.02361537
     atom   46 type  1   force =     0.06535571   -0.07814816   -0.02524236
     atom   47 type  1   force =    -0.05727898    0.01754833    0.00294912
     atom   48 type  1   force =    -0.02257149   -0.01743005    0.01101297
     atom   49 type  1   force =     0.00169625    0.04262060   -0.03524219
     atom   50 type  1   force =    -0.00921533    0.02026531    0.03021445
     atom   51 type  1   force =     0.02619152    0.03724831    0.05015354
     atom   52 type  1   force =    -0.01121931   -0.01900910    0.02721141
     atom   53 type  1   force =     0.02639243   -0.08928723   -0.03022622
     atom   54 type  1   force =    -0.08245377   -0.00999737   -0.05962772
     atom   55 type  1   force =    -0.05469385    0.02137851    0.01738278
     atom   56 type  1   force =    -0.04365288    0.00400665    0.00070251
     atom   57 type  1   force =     0.00583560   -0.01602018   -0.00202679
     atom   58 type  1   force =    -0.08793172    0.05250996    0.03422410
     atom   59 type  1   force =    -0.05265955    0.01927017   -0.04021457
     atom   60 type  1   force =     0.04549680   -0.06325957    0.03019182
     atom   61 type  1   force =    -0.02272182    0.00297479   -0.05847630
     atom   62 type  1   force =     0.01608648   -0.01849770   -0.01921470
     atom   63 type  1   force =    -0.01145598   -0.05534069    0.02868636
     atom   64 type  1   force =     0.00099411   -0.02374404   -0.00707724

     Total force =     0.528261     Total SCF correction =     0.001642


     Computing stress (Cartesian axis) and pressure

          total   stress  (Ry/bohr**3)                   (kbar)     P=       28.65
   0.00022892  -0.00003599  -0.00008360           33.68       -5.29      -12.30
  -0.00003599   0.00027375  -0.00001000           -5.29       40.27       -1.47
  -0.00008360  -0.00001000   0.00008160          -12.30       -1.47       12.00

 
     init_run     :      1.15s CPU      4.43s WALL (       1 calls)
     electrons    :      2.09s CPU      2.27s WALL (       1 calls)
     forces       :      0.04s CPU      0.04s WALL (       1 calls)
     stress       :      0.18s CPU      0.18s WALL (       1 calls)

     Called by init_run:
     wfcinit      :      0.63s CPU      3.74s WALL (       1 calls)
                                        3.74s GPU  (       1 calls)
     potinit      :      0.04s CPU      0.15s WALL (       1 calls)
     hinit0       :      0.45s CPU      0.47s WALL (       1 calls)

     Called by electrons:
     c_bands      :      1.28s CPU      1.36s WALL (      21 calls)
     sum_band     :      0.38s CPU      0.44s WALL (      21 calls)
     v_of_rho     :      0.18s CPU      0.29s WALL (      21 calls)
     mix_rho      :      0.20s CPU      0.22s WALL (      21 calls)

     Called by c_bands:
     init_us_2    :      0.05s CPU      0.06s WALL (      43 calls)
     init_us_2:gp :      0.05s CPU      0.06s WALL (      43 calls)
     regterg      :      1.12s CPU      1.19s WALL (      21 calls)

     Called by *egterg:
     rdiaghg      :      0.42s CPU      1.05s WALL (      86 calls)
                                        1.04s GPU  (      86 calls)
     h_psi        :      1.14s CPU      3.66s WALL (      88 calls)
                                        3.66s GPU  (      88 calls)
     g_psi        :      0.00s CPU      0.00s WALL (      66 calls)
                                        0.00s GPU  (      66 calls)

     Called by h_psi:
     h_psi:calbec :      0.60s CPU      3.04s WALL (      88 calls)
                                        3.04s GPU  (      88 calls)
     vloc_psi     :      0.49s CPU      0.56s WALL (      88 calls)
                                        0.56s GPU  (      88 calls)
     add_vuspsi   :      0.03s CPU      0.05s WALL (      88 calls)
                                        0.05s GPU  (      88 calls)

     General routines
     calbec       :      0.61s CPU      3.05s WALL (      93 calls)
     fft          :      0.61s CPU      0.75s WALL (     175 calls)
                                        0.14s GPU  (     111 calls)
     ffts         :      0.05s CPU      0.05s WALL (      21 calls)
     fftw         :      0.57s CPU      0.73s WALL (    2189 calls)
                                        0.63s GPU  (    2189 calls)
 
     Parallel routines
 
     PWSCF        :      3.49s CPU      6.99s WALL

 
   This run was terminated on:  14:13:44  10May2023            

=------------------------------------------------------------------------------=
   JOB DONE.
=------------------------------------------------------------------------------=
