An instance of this daemon is already running
An instance of this daemon is already running

     Program PWSCF v.7.1 starts on 10May2023 at 14: 2:39 

     This program is part of the open-source Quantum ESPRESSO suite
     for quantum simulation of materials; please cite
         "P. Giannozzi et al., J. Phys.:Condens. Matter 21 395502 (2009);
         "P. Giannozzi et al., J. Phys.:Condens. Matter 29 465901 (2017);
         "P. Giannozzi et al., J. Chem. Phys. 152 154105 (2020);
          URL http://www.quantum-espresso.org", 
     in publications or presentations arising from this work. More details at
     http://www.quantum-espresso.org/quote

     Parallel version (MPI & OpenMP), running on       4 processor cores
     Number of MPI processes:                 4
     Threads/MPI process:                     1

     MPI processes distributed on     1 nodes
     246473 MiB available memory on the printing compute node when the environment starts
 
     Reading input from pw-si-31.in
Warning: card &CELL ignored
Warning: card / ignored

     Current dimensions of program PWSCF are:
     Max number of different atomic species (ntypx) = 10
     Max number of k-points (npk) =  40000
     Max angular momentum in pseudopotentials (lmaxx) =  4

     IMPORTANT: XC functional enforced from input :
     Exchange-correlation= PBE
                           (   1   4   3   4   0   0   0)
     Any further DFT definition will be discarded
     Please, verify this is what you really want


     gamma-point specific algorithms are used
 
     K-points division:     npool     =       2
     R & G space division:  proc/nbgrp/npool/nimage =       2
     Subspace diagonalization in iterative solution of the eigenvalue problem:
     a serial algorithm will be used

     Message from routine divide_et_impera:
     suboptimal parallelization: some nodes have no k-points
 
     Parallelization info
     --------------------
     sticks:   dense  smooth     PW     G-vecs:    dense   smooth      PW
     Min        2234    2234    592               112010   112010   15107
     Max        2235    2235    593               112013   112013   15108
     Sum        4469    4469   1185               224023   224023   30215
 
     Using Slab Decomposition
 


     bravais-lattice index     =            0
     lattice parameter (alat)  =      21.6069  a.u.
     unit-cell volume          =   10087.3005 (a.u.)^3
     number of atoms/cell      =           64
     number of atomic types    =            1
     number of electrons       =       256.00
     number of Kohn-Sham states=          154
     kinetic-energy cutoff     =      30.0000  Ry
     charge density cutoff     =     120.0000  Ry
     scf convergence threshold =      1.0E-06
     mixing beta               =       0.5000
     number of iterations used =            8  plain     mixing
     Exchange-correlation= PBE
                           (   1   4   3   4   0   0   0)

     GPU acceleration is ACTIVE.
     GPU-aware MPI enabled

     Message from routine print_cuda_info:
     High GPU oversubscription detected. Are you sure this is what you want?

     celldm(1)=  21.606860  celldm(2)=   0.000000  celldm(3)=   0.000000
     celldm(4)=   0.000000  celldm(5)=   0.000000  celldm(6)=   0.000000

     crystal axes: (cart. coord. in units of alat)
               a(1) = (   1.000000   0.000000   0.000000 )  
               a(2) = (   0.000000   1.000000   0.000000 )  
               a(3) = (   0.000000   0.000000   1.000000 )  

     reciprocal axes: (cart. coord. in units 2 pi/alat)
               b(1) = (  1.000000  0.000000  0.000000 )  
               b(2) = (  0.000000  1.000000  0.000000 )  
               b(3) = (  0.000000  0.000000  1.000000 )  


     PseudoPot. # 1 for Si read from file:
     /home/ppiaggi/pseudos/Si_ONCV_PBE_sr.upf
     MD5 check sum: 8553c464762ac42b85b1eed164b4d029
     Pseudo is Norm-conserving, Zval =  4.0
     Generated using ONCVPSP code by D. R. Hamann
     Using radial grid of 1510 points,  4 beta functions with: 
                l(1) =   0
                l(2) =   0
                l(3) =   1
                l(4) =   1

     atomic species   valence    mass     pseudopotential
        Si             4.00    28.08500     Si( 1.00)

     No symmetry found



   Cartesian axes

     site n.     atom                  positions (alat units)
         1           Si  tau(   1) = (   0.3688030   0.2098600   0.4582120  )
         2           Si  tau(   2) = (   0.3442940   0.3952660   0.9235530  )
         3           Si  tau(   3) = (   0.1911850   0.3355010   0.8138580  )
         4           Si  tau(   4) = (   0.6799290   0.1908140   0.0932491  )
         5           Si  tau(   5) = (   0.2226360   0.2394230   0.0480607  )
         6           Si  tau(   6) = (   0.7712180   0.6340740   0.3940770  )
         7           Si  tau(   7) = (   0.4160870   0.4353260   0.1243050  )
         8           Si  tau(   8) = (   0.0362446   0.7144250   0.3598720  )
         9           Si  tau(   9) = (   0.7374630   0.3854930   0.0334295  )
        10           Si  tau(  10) = (   0.9718070   0.9525300   0.6305720  )
        11           Si  tau(  11) = (   0.7593170   0.9487680   0.9319210  )
        12           Si  tau(  12) = (   0.2691130   0.9339860   0.8313710  )
        13           Si  tau(  13) = (   0.1069700   0.4140530   0.6529220  )
        14           Si  tau(  14) = (   0.4551560   0.6758210   0.8887980  )
        15           Si  tau(  15) = (   0.7970020   0.6866580   0.1987420  )
        16           Si  tau(  16) = (   0.8643910   0.0997946   0.0670238  )
        17           Si  tau(  17) = (   0.5190410   0.1609890   0.6199480  )
        18           Si  tau(  18) = (   0.3536470   0.2412780   0.2461160  )
        19           Si  tau(  19) = (   0.1932350   0.1438100   0.8291570  )
        20           Si  tau(  20) = (   0.4357350   0.8538980   0.2782190  )
        21           Si  tau(  21) = (   0.1270730   0.6588930   0.1886960  )
        22           Si  tau(  22) = (   0.2852620   0.5703500   0.5965210  )
        23           Si  tau(  23) = (   0.2047480   0.4420600   0.4634360  )
        24           Si  tau(  24) = (   0.5879840   0.8093430   0.8111240  )
        25           Si  tau(  25) = (   0.9475440   0.3532000   0.5477870  )
        26           Si  tau(  26) = (   0.9384350   0.4035970   0.0660910  )
        27           Si  tau(  27) = (   0.5926210   0.5385550   0.0620706  )
        28           Si  tau(  28) = (   0.6637980   0.1065210   0.4485000  )
        29           Si  tau(  29) = (   0.7398200   0.3302500   0.6304830  )
        30           Si  tau(  30) = (   0.3483990   0.6113070   0.2196720  )
        31           Si  tau(  31) = (   0.7980980   0.0189471   0.7113570  )
        32           Si  tau(  32) = (   0.3037140   0.7990250   0.6060980  )
        33           Si  tau(  33) = (   0.6031370   0.9772340   0.6623520  )
        34           Si  tau(  34) = (   0.1334470   0.8413720   0.7039770  )
        35           Si  tau(  35) = (   0.2112280   0.5663110   0.8333670  )
        36           Si  tau(  36) = (   0.7032890   0.3186910   0.4045280  )
        37           Si  tau(  37) = (   0.6752610   0.5723540   0.9009470  )
        38           Si  tau(  38) = (   0.2421150   0.0359961   0.0262413  )
        39           Si  tau(  39) = (   0.8619880   0.8270070   0.3379980  )
        40           Si  tau(  40) = (   0.5563680   0.2134400   0.2838660  )
        41           Si  tau(  41) = (   0.0960945   0.3904050   0.1684390  )
        42           Si  tau(  42) = (   0.5751590   0.7394910   0.4187640  )
        43           Si  tau(  43) = (   0.5630220   0.7527930   0.1328840  )
        44           Si  tau(  44) = (   0.0103224   0.2257580   0.1665120  )
        45           Si  tau(  45) = (   0.0858245   0.6307990   0.6930050  )
        46           Si  tau(  46) = (   0.8879670   0.6817820   0.7628900  )
        47           Si  tau(  47) = (   0.2416380   0.7947680   0.3424240  )
        48           Si  tau(  48) = (   0.4077290   0.4221730   0.4957190  )
        49           Si  tau(  49) = (   0.1751820   0.8696240   0.1276280  )
        50           Si  tau(  50) = (   0.8924430   0.8811190   0.8134520  )
        51           Si  tau(  51) = (   0.2518030   0.7472530   0.9266510  )
        52           Si  tau(  52) = (   0.5918560   0.0355486   0.8367390  )
        53           Si  tau(  53) = (   0.9014530   0.2165230   0.3652110  )
        54           Si  tau(  54) = (   0.7826840   0.8818750   0.1216260  )
        55           Si  tau(  55) = (   0.2082160   0.0134698   0.2431470  )
        56           Si  tau(  56) = (   0.8149980   0.4996240   0.6084750  )
        57           Si  tau(  57) = (   0.5643180   0.7959400   0.6164700  )
        58           Si  tau(  58) = (   0.5878520   0.4631540   0.5807290  )
        59           Si  tau(  59) = (   0.8495260   0.0307861   0.4454610  )
        60           Si  tau(  60) = (   0.3216590   0.0146751   0.4003610  )
        61           Si  tau(  61) = (   0.3363990   0.2051830   0.7053250  )
        62           Si  tau(  62) = (   0.9552330   0.6257300   0.0849786  )
        63           Si  tau(  63) = (   0.5071330   0.5035030   0.7867700  )
        64           Si  tau(  64) = (   0.8061140   0.3907180   0.2457210  )

     number of k points=     1  Fermi-Dirac smearing, width (Ry)=  0.0100
                       cart. coord. in units 2pi/alat
        k(    1) = (   0.0000000   0.0000000   0.0000000), wk =   2.0000000

     Dense  grid:   112012 G-vectors     FFT dimensions: (  75,  75,  75)

     Estimated max dynamical RAM per process >     177.86 MB

     Estimated total dynamical RAM >     684.10 MB

     Initial potential from superposition of free atoms

     starting charge     255.9608, renormalised to     256.0000
     Starting wfcs are  256 randomized atomic wfcs

     total cpu time spent up to now is        4.2 secs

     Self-consistent Calculation

     iteration #  1     ecut=    30.00 Ry     beta= 0.50
     Davidson diagonalization with overlap
     ethr =  1.00E-02,  avg # of iterations =  3.0

     Threshold (ethr) on eigenvalues was too large:
     Diagonalizing with lowered threshold

     Davidson diagonalization with overlap
     ethr =  6.96E-04,  avg # of iterations =  4.0

     total cpu time spent up to now is        4.4 secs

     total energy              =    -499.91469164 Ry
     estimated scf accuracy    <       2.28000214 Ry

     iteration #  2     ecut=    30.00 Ry     beta= 0.50
     Davidson diagonalization with overlap
     ethr =  8.91E-04,  avg # of iterations =  3.0

     total cpu time spent up to now is        4.6 secs

     total energy              =    -499.24939438 Ry
     estimated scf accuracy    <       7.17456549 Ry

     iteration #  3     ecut=    30.00 Ry     beta= 0.50
     Davidson diagonalization with overlap
     ethr =  8.91E-04,  avg # of iterations =  4.0

     total cpu time spent up to now is        4.7 secs

     total energy              =    -499.98294748 Ry
     estimated scf accuracy    <       5.77005274 Ry

     iteration #  4     ecut=    30.00 Ry     beta= 0.50
     Davidson diagonalization with overlap
     ethr =  8.91E-04,  avg # of iterations =  2.0

     total cpu time spent up to now is        4.8 secs

     total energy              =    -500.35568759 Ry
     estimated scf accuracy    <       0.77605312 Ry

     iteration #  5     ecut=    30.00 Ry     beta= 0.50
     Davidson diagonalization with overlap
     ethr =  3.03E-04,  avg # of iterations =  2.0

     total cpu time spent up to now is        4.9 secs

     total energy              =    -500.40911128 Ry
     estimated scf accuracy    <       0.68914044 Ry

     iteration #  6     ecut=    30.00 Ry     beta= 0.50
     Davidson diagonalization with overlap
     ethr =  2.69E-04,  avg # of iterations =  2.0

     total cpu time spent up to now is        5.0 secs

     total energy              =    -500.46386172 Ry
     estimated scf accuracy    <       0.13375704 Ry

     iteration #  7     ecut=    30.00 Ry     beta= 0.50
     Davidson diagonalization with overlap
     ethr =  5.22E-05,  avg # of iterations =  2.0

     total cpu time spent up to now is        5.1 secs

     total energy              =    -500.47568187 Ry
     estimated scf accuracy    <       0.06824533 Ry

     iteration #  8     ecut=    30.00 Ry     beta= 0.50
     Davidson diagonalization with overlap
     ethr =  2.67E-05,  avg # of iterations =  2.0

     total cpu time spent up to now is        5.2 secs

     total energy              =    -500.48147815 Ry
     estimated scf accuracy    <       0.04528396 Ry

     iteration #  9     ecut=    30.00 Ry     beta= 0.50
     Davidson diagonalization with overlap
     ethr =  1.77E-05,  avg # of iterations =  1.0

     total cpu time spent up to now is        5.3 secs

     total energy              =    -500.48480434 Ry
     estimated scf accuracy    <       0.00617998 Ry

     iteration # 10     ecut=    30.00 Ry     beta= 0.50
     Davidson diagonalization with overlap
     ethr =  2.41E-06,  avg # of iterations = 20.0

     total cpu time spent up to now is        5.5 secs

     total energy              =    -500.48519712 Ry
     estimated scf accuracy    <       0.01247237 Ry

     iteration # 11     ecut=    30.00 Ry     beta= 0.50
     Davidson diagonalization with overlap
     ethr =  2.41E-06,  avg # of iterations =  2.0

     total cpu time spent up to now is        5.6 secs

     total energy              =    -500.48605533 Ry
     estimated scf accuracy    <       0.00066507 Ry

     iteration # 12     ecut=    30.00 Ry     beta= 0.50
     Davidson diagonalization with overlap
     ethr =  2.60E-07,  avg # of iterations =  4.0

     total cpu time spent up to now is        5.8 secs

     total energy              =    -500.48615418 Ry
     estimated scf accuracy    <       0.00058838 Ry

     iteration # 13     ecut=    30.00 Ry     beta= 0.50
     Davidson diagonalization with overlap
     ethr =  2.30E-07,  avg # of iterations =  2.0

     total cpu time spent up to now is        5.9 secs

     total energy              =    -500.48620661 Ry
     estimated scf accuracy    <       0.00035024 Ry

     iteration # 14     ecut=    30.00 Ry     beta= 0.50
     Davidson diagonalization with overlap
     ethr =  1.37E-07,  avg # of iterations =  2.0

     total cpu time spent up to now is        6.0 secs

     total energy              =    -500.48623225 Ry
     estimated scf accuracy    <       0.00006481 Ry

     iteration # 15     ecut=    30.00 Ry     beta= 0.50
     Davidson diagonalization with overlap
     ethr =  2.53E-08,  avg # of iterations =  2.0

     total cpu time spent up to now is        6.1 secs

     total energy              =    -500.48623795 Ry
     estimated scf accuracy    <       0.00005741 Ry

     iteration # 16     ecut=    30.00 Ry     beta= 0.50
     Davidson diagonalization with overlap
     ethr =  2.24E-08,  avg # of iterations =  2.0

     total cpu time spent up to now is        6.2 secs

     total energy              =    -500.48624166 Ry
     estimated scf accuracy    <       0.00002845 Ry

     iteration # 17     ecut=    30.00 Ry     beta= 0.50
     Davidson diagonalization with overlap
     ethr =  1.11E-08,  avg # of iterations =  1.0

     total cpu time spent up to now is        6.3 secs

     total energy              =    -500.48624375 Ry
     estimated scf accuracy    <       0.00000536 Ry

     iteration # 18     ecut=    30.00 Ry     beta= 0.50
     Davidson diagonalization with overlap
     ethr =  2.09E-09,  avg # of iterations =  4.0

     total cpu time spent up to now is        6.4 secs

     total energy              =    -500.48624409 Ry
     estimated scf accuracy    <       0.00001370 Ry

     iteration # 19     ecut=    30.00 Ry     beta= 0.50
     Davidson diagonalization with overlap
     ethr =  2.09E-09,  avg # of iterations =  2.0

     total cpu time spent up to now is        6.5 secs

     total energy              =    -500.48624488 Ry
     estimated scf accuracy    <       0.00000129 Ry

     iteration # 20     ecut=    30.00 Ry     beta= 0.50
     Davidson diagonalization with overlap
     ethr =  5.03E-10,  avg # of iterations =  4.0

     total cpu time spent up to now is        6.6 secs

     End of self-consistent calculation

          k = 0.0000 0.0000 0.0000 ( 14009 PWs)   bands (ev):

    -7.4955  -7.2264  -6.9448  -6.7503  -6.6296  -6.4673  -6.3337  -6.1130
    -6.0314  -5.8506  -5.6600  -5.4300  -5.2859  -5.1664  -5.0081  -4.9729
    -4.8164  -4.7309  -4.5939  -4.4349  -4.2390  -4.0701  -3.9878  -3.8473
    -3.7106  -3.4410  -3.3125  -3.2930  -3.1943  -3.0294  -2.9584  -2.8510
    -2.7608  -2.5842  -2.3842  -2.3226  -2.3019  -2.1423  -2.0266  -1.9105
    -1.8661  -1.7435  -1.6330  -1.5328  -1.4537  -1.3325  -1.2271  -1.1685
    -1.0226  -0.9297  -0.7691  -0.7009  -0.6219  -0.5713  -0.3677  -0.2848
    -0.1984  -0.1005   0.0582   0.0993   0.2204   0.3008   0.5607   0.6158
     0.6926   0.7954   0.8484   0.8867   1.0845   1.1180   1.2666   1.2824
     1.3291   1.3649   1.4843   1.5484   1.6137   1.7673   1.8107   1.8741
     1.8984   1.9604   2.0608   2.1110   2.1352   2.2861   2.3310   2.3390
     2.4654   2.5723   2.5798   2.6423   2.6922   2.7210   2.7487   2.8162
     2.8543   2.8648   2.9707   3.0372   3.1542   3.1732   3.2053   3.2816
     3.3401   3.3957   3.4876   3.5442   3.5623   3.7195   3.8116   3.8227
     3.8544   3.9512   3.9597   4.0428   4.1076   4.1650   4.2784   4.2917
     4.4396   4.4855   4.5364   4.5909   4.6180   4.6837   4.7077   4.8105
     4.8609   4.8988   5.0118   5.0182   5.1170   5.1223   5.1797   5.2509
     5.3579   5.3729   5.5105   5.5179   5.5589   5.5761   5.6739   5.7406
     5.7626   5.8830   5.8977   6.0253   6.0539   6.1318   6.2570   6.2793
     6.3150   6.3775

     the Fermi energy is     4.8298 ev

!    total energy              =    -500.48624454 Ry
     estimated scf accuracy    <       0.00000075 Ry
     smearing contrib. (-TS)   =      -0.15417250 Ry
     internal energy E=F+TS    =    -500.33207203 Ry

     The total energy is F=E-TS. E is the sum of the following terms:
     one-electron contribution =      42.19760366 Ry
     hartree contribution      =      75.47387230 Ry
     xc contribution           =    -149.55354980 Ry
     ewald contribution        =    -468.44999819 Ry

     convergence has been achieved in  20 iterations

     Forces acting on atoms (cartesian axes, Ry/au):

     atom    1 type  1   force =     0.00482918    0.01472782    0.03645449
     atom    2 type  1   force =     0.03917071    0.05459816    0.00148763
     atom    3 type  1   force =    -0.00280915    0.03851250   -0.00554913
     atom    4 type  1   force =    -0.00261872    0.01874532    0.02394605
     atom    5 type  1   force =     0.00557379    0.02595119    0.01665771
     atom    6 type  1   force =    -0.02757788    0.01555276    0.02986360
     atom    7 type  1   force =    -0.01636995   -0.01130268    0.01257326
     atom    8 type  1   force =     0.00836459    0.00759082    0.02823355
     atom    9 type  1   force =    -0.02047612   -0.01617676    0.01039790
     atom   10 type  1   force =     0.00763523    0.01595677   -0.02051860
     atom   11 type  1   force =    -0.03272737    0.02842962    0.01560781
     atom   12 type  1   force =     0.00519975    0.00806894   -0.01143220
     atom   13 type  1   force =    -0.00033850    0.03139672   -0.03464376
     atom   14 type  1   force =    -0.04567961    0.01427749    0.02210821
     atom   15 type  1   force =    -0.03719780   -0.00427749   -0.02894407
     atom   16 type  1   force =    -0.01693037   -0.03315797    0.00762167
     atom   17 type  1   force =     0.01808275    0.02072530   -0.02365427
     atom   18 type  1   force =    -0.00195153    0.02467305   -0.02161659
     atom   19 type  1   force =    -0.01438132   -0.10823215    0.01510582
     atom   20 type  1   force =     0.00660861   -0.02385418    0.01253795
     atom   21 type  1   force =     0.04317777   -0.00858756   -0.00795621
     atom   22 type  1   force =     0.01410153    0.04424080    0.04421173
     atom   23 type  1   force =    -0.03873589   -0.01790370   -0.02940295
     atom   24 type  1   force =     0.03031456    0.00903111    0.04460085
     atom   25 type  1   force =    -0.02472959   -0.02626547   -0.02263208
     atom   26 type  1   force =    -0.05488080    0.04194503   -0.04327608
     atom   27 type  1   force =    -0.05867072    0.00031651    0.13252341
     atom   28 type  1   force =    -0.04694858    0.01994993   -0.00240415
     atom   29 type  1   force =    -0.04141581   -0.12845317   -0.00001611
     atom   30 type  1   force =    -0.01767024    0.02938863    0.00334501
     atom   31 type  1   force =    -0.04819574    0.06787678   -0.02028452
     atom   32 type  1   force =     0.06657957   -0.01925021   -0.04082467
     atom   33 type  1   force =     0.00911111    0.00642928   -0.13623086
     atom   34 type  1   force =    -0.00728357    0.01329202    0.02232914
     atom   35 type  1   force =     0.04567050   -0.02264361    0.01911770
     atom   36 type  1   force =    -0.02374847   -0.00766737    0.02865947
     atom   37 type  1   force =     0.05919699    0.02027027   -0.13520985
     atom   38 type  1   force =    -0.00039620   -0.01668511   -0.02466541
     atom   39 type  1   force =     0.00868272    0.04089649    0.01197528
     atom   40 type  1   force =     0.03017183   -0.01992733   -0.00879430
     atom   41 type  1   force =     0.15502456    0.09121302    0.04154858
     atom   42 type  1   force =     0.02365395   -0.02191992   -0.01484266
     atom   43 type  1   force =     0.01373841   -0.01068530    0.00216110
     atom   44 type  1   force =    -0.07088420   -0.12272200    0.02925723
     atom   45 type  1   force =    -0.04620669   -0.00002951   -0.00842138
     atom   46 type  1   force =    -0.00934282   -0.05671970   -0.00937656
     atom   47 type  1   force =    -0.00260113    0.00729081    0.03320713
     atom   48 type  1   force =    -0.00994990   -0.00757599   -0.01182513
     atom   49 type  1   force =    -0.03459489   -0.09773963   -0.06278919
     atom   50 type  1   force =     0.08430569   -0.08789298   -0.02284047
     atom   51 type  1   force =     0.03475485    0.00180249    0.00592432
     atom   52 type  1   force =    -0.02896598    0.03640967    0.14078453
     atom   53 type  1   force =     0.01832091    0.01969907    0.00002202
     atom   54 type  1   force =    -0.01363334    0.00339581    0.03770293
     atom   55 type  1   force =    -0.01790566    0.07260894    0.02099572
     atom   56 type  1   force =     0.04495992    0.15317578   -0.01382872
     atom   57 type  1   force =    -0.06542414   -0.04599782   -0.05156991
     atom   58 type  1   force =     0.00206176    0.01778967    0.01847748
     atom   59 type  1   force =     0.04716081   -0.04724671    0.01067912
     atom   60 type  1   force =     0.03595762   -0.03280675    0.03256594
     atom   61 type  1   force =    -0.00314429    0.02023746   -0.03222694
     atom   62 type  1   force =     0.01110096   -0.02754450   -0.03859323
     atom   63 type  1   force =     0.00317363   -0.02312088    0.00267969
     atom   64 type  1   force =     0.00770269    0.00992044   -0.03099401

     Total force =     0.584954     Total SCF correction =     0.001514


     Computing stress (Cartesian axis) and pressure

          total   stress  (Ry/bohr**3)                   (kbar)     P=       -3.70
   0.00001973   0.00003465   0.00000795            2.90        5.10        1.17
   0.00003465  -0.00000560   0.00000458            5.10       -0.82        0.67
   0.00000795   0.00000458  -0.00008961            1.17        0.67      -13.18

 
     init_run     :      0.61s CPU      4.14s WALL (       1 calls)
     electrons    :      2.20s CPU      2.39s WALL (       1 calls)
     forces       :      0.03s CPU      0.04s WALL (       1 calls)
     stress       :      0.16s CPU      0.17s WALL (       1 calls)

     Called by init_run:
     wfcinit      :      0.42s CPU      3.80s WALL (       1 calls)
                                        3.80s GPU  (       1 calls)
     potinit      :      0.03s CPU      0.11s WALL (       1 calls)
     hinit0       :      0.13s CPU      0.16s WALL (       1 calls)

     Called by electrons:
     c_bands      :      1.43s CPU      1.52s WALL (      21 calls)
     sum_band     :      0.39s CPU      0.45s WALL (      21 calls)
     v_of_rho     :      0.16s CPU      0.25s WALL (      21 calls)
     mix_rho      :      0.19s CPU      0.20s WALL (      21 calls)

     Called by c_bands:
     init_us_2    :      0.05s CPU      0.06s WALL (      43 calls)
     init_us_2:gp :      0.05s CPU      0.06s WALL (      43 calls)
     regterg      :      1.26s CPU      1.34s WALL (      21 calls)

     Called by *egterg:
     rdiaghg      :      0.42s CPU      1.11s WALL (      90 calls)
                                        1.09s GPU  (      90 calls)
     h_psi        :      1.08s CPU      3.82s WALL (      92 calls)
                                        3.82s GPU  (      92 calls)
     g_psi        :      0.00s CPU      0.00s WALL (      70 calls)
                                        0.00s GPU  (      70 calls)

     Called by h_psi:
     h_psi:calbec :      0.40s CPU      3.05s WALL (      92 calls)
                                        3.05s GPU  (      92 calls)
     vloc_psi     :      0.63s CPU      0.70s WALL (      92 calls)
                                        0.70s GPU  (      92 calls)
     add_vuspsi   :      0.03s CPU      0.06s WALL (      92 calls)
                                        0.06s GPU  (      92 calls)

     General routines
     calbec       :      0.40s CPU      3.06s WALL (      97 calls)
     fft          :      0.27s CPU      0.40s WALL (     175 calls)
                                        0.11s GPU  (     111 calls)
     ffts         :      0.04s CPU      0.05s WALL (      21 calls)
     fftw         :      0.70s CPU      0.89s WALL (    2195 calls)
                                        0.81s GPU  (    2195 calls)
 
     Parallel routines
 
     PWSCF        :      3.04s CPU      6.81s WALL

 
   This run was terminated on:  14: 2:46  10May2023            

=------------------------------------------------------------------------------=
   JOB DONE.
=------------------------------------------------------------------------------=
