-6822.627513189008
-6821.976438516323
-6819.664450361512
-6818.230061717912
-6817.217518369031
-6816.5455439929665
-6817.232269524166
-6817.654247746495
-6816.854380682605
-6816.427278556695
-6816.3689344924915
-6816.797166979287
-6816.104949102367
-6816.688443350825
-6817.210300005232
-6816.297282020724
-6816.43150489278
-6817.159642204572
-6817.936175370741
-6818.959682186182
-6819.16838737787
-6817.675911953702
-6815.907597860598
-6815.989923453459
-6816.520688570717
-6816.509444010561
-6816.15296222863
-6815.296052757083
-6814.8794142246115
-6814.263879387994
-6813.645627086527
-6814.068071711974
-6814.4327192220335
-6813.644296177742
-6812.943554470884
-6813.58825705381
-6814.106397041352
-6815.157704775291
-6815.484688600772
-6814.655417051533
-6814.313810508647
-6814.486921713613
-6813.979033887055
-6813.212558592591
-6813.724750307678
-6813.970338625399
-6814.031297839648
-6815.0451591719075
-6815.299554454015
-6813.605052736273
-6813.732836986735
-6814.883363820923
-6814.02058118034
-6813.355349377027
-6813.837581902706
-6814.561012597488
-6813.538347974378
-6814.916299255441
-6816.044682962065
-6815.10829026276
-6814.365941397572
-6813.2573021350245
-6812.4182527192215
-6812.098673927632
-6812.336385638179
-6812.64777842916
-6813.129272165766
-6812.820478470115
-6812.7493296810635
-6813.005714659561
-6812.182619006004
-6810.923569907594
-6810.743630414019
-6811.837503010942
-6813.487872217876
-6813.615219181399
-6813.7478790315645
-6814.967192978799
-6815.306988740145
-6815.005596268791
-6814.328934323686
-6813.764733218504
-6814.837530054395
-6816.364093451245
-6815.8797308184385
-6814.687450292619
-6814.405714644686
-6815.098091163973
-6816.152775966707
-6816.504237520429
-6815.7754855034755
-6814.510040777459
-6814.911846792756
-6816.445728419183
-6816.971759027762
-6818.263106678251
-6819.690113961863
-6819.229272985327
-6817.98566593909
-6817.268532910932
-6817.36508230231
