An instance of this daemon is already running

     Program PWSCF v.7.1 starts on 11May2023 at  9:56:44 

     This program is part of the open-source Quantum ESPRESSO suite
     for quantum simulation of materials; please cite
         "P. Giannozzi et al., J. Phys.:Condens. Matter 21 395502 (2009);
         "P. Giannozzi et al., J. Phys.:Condens. Matter 29 465901 (2017);
         "P. Giannozzi et al., J. Chem. Phys. 152 154105 (2020);
          URL http://www.quantum-espresso.org", 
     in publications or presentations arising from this work. More details at
     http://www.quantum-espresso.org/quote

     Parallel version (MPI & OpenMP), running on       4 processor cores
     Number of MPI processes:                 4
     Threads/MPI process:                     1

     MPI processes distributed on     1 nodes
     259890 MiB available memory on the printing compute node when the environment starts
 
     Reading input from pw-si-84.in
Warning: card &CELL ignored
Warning: card / ignored

     Current dimensions of program PWSCF are:
     Max number of different atomic species (ntypx) = 10
     Max number of k-points (npk) =  40000
     Max angular momentum in pseudopotentials (lmaxx) =  4

     IMPORTANT: XC functional enforced from input :
     Exchange-correlation= PBE
                           (   1   4   3   4   0   0   0)
     Any further DFT definition will be discarded
     Please, verify this is what you really want


     gamma-point specific algorithms are used
 
     K-points division:     npool     =       2
     R & G space division:  proc/nbgrp/npool/nimage =       2
     Subspace diagonalization in iterative solution of the eigenvalue problem:
     a serial algorithm will be used

     Message from routine divide_et_impera:
     suboptimal parallelization: some nodes have no k-points
 
     Parallelization info
     --------------------
     sticks:   dense  smooth     PW     G-vecs:    dense   smooth      PW
     Min        1975    1975    519                93429    93429   12703
     Max        1978    1978    522                93434    93434   12710
     Sum        3953    3953   1041               186863   186863   25413
 
     Using Slab Decomposition
 


     bravais-lattice index     =            0
     lattice parameter (alat)  =      20.3403  a.u.
     unit-cell volume          =    8415.3797 (a.u.)^3
     number of atoms/cell      =           64
     number of atomic types    =            1
     number of electrons       =       256.00
     number of Kohn-Sham states=          154
     kinetic-energy cutoff     =      30.0000  Ry
     charge density cutoff     =     120.0000  Ry
     scf convergence threshold =      1.0E-06
     mixing beta               =       0.5000
     number of iterations used =            8  plain     mixing
     Exchange-correlation= PBE
                           (   1   4   3   4   0   0   0)

     GPU acceleration is ACTIVE.
     GPU-aware MPI enabled

     Message from routine print_cuda_info:
     High GPU oversubscription detected. Are you sure this is what you want?

     celldm(1)=  20.340326  celldm(2)=   0.000000  celldm(3)=   0.000000
     celldm(4)=   0.000000  celldm(5)=   0.000000  celldm(6)=   0.000000

     crystal axes: (cart. coord. in units of alat)
               a(1) = (   1.000000   0.000000   0.000000 )  
               a(2) = (   0.000000   1.000000   0.000000 )  
               a(3) = (   0.000000   0.000000   1.000000 )  

     reciprocal axes: (cart. coord. in units 2 pi/alat)
               b(1) = (  1.000000  0.000000  0.000000 )  
               b(2) = (  0.000000  1.000000  0.000000 )  
               b(3) = (  0.000000  0.000000  1.000000 )  


     PseudoPot. # 1 for Si read from file:
     /home/ppiaggi/pseudos/Si_ONCV_PBE_sr.upf
     MD5 check sum: 8553c464762ac42b85b1eed164b4d029
     Pseudo is Norm-conserving, Zval =  4.0
     Generated using ONCVPSP code by D. R. Hamann
     Using radial grid of 1510 points,  4 beta functions with: 
                l(1) =   0
                l(2) =   0
                l(3) =   1
                l(4) =   1

     atomic species   valence    mass     pseudopotential
        Si             4.00    28.08500     Si( 1.00)

     No symmetry found



   Cartesian axes

     site n.     atom                  positions (alat units)
         1           Si  tau(   1) = (   0.1257580   0.3088060   0.5602960  )
         2           Si  tau(   2) = (   0.2988920   0.9114480   0.4500830  )
         3           Si  tau(   3) = (   0.7414650   0.3992690   0.8896110  )
         4           Si  tau(   4) = (   0.4660200   0.1010410   0.1375910  )
         5           Si  tau(   5) = (   0.4124550   0.1518030   0.9318020  )
         6           Si  tau(   6) = (   0.3201260   0.1028390   0.3128950  )
         7           Si  tau(   7) = (   0.2011710   0.0539104   0.6128890  )
         8           Si  tau(   8) = (   0.6832970   0.1586370   0.1422810  )
         9           Si  tau(   9) = (   0.5294450   0.9513020   0.7028620  )
        10           Si  tau(  10) = (   0.0836035   0.1848920   0.3470920  )
        11           Si  tau(  11) = (   0.2166380   0.5692350   0.3686400  )
        12           Si  tau(  12) = (   0.8447150   0.6221810   0.0462547  )
        13           Si  tau(  13) = (   0.6828820   0.6768030   0.8157910  )
        14           Si  tau(  14) = (   0.8783230   0.2410010   0.4239250  )
        15           Si  tau(  15) = (   0.3763220   0.7648580   0.7133380  )
        16           Si  tau(  16) = (   0.4110350   0.7015550   0.5123090  )
        17           Si  tau(  17) = (   0.5465620   0.6523990   0.9964730  )
        18           Si  tau(  18) = (   0.0251077   0.1746870   0.9576060  )
        19           Si  tau(  19) = (   0.5242410   0.4465190   0.4474940  )
        20           Si  tau(  20) = (   0.9563670   0.3436240   0.2188330  )
        21           Si  tau(  21) = (   0.6493670   0.9539060   0.5434730  )
        22           Si  tau(  22) = (   0.9049570   0.7605900   0.7952500  )
        23           Si  tau(  23) = (   0.9620830   0.1805860   0.6760490  )
        24           Si  tau(  24) = (   0.6715150   0.7405940   0.1614240  )
        25           Si  tau(  25) = (   0.8624080   0.0154256   0.3343250  )
        26           Si  tau(  26) = (   0.8901000   0.5753550   0.2416860  )
        27           Si  tau(  27) = (   0.6731300   0.9639320   0.2556140  )
        28           Si  tau(  28) = (   0.1657430   0.2308940   0.0988002  )
        29           Si  tau(  29) = (   0.5013170   0.0110018   0.3951940  )
        30           Si  tau(  30) = (   0.8163190   0.7474180   0.5419120  )
        31           Si  tau(  31) = (   0.5250010   0.3594150   0.9666400  )
        32           Si  tau(  32) = (   0.1138070   0.6651020   0.1973190  )
        33           Si  tau(  33) = (   0.3536400   0.8041370   0.9481760  )
        34           Si  tau(  34) = (   0.0668556   0.5799810   0.7869120  )
        35           Si  tau(  35) = (   0.6474590   0.7535880   0.4029260  )
        36           Si  tau(  36) = (   0.0663767   0.6993860   0.4804600  )
        37           Si  tau(  37) = (   0.1542120   0.7835500   0.6845880  )
        38           Si  tau(  38) = (   0.9757470   0.9441200   0.9725350  )
        39           Si  tau(  39) = (   0.6146810   0.6587200   0.6108250  )
        40           Si  tau(  40) = (   0.9985190   0.9064030   0.5324710  )
        41           Si  tau(  41) = (   0.8143130   0.0420769   0.7815470  )
        42           Si  tau(  42) = (   0.4938410   0.6348260   0.3329410  )
        43           Si  tau(  43) = (   0.3029860   0.3517430   0.2086760  )
        44           Si  tau(  44) = (   0.8469660   0.2634240   0.0394057  )
        45           Si  tau(  45) = (   0.0716731   0.8508600   0.3067810  )
        46           Si  tau(  46) = (   0.8143510   0.0874806   0.5417720  )
        47           Si  tau(  47) = (   0.2949710   0.2739200   0.4309880  )
        48           Si  tau(  48) = (   0.5485400   0.3831620   0.1785520  )
        49           Si  tau(  49) = (   0.4323120   0.3088790   0.6012570  )
        50           Si  tau(  50) = (   0.8828820   0.5325580   0.4934340  )
        51           Si  tau(  51) = (   0.4178430   0.5264940   0.6815520  )
        52           Si  tau(  52) = (   0.7599340   0.2800640   0.6407610  )
        53           Si  tau(  53) = (   0.8290630   0.8484690   0.0743050  )
        54           Si  tau(  54) = (   0.3693270   0.1109470   0.7134600  )
        55           Si  tau(  55) = (   0.4076960   0.5974820   0.1438020  )
        56           Si  tau(  56) = (   0.3111960   0.3684920   0.8674390  )
        57           Si  tau(  57) = (   0.6972640   0.8923830   0.8824500  )
        58           Si  tau(  58) = (   0.2580530   0.5313060   0.0311226  )
        59           Si  tau(  59) = (   0.1523980   0.8121960   0.0411301  )
        60           Si  tau(  60) = (   0.0917466   0.3652210   0.8080450  )
        61           Si  tau(  61) = (   0.2465590   0.0225774   0.0152372  )
        62           Si  tau(  62) = (   0.6828200   0.4837480   0.3185860  )
        63           Si  tau(  63) = (   0.0352453   0.5479220   0.9849340  )
        64           Si  tau(  64) = (   0.7325880   0.4917690   0.6850700  )

     number of k points=     1  Fermi-Dirac smearing, width (Ry)=  0.0100
                       cart. coord. in units 2pi/alat
        k(    1) = (   0.0000000   0.0000000   0.0000000), wk =   2.0000000

     Dense  grid:    93432 G-vectors     FFT dimensions: (  72,  72,  72)

     Estimated max dynamical RAM per process >     149.45 MB

     Estimated total dynamical RAM >     574.97 MB

     Initial potential from superposition of free atoms

     starting charge     255.9608, renormalised to     256.0000
     Starting wfcs are  256 randomized atomic wfcs

     total cpu time spent up to now is        4.6 secs

     Self-consistent Calculation

     iteration #  1     ecut=    30.00 Ry     beta= 0.50
     Davidson diagonalization with overlap
     ethr =  1.00E-02,  avg # of iterations =  3.0

     Threshold (ethr) on eigenvalues was too large:
     Diagonalizing with lowered threshold

     Davidson diagonalization with overlap
     ethr =  6.26E-04,  avg # of iterations =  4.0

     total cpu time spent up to now is        4.8 secs

     total energy              =    -500.32603733 Ry
     estimated scf accuracy    <       2.04730682 Ry

     iteration #  2     ecut=    30.00 Ry     beta= 0.50
     Davidson diagonalization with overlap
     ethr =  8.00E-04,  avg # of iterations =  5.0

     total cpu time spent up to now is        4.9 secs

     total energy              =    -499.04737408 Ry
     estimated scf accuracy    <      19.46391165 Ry

     iteration #  3     ecut=    30.00 Ry     beta= 0.50
     Davidson diagonalization with overlap
     ethr =  8.00E-04,  avg # of iterations =  4.0

     total cpu time spent up to now is        5.1 secs

     total energy              =    -500.66722981 Ry
     estimated scf accuracy    <       2.55302557 Ry

     iteration #  4     ecut=    30.00 Ry     beta= 0.50
     Davidson diagonalization with overlap
     ethr =  8.00E-04,  avg # of iterations =  2.0

     total cpu time spent up to now is        5.1 secs

     total energy              =    -500.84530159 Ry
     estimated scf accuracy    <       0.77306094 Ry

     iteration #  5     ecut=    30.00 Ry     beta= 0.50
     Davidson diagonalization with overlap
     ethr =  3.02E-04,  avg # of iterations =  2.0

     total cpu time spent up to now is        5.2 secs

     total energy              =    -500.88460386 Ry
     estimated scf accuracy    <       0.61692061 Ry

     iteration #  6     ecut=    30.00 Ry     beta= 0.50
     Davidson diagonalization with overlap
     ethr =  2.41E-04,  avg # of iterations =  2.0

     total cpu time spent up to now is        5.3 secs

     total energy              =    -500.93956626 Ry
     estimated scf accuracy    <       0.11074309 Ry

     iteration #  7     ecut=    30.00 Ry     beta= 0.50
     Davidson diagonalization with overlap
     ethr =  4.33E-05,  avg # of iterations =  2.0

     total cpu time spent up to now is        5.4 secs

     total energy              =    -500.94945769 Ry
     estimated scf accuracy    <       0.05574569 Ry

     iteration #  8     ecut=    30.00 Ry     beta= 0.50
     Davidson diagonalization with overlap
     ethr =  2.18E-05,  avg # of iterations =  3.0

     total cpu time spent up to now is        5.5 secs

     total energy              =    -500.95490141 Ry
     estimated scf accuracy    <       0.02769050 Ry

     iteration #  9     ecut=    30.00 Ry     beta= 0.50
     Davidson diagonalization with overlap
     ethr =  1.08E-05,  avg # of iterations = 11.0

     total cpu time spent up to now is        5.6 secs

     total energy              =    -500.95703056 Ry
     estimated scf accuracy    <       0.00420957 Ry

     iteration # 10     ecut=    30.00 Ry     beta= 0.50
     Davidson diagonalization with overlap
     ethr =  1.64E-06,  avg # of iterations = 10.0

     total cpu time spent up to now is        5.7 secs

     total energy              =    -500.95732794 Ry
     estimated scf accuracy    <       0.00668261 Ry

     iteration # 11     ecut=    30.00 Ry     beta= 0.50
     Davidson diagonalization with overlap
     ethr =  1.64E-06,  avg # of iterations =  2.0

     total cpu time spent up to now is        5.8 secs

     total energy              =    -500.95779135 Ry
     estimated scf accuracy    <       0.00066602 Ry

     iteration # 12     ecut=    30.00 Ry     beta= 0.50
     Davidson diagonalization with overlap
     ethr =  2.60E-07,  avg # of iterations =  4.0

     total cpu time spent up to now is        5.9 secs

     total energy              =    -500.95786966 Ry
     estimated scf accuracy    <       0.00075535 Ry

     iteration # 13     ecut=    30.00 Ry     beta= 0.50
     Davidson diagonalization with overlap
     ethr =  2.60E-07,  avg # of iterations =  2.0

     total cpu time spent up to now is        6.0 secs

     total energy              =    -500.95792572 Ry
     estimated scf accuracy    <       0.00037688 Ry

     iteration # 14     ecut=    30.00 Ry     beta= 0.50
     Davidson diagonalization with overlap
     ethr =  1.47E-07,  avg # of iterations =  2.0

     total cpu time spent up to now is        6.1 secs

     total energy              =    -500.95795270 Ry
     estimated scf accuracy    <       0.00004705 Ry

     iteration # 15     ecut=    30.00 Ry     beta= 0.50
     Davidson diagonalization with overlap
     ethr =  1.84E-08,  avg # of iterations =  3.0

     total cpu time spent up to now is        6.2 secs

     total energy              =    -500.95795844 Ry
     estimated scf accuracy    <       0.00005295 Ry

     iteration # 16     ecut=    30.00 Ry     beta= 0.50
     Davidson diagonalization with overlap
     ethr =  1.84E-08,  avg # of iterations =  2.0

     total cpu time spent up to now is        6.3 secs

     total energy              =    -500.95796177 Ry
     estimated scf accuracy    <       0.00002472 Ry

     iteration # 17     ecut=    30.00 Ry     beta= 0.50
     Davidson diagonalization with overlap
     ethr =  9.66E-09,  avg # of iterations =  2.0

     total cpu time spent up to now is        6.3 secs

     total energy              =    -500.95796373 Ry
     estimated scf accuracy    <       0.00000397 Ry

     iteration # 18     ecut=    30.00 Ry     beta= 0.50
     Davidson diagonalization with overlap
     ethr =  1.55E-09,  avg # of iterations =  4.0

     total cpu time spent up to now is        6.4 secs

     total energy              =    -500.95796391 Ry
     estimated scf accuracy    <       0.00000787 Ry

     iteration # 19     ecut=    30.00 Ry     beta= 0.50
     Davidson diagonalization with overlap
     ethr =  1.55E-09,  avg # of iterations =  2.0

     total cpu time spent up to now is        6.5 secs

     total energy              =    -500.95796435 Ry
     estimated scf accuracy    <       0.00000118 Ry

     iteration # 20     ecut=    30.00 Ry     beta= 0.50
     Davidson diagonalization with overlap
     ethr =  4.63E-10,  avg # of iterations =  2.0

     total cpu time spent up to now is        6.6 secs

     End of self-consistent calculation

          k = 0.0000 0.0000 0.0000 ( 11720 PWs)   bands (ev):

    -6.1621  -5.5824  -5.2622  -5.0828  -4.7623  -4.6586  -4.5802  -4.3263
    -4.1426  -4.0283  -3.9309  -3.7957  -3.6360  -3.5681  -3.4343  -3.3665
    -3.2554  -3.1446  -3.0650  -2.7317  -2.6023  -2.4962  -2.3532  -2.2441
    -2.1985  -2.1185  -1.7564  -1.5270  -1.4196  -1.3643  -1.1378  -0.8845
    -0.8486  -0.8060  -0.6754  -0.6302  -0.5315  -0.4952  -0.4248  -0.3288
    -0.1737  -0.1227  -0.0099   0.0391   0.1526   0.1761   0.2562   0.4250
     0.5654   0.6267   0.7290   0.7960   0.9465   1.1156   1.1898   1.2624
     1.3024   1.4346   1.5303   1.5561   1.7038   1.9480   2.0514   2.0984
     2.2354   2.2833   2.3973   2.4768   2.5393   2.6655   2.7518   2.8003
     2.8415   2.8805   2.9366   3.0634   3.1465   3.2123   3.3503   3.4456
     3.5196   3.6215   3.7143   3.8098   3.9013   3.9442   4.0199   4.0240
     4.1813   4.2101   4.2753   4.3730   4.4054   4.5194   4.5936   4.6783
     4.7082   4.8597   4.8977   4.9411   4.9885   5.0297   5.0860   5.1904
     5.3038   5.3349   5.4061   5.4366   5.4770   5.5112   5.6549   5.7625
     5.7843   5.8157   5.9440   6.0251   6.0648   6.1291   6.1862   6.2258
     6.3219   6.3501   6.4211   6.5019   6.5208   6.5580   6.6109   6.6913
     6.7220   6.8423   6.8628   6.9361   6.9807   7.0480   7.1434   7.2238
     7.2455   7.2594   7.2984   7.4536   7.4626   7.5357   7.5888   7.6558
     7.7624   7.7871   7.8993   7.9054   7.9691   8.1022   8.1294   8.2609
     8.3026   8.3745

     the Fermi energy is     6.7245 ev

!    total energy              =    -500.95796410 Ry
     estimated scf accuracy    <       0.00000058 Ry
     smearing contrib. (-TS)   =      -0.15227220 Ry
     internal energy E=F+TS    =    -500.80569190 Ry

     The total energy is F=E-TS. E is the sum of the following terms:
     one-electron contribution =     143.89966826 Ry
     hartree contribution      =      42.00432476 Ry
     xc contribution           =    -151.65865649 Ry
     ewald contribution        =    -535.05102842 Ry

     convergence has been achieved in  20 iterations

     Forces acting on atoms (cartesian axes, Ry/au):

     atom    1 type  1   force =    -0.02130275   -0.01115937    0.02271927
     atom    2 type  1   force =    -0.01399539   -0.00730257    0.00092630
     atom    3 type  1   force =    -0.02740834    0.00807314    0.01029566
     atom    4 type  1   force =     0.01528600    0.00656954    0.02502508
     atom    5 type  1   force =    -0.01810707    0.03391763   -0.03184671
     atom    6 type  1   force =    -0.02436994   -0.02954265   -0.04269125
     atom    7 type  1   force =    -0.07802066   -0.03132390   -0.05896191
     atom    8 type  1   force =    -0.02297207    0.02077661    0.02033789
     atom    9 type  1   force =    -0.05645037   -0.01734766    0.10230771
     atom   10 type  1   force =     0.01513191   -0.00934060   -0.01713722
     atom   11 type  1   force =     0.03138584   -0.00177866    0.00121331
     atom   12 type  1   force =    -0.03862208    0.00886002   -0.06431766
     atom   13 type  1   force =     0.00983515   -0.00916616    0.02863646
     atom   14 type  1   force =     0.02052917    0.08355252   -0.06972155
     atom   15 type  1   force =    -0.00380025    0.02942079    0.03802426
     atom   16 type  1   force =    -0.04457133    0.00339783   -0.00810921
     atom   17 type  1   force =     0.02138495    0.03393615   -0.02773742
     atom   18 type  1   force =    -0.02774444   -0.04259671   -0.07005956
     atom   19 type  1   force =    -0.02951342   -0.01244959    0.03693342
     atom   20 type  1   force =    -0.01834948    0.02073812   -0.00840706
     atom   21 type  1   force =     0.02574129   -0.03904759   -0.05605293
     atom   22 type  1   force =     0.00033350    0.01469009   -0.00892026
     atom   23 type  1   force =     0.01992907    0.01203822    0.04357787
     atom   24 type  1   force =    -0.04033683   -0.01132009    0.03632405
     atom   25 type  1   force =     0.07181118    0.00012042   -0.01293995
     atom   26 type  1   force =     0.01773671   -0.04216690    0.08227692
     atom   27 type  1   force =    -0.03269032   -0.03096295   -0.02844999
     atom   28 type  1   force =     0.03070869   -0.01642658    0.04929393
     atom   29 type  1   force =     0.01018910   -0.01812201   -0.00591105
     atom   30 type  1   force =     0.03087499    0.01224204    0.01461402
     atom   31 type  1   force =     0.01937490   -0.00263228   -0.03522071
     atom   32 type  1   force =    -0.01538904   -0.01770648   -0.00676999
     atom   33 type  1   force =     0.00625594   -0.00193072   -0.00905136
     atom   34 type  1   force =     0.01764030    0.05526887   -0.08612387
     atom   35 type  1   force =     0.05043711    0.07843305   -0.00553922
     atom   36 type  1   force =     0.00029159   -0.03248216    0.01608482
     atom   37 type  1   force =    -0.03009166   -0.01236933   -0.01885510
     atom   38 type  1   force =     0.06611278    0.02624923   -0.06606803
     atom   39 type  1   force =    -0.02699939   -0.01437340    0.00726632
     atom   40 type  1   force =    -0.02141180    0.00158780    0.00531007
     atom   41 type  1   force =     0.03375786    0.01680021   -0.01027138
     atom   42 type  1   force =    -0.03239141   -0.03474029   -0.04791494
     atom   43 type  1   force =     0.03904027    0.03509742    0.02453139
     atom   44 type  1   force =    -0.01831474    0.01457102    0.00747137
     atom   45 type  1   force =    -0.00269980    0.03284067    0.03473745
     atom   46 type  1   force =    -0.01657137   -0.07932417    0.05821363
     atom   47 type  1   force =    -0.00495374    0.04623905   -0.00515124
     atom   48 type  1   force =    -0.03998576   -0.04552399    0.01122937
     atom   49 type  1   force =     0.00576515    0.00503214    0.00684454
     atom   50 type  1   force =     0.01335077    0.01850230   -0.00822149
     atom   51 type  1   force =     0.01043875   -0.00492439   -0.00098636
     atom   52 type  1   force =     0.00500202    0.00167697    0.01341394
     atom   53 type  1   force =    -0.04326320   -0.00818434    0.00476162
     atom   54 type  1   force =     0.07745676    0.02762875    0.05485691
     atom   55 type  1   force =     0.02954360    0.00222669    0.05689068
     atom   56 type  1   force =     0.00665036    0.03347651    0.00962988
     atom   57 type  1   force =    -0.02078720   -0.01048520    0.00353589
     atom   58 type  1   force =    -0.07875851   -0.05842579   -0.04797668
     atom   59 type  1   force =     0.00558327    0.00758079   -0.00791204
     atom   60 type  1   force =     0.00224612   -0.02095854   -0.01505474
     atom   61 type  1   force =     0.00370918    0.00242968    0.00877499
     atom   62 type  1   force =     0.07550257    0.01580956   -0.01177291
     atom   63 type  1   force =     0.03057818   -0.02170461    0.05738007
     atom   64 type  1   force =     0.03025728   -0.01396415    0.00071469

     Total force =     0.462238     Total SCF correction =     0.001508


     Computing stress (Cartesian axis) and pressure

          total   stress  (Ry/bohr**3)                   (kbar)     P=        5.71
   0.00008959   0.00010486  -0.00004115           13.18       15.43       -6.05
   0.00010486  -0.00018427   0.00001209           15.43      -27.11        1.78
  -0.00004115   0.00001209   0.00021108           -6.05        1.78       31.05

 
     init_run     :      0.97s CPU      4.58s WALL (       1 calls)
     electrons    :      1.79s CPU      1.95s WALL (       1 calls)
     forces       :      0.03s CPU      0.03s WALL (       1 calls)
     stress       :      0.14s CPU      0.14s WALL (       1 calls)

     Called by init_run:
     wfcinit      :      0.46s CPU      3.90s WALL (       1 calls)
                                        3.90s GPU  (       1 calls)
     potinit      :      0.04s CPU      0.13s WALL (       1 calls)
     hinit0       :      0.45s CPU      0.48s WALL (       1 calls)

     Called by electrons:
     c_bands      :      1.15s CPU      1.22s WALL (      21 calls)
     sum_band     :      0.33s CPU      0.38s WALL (      21 calls)
     v_of_rho     :      0.13s CPU      0.23s WALL (      21 calls)
     mix_rho      :      0.16s CPU      0.18s WALL (      21 calls)

     Called by c_bands:
     init_us_2    :      0.05s CPU      0.06s WALL (      43 calls)
     init_us_2:gp :      0.05s CPU      0.06s WALL (      43 calls)
     regterg      :      1.00s CPU      1.07s WALL (      21 calls)

     Called by *egterg:
     rdiaghg      :      0.41s CPU      1.12s WALL (      93 calls)
                                        1.10s GPU  (      93 calls)
     h_psi        :      0.88s CPU      3.65s WALL (      95 calls)
                                        3.65s GPU  (      95 calls)
     g_psi        :      0.00s CPU      0.00s WALL (      73 calls)
                                        0.00s GPU  (      73 calls)

     Called by h_psi:
     h_psi:calbec :      0.45s CPU      3.15s WALL (      95 calls)
                                        3.14s GPU  (      95 calls)
     vloc_psi     :      0.38s CPU      0.45s WALL (      95 calls)
                                        0.44s GPU  (      95 calls)
     add_vuspsi   :      0.03s CPU      0.05s WALL (      95 calls)
                                        0.05s GPU  (      95 calls)

     General routines
     calbec       :      0.45s CPU      3.15s WALL (     100 calls)
     fft          :      0.57s CPU      0.69s WALL (     175 calls)
                                        0.12s GPU  (     111 calls)
     ffts         :      0.03s CPU      0.04s WALL (      21 calls)
     fftw         :      0.47s CPU      0.61s WALL (    2213 calls)
                                        0.54s GPU  (    2213 calls)
 
     Parallel routines
 
     PWSCF        :      2.97s CPU      6.78s WALL

 
   This run was terminated on:   9:56:50  11May2023            

=------------------------------------------------------------------------------=
   JOB DONE.
=------------------------------------------------------------------------------=
