An instance of this daemon is already running

     Program PWSCF v.7.1 starts on 11May2023 at  9:48:26 

     This program is part of the open-source Quantum ESPRESSO suite
     for quantum simulation of materials; please cite
         "P. Giannozzi et al., J. Phys.:Condens. Matter 21 395502 (2009);
         "P. Giannozzi et al., J. Phys.:Condens. Matter 29 465901 (2017);
         "P. Giannozzi et al., J. Chem. Phys. 152 154105 (2020);
          URL http://www.quantum-espresso.org", 
     in publications or presentations arising from this work. More details at
     http://www.quantum-espresso.org/quote

     Parallel version (MPI & OpenMP), running on       4 processor cores
     Number of MPI processes:                 4
     Threads/MPI process:                     1

     MPI processes distributed on     1 nodes
     259108 MiB available memory on the printing compute node when the environment starts
 
     Reading input from pw-si-28.in
Warning: card &CELL ignored
Warning: card / ignored

     Current dimensions of program PWSCF are:
     Max number of different atomic species (ntypx) = 10
     Max number of k-points (npk) =  40000
     Max angular momentum in pseudopotentials (lmaxx) =  4

     IMPORTANT: XC functional enforced from input :
     Exchange-correlation= PBE
                           (   1   4   3   4   0   0   0)
     Any further DFT definition will be discarded
     Please, verify this is what you really want


     gamma-point specific algorithms are used
 
     K-points division:     npool     =       2
     R & G space division:  proc/nbgrp/npool/nimage =       2
     Subspace diagonalization in iterative solution of the eigenvalue problem:
     a serial algorithm will be used

     Message from routine divide_et_impera:
     suboptimal parallelization: some nodes have no k-points
 
     Parallelization info
     --------------------
     sticks:   dense  smooth     PW     G-vecs:    dense   smooth      PW
     Min        2012    2012    533                96083    96083   13000
     Max        2013    2013    536                96084    96084   13001
     Sum        4025    4025   1069               192167   192167   26001
 
     Using Slab Decomposition
 


     bravais-lattice index     =            0
     lattice parameter (alat)  =      20.5371  a.u.
     unit-cell volume          =    8661.9681 (a.u.)^3
     number of atoms/cell      =           64
     number of atomic types    =            1
     number of electrons       =       256.00
     number of Kohn-Sham states=          154
     kinetic-energy cutoff     =      30.0000  Ry
     charge density cutoff     =     120.0000  Ry
     scf convergence threshold =      1.0E-06
     mixing beta               =       0.5000
     number of iterations used =            8  plain     mixing
     Exchange-correlation= PBE
                           (   1   4   3   4   0   0   0)

     GPU acceleration is ACTIVE.
     GPU-aware MPI enabled

     Message from routine print_cuda_info:
     High GPU oversubscription detected. Are you sure this is what you want?

     celldm(1)=  20.537088  celldm(2)=   0.000000  celldm(3)=   0.000000
     celldm(4)=   0.000000  celldm(5)=   0.000000  celldm(6)=   0.000000

     crystal axes: (cart. coord. in units of alat)
               a(1) = (   1.000000   0.000000   0.000000 )  
               a(2) = (   0.000000   1.000000   0.000000 )  
               a(3) = (   0.000000   0.000000   1.000000 )  

     reciprocal axes: (cart. coord. in units 2 pi/alat)
               b(1) = (  1.000000  0.000000  0.000000 )  
               b(2) = (  0.000000  1.000000  0.000000 )  
               b(3) = (  0.000000  0.000000  1.000000 )  


     PseudoPot. # 1 for Si read from file:
     /home/ppiaggi/pseudos/Si_ONCV_PBE_sr.upf
     MD5 check sum: 8553c464762ac42b85b1eed164b4d029
     Pseudo is Norm-conserving, Zval =  4.0
     Generated using ONCVPSP code by D. R. Hamann
     Using radial grid of 1510 points,  4 beta functions with: 
                l(1) =   0
                l(2) =   0
                l(3) =   1
                l(4) =   1

     atomic species   valence    mass     pseudopotential
        Si             4.00    28.08500     Si( 1.00)

     No symmetry found



   Cartesian axes

     site n.     atom                  positions (alat units)
         1           Si  tau(   1) = (   0.0921811   0.1900720   0.6018560  )
         2           Si  tau(   2) = (   0.2202570   0.0583984   0.2629210  )
         3           Si  tau(   3) = (   0.8842400   0.1214250   0.6316720  )
         4           Si  tau(   4) = (   0.3952330   0.8116920   0.0112019  )
         5           Si  tau(   5) = (   0.5925660   0.0945804   0.8183050  )
         6           Si  tau(   6) = (   0.5020750   0.2497330   0.3742940  )
         7           Si  tau(   7) = (   0.2401180   0.0135839   0.8905830  )
         8           Si  tau(   8) = (   0.4716710   0.1610950   0.0897063  )
         9           Si  tau(   9) = (   0.4354010   0.8211230   0.7990280  )
        10           Si  tau(  10) = (   0.2353460   0.3211790   0.4209890  )
        11           Si  tau(  11) = (   0.3395520   0.6881820   0.6584610  )
        12           Si  tau(  12) = (   0.7858030   0.4656330   0.1245080  )
        13           Si  tau(  13) = (   0.6685350   0.5344860   0.7952300  )
        14           Si  tau(  14) = (   0.6531330   0.1727760   0.2805930  )
        15           Si  tau(  15) = (   0.1258560   0.0046609   0.7015420  )
        16           Si  tau(  16) = (   0.3633370   0.0042455   0.6429030  )
        17           Si  tau(  17) = (   0.5041130   0.5992540   0.9466730  )
        18           Si  tau(  18) = (   0.2215500   0.2695000   0.7525270  )
        19           Si  tau(  19) = (   0.6441160   0.5386400   0.5515030  )
        20           Si  tau(  20) = (   0.1056250   0.3534960   0.0891705  )
        21           Si  tau(  21) = (   0.5986010   0.9284350   0.5176890  )
        22           Si  tau(  22) = (   0.9447280   0.9936970   0.8506080  )
        23           Si  tau(  23) = (   0.6180910   0.9202670   0.0253286  )
        24           Si  tau(  24) = (   0.6927940   0.7074380   0.0913080  )
        25           Si  tau(  25) = (   0.0137229   0.2798470   0.4268790  )
        26           Si  tau(  26) = (   0.0659977   0.5063630   0.2262830  )
        27           Si  tau(  27) = (   0.5788570   0.7727130   0.2861540  )
        28           Si  tau(  28) = (   0.3346720   0.2990250   0.2406340  )
        29           Si  tau(  29) = (   0.3854490   0.0709355   0.4254680  )
        30           Si  tau(  30) = (   0.0689432   0.5081550   0.4475470  )
        31           Si  tau(  31) = (   0.6321700   0.2712320   0.9821090  )
        32           Si  tau(  32) = (   0.0074165   0.5440710   0.9966360  )
        33           Si  tau(  33) = (   0.2056210   0.6488650   0.8579700  )
        34           Si  tau(  34) = (   0.9037740   0.6470040   0.5504330  )
        35           Si  tau(  35) = (   0.7716300   0.0966071   0.4665750  )
        36           Si  tau(  36) = (   0.3121820   0.8337260   0.4533530  )
        37           Si  tau(  37) = (   0.9868850   0.6959710   0.3079180  )
        38           Si  tau(  38) = (   0.8114410   0.1564850   0.9537140  )
        39           Si  tau(  39) = (   0.5062410   0.2972070   0.5868590  )
        40           Si  tau(  40) = (   0.9506370   0.8763340   0.5171370  )
        41           Si  tau(  41) = (   0.7813850   0.9196020   0.6534970  )
        42           Si  tau(  42) = (   0.4918460   0.7255360   0.4617630  )
        43           Si  tau(  43) = (   0.4444500   0.5084100   0.4597560  )
        44           Si  tau(  44) = (   0.9055060   0.2545650   0.1333330  )
        45           Si  tau(  45) = (   0.0683143   0.9139990   0.3552980  )
        46           Si  tau(  46) = (   0.6797230   0.9692760   0.2221270  )
        47           Si  tau(  47) = (   0.2124850   0.6125220   0.3369350  )
        48           Si  tau(  48) = (   0.5891750   0.5137710   0.1957220  )
        49           Si  tau(  49) = (   0.2923540   0.4818590   0.5954180  )
        50           Si  tau(  50) = (   0.8611210   0.4020120   0.6525090  )
        51           Si  tau(  51) = (   0.5405630   0.3603310   0.8154820  )
        52           Si  tau(  52) = (   0.6938580   0.2424710   0.6698800  )
        53           Si  tau(  53) = (   0.0236214   0.8458320   0.1488680  )
        54           Si  tau(  54) = (   0.3754900   0.1822850   0.8720340  )
        55           Si  tau(  55) = (   0.3119940   0.5968090   0.0461344  )
        56           Si  tau(  56) = (   0.3314560   0.3509830   0.0164263  )
        57           Si  tau(  57) = (   0.8455840   0.8354880   0.9817880  )
        58           Si  tau(  58) = (   0.9786710   0.6431930   0.7558760  )
        59           Si  tau(  59) = (   0.3477280   0.7458920   0.2198590  )
        60           Si  tau(  60) = (   0.0944470   0.4747190   0.7181630  )
        61           Si  tau(  61) = (   0.2301370   0.9175690   0.0899577  )
        62           Si  tau(  62) = (   0.8490740   0.3245130   0.3046790  )
        63           Si  tau(  63) = (   0.7832410   0.7108440   0.7621410  )
        64           Si  tau(  64) = (   0.8294410   0.3983060   0.8959800  )

     number of k points=     1  Fermi-Dirac smearing, width (Ry)=  0.0100
                       cart. coord. in units 2pi/alat
        k(    1) = (   0.0000000   0.0000000   0.0000000), wk =   2.0000000

     Dense  grid:    96084 G-vectors     FFT dimensions: (  72,  72,  72)

     Estimated max dynamical RAM per process >     153.36 MB

     Estimated total dynamical RAM >     589.99 MB

     Initial potential from superposition of free atoms

     starting charge     255.9608, renormalised to     256.0000
     Starting wfcs are  256 randomized atomic wfcs

     total cpu time spent up to now is        4.5 secs

     Self-consistent Calculation

     iteration #  1     ecut=    30.00 Ry     beta= 0.50
     Davidson diagonalization with overlap
     ethr =  1.00E-02,  avg # of iterations =  3.0

     Threshold (ethr) on eigenvalues was too large:
     Diagonalizing with lowered threshold

     Davidson diagonalization with overlap
     ethr =  5.66E-04,  avg # of iterations =  4.0

     total cpu time spent up to now is        4.7 secs

     total energy              =    -500.37591935 Ry
     estimated scf accuracy    <       1.86025301 Ry

     iteration #  2     ecut=    30.00 Ry     beta= 0.50
     Davidson diagonalization with overlap
     ethr =  7.27E-04,  avg # of iterations =  3.0

     total cpu time spent up to now is        4.8 secs

     total energy              =    -499.76298037 Ry
     estimated scf accuracy    <       7.47259512 Ry

     iteration #  3     ecut=    30.00 Ry     beta= 0.50
     Davidson diagonalization with overlap
     ethr =  7.27E-04,  avg # of iterations =  4.0

     total cpu time spent up to now is        4.9 secs

     total energy              =    -500.45897725 Ry
     estimated scf accuracy    <       4.67504768 Ry

     iteration #  4     ecut=    30.00 Ry     beta= 0.50
     Davidson diagonalization with overlap
     ethr =  7.27E-04,  avg # of iterations =  2.0

     total cpu time spent up to now is        5.0 secs

     total energy              =    -500.77704890 Ry
     estimated scf accuracy    <       0.69375774 Ry

     iteration #  5     ecut=    30.00 Ry     beta= 0.50
     Davidson diagonalization with overlap
     ethr =  2.71E-04,  avg # of iterations =  2.0

     total cpu time spent up to now is        5.0 secs

     total energy              =    -500.81377721 Ry
     estimated scf accuracy    <       0.57801910 Ry

     iteration #  6     ecut=    30.00 Ry     beta= 0.50
     Davidson diagonalization with overlap
     ethr =  2.26E-04,  avg # of iterations =  2.0

     total cpu time spent up to now is        5.1 secs

     total energy              =    -500.86122750 Ry
     estimated scf accuracy    <       0.18395558 Ry

     iteration #  7     ecut=    30.00 Ry     beta= 0.50
     Davidson diagonalization with overlap
     ethr =  7.19E-05,  avg # of iterations =  2.0

     total cpu time spent up to now is        5.2 secs

     total energy              =    -500.87783680 Ry
     estimated scf accuracy    <       0.02846917 Ry

     iteration #  8     ecut=    30.00 Ry     beta= 0.50
     Davidson diagonalization with overlap
     ethr =  1.11E-05,  avg # of iterations = 15.0

     total cpu time spent up to now is        5.4 secs

     total energy              =    -500.87962953 Ry
     estimated scf accuracy    <       0.05100484 Ry

     iteration #  9     ecut=    30.00 Ry     beta= 0.50
     Davidson diagonalization with overlap
     ethr =  1.11E-05,  avg # of iterations =  2.0

     total cpu time spent up to now is        5.5 secs

     total energy              =    -500.88345499 Ry
     estimated scf accuracy    <       0.00435382 Ry

     iteration # 10     ecut=    30.00 Ry     beta= 0.50
     Davidson diagonalization with overlap
     ethr =  1.70E-06,  avg # of iterations =  9.0

     total cpu time spent up to now is        5.6 secs

     total energy              =    -500.88380179 Ry
     estimated scf accuracy    <       0.00588440 Ry

     iteration # 11     ecut=    30.00 Ry     beta= 0.50
     Davidson diagonalization with overlap
     ethr =  1.70E-06,  avg # of iterations =  2.0

     total cpu time spent up to now is        5.7 secs

     total energy              =    -500.88423649 Ry
     estimated scf accuracy    <       0.00133058 Ry

     iteration # 12     ecut=    30.00 Ry     beta= 0.50
     Davidson diagonalization with overlap
     ethr =  5.20E-07,  avg # of iterations =  2.0

     total cpu time spent up to now is        5.7 secs

     total energy              =    -500.88437563 Ry
     estimated scf accuracy    <       0.00038258 Ry

     iteration # 13     ecut=    30.00 Ry     beta= 0.50
     Davidson diagonalization with overlap
     ethr =  1.49E-07,  avg # of iterations =  2.0

     total cpu time spent up to now is        5.8 secs

     total energy              =    -500.88440249 Ry
     estimated scf accuracy    <       0.00044368 Ry

     iteration # 14     ecut=    30.00 Ry     beta= 0.50
     Davidson diagonalization with overlap
     ethr =  1.49E-07,  avg # of iterations =  1.0

     total cpu time spent up to now is        5.9 secs

     total energy              =    -500.88443022 Ry
     estimated scf accuracy    <       0.00004642 Ry

     iteration # 15     ecut=    30.00 Ry     beta= 0.50
     Davidson diagonalization with overlap
     ethr =  1.81E-08,  avg # of iterations =  4.0

     total cpu time spent up to now is        6.0 secs

     total energy              =    -500.88443241 Ry
     estimated scf accuracy    <       0.00008380 Ry

     iteration # 16     ecut=    30.00 Ry     beta= 0.50
     Davidson diagonalization with overlap
     ethr =  1.81E-08,  avg # of iterations =  3.0

     total cpu time spent up to now is        6.1 secs

     total energy              =    -500.88443711 Ry
     estimated scf accuracy    <       0.00006228 Ry

     iteration # 17     ecut=    30.00 Ry     beta= 0.50
     Davidson diagonalization with overlap
     ethr =  1.81E-08,  avg # of iterations =  2.0

     total cpu time spent up to now is        6.2 secs

     total energy              =    -500.88444042 Ry
     estimated scf accuracy    <       0.00001725 Ry

     iteration # 18     ecut=    30.00 Ry     beta= 0.50
     Davidson diagonalization with overlap
     ethr =  6.74E-09,  avg # of iterations =  2.0

     total cpu time spent up to now is        6.3 secs

     total energy              =    -500.88444219 Ry
     estimated scf accuracy    <       0.00000394 Ry

     iteration # 19     ecut=    30.00 Ry     beta= 0.50
     Davidson diagonalization with overlap
     ethr =  1.54E-09,  avg # of iterations =  2.0

     total cpu time spent up to now is        6.3 secs

     total energy              =    -500.88444245 Ry
     estimated scf accuracy    <       0.00000201 Ry

     iteration # 20     ecut=    30.00 Ry     beta= 0.50
     Davidson diagonalization with overlap
     ethr =  7.87E-10,  avg # of iterations =  2.0

     total cpu time spent up to now is        6.4 secs

     End of self-consistent calculation

          k = 0.0000 0.0000 0.0000 ( 11936 PWs)   bands (ev):

    -6.1900  -5.5738  -5.3771  -5.1834  -5.0857  -4.9573  -4.8680  -4.6175
    -4.4737  -4.3094  -4.1215  -3.9832  -3.7373  -3.6804  -3.6140  -3.4972
    -3.4387  -3.3934  -3.1882  -2.9517  -2.7934  -2.6232  -2.5971  -2.2620
    -2.1743  -2.0982  -1.8969  -1.7592  -1.6207  -1.5174  -1.4125  -1.2710
    -1.2451  -1.0461  -0.9798  -0.9466  -0.8289  -0.6728  -0.6108  -0.4639
    -0.4372  -0.3257  -0.2423  -0.1396  -0.1077   0.0421   0.1169   0.3188
     0.4049   0.5133   0.5516   0.6324   0.7294   0.7716   0.9177   0.9590
     1.1312   1.2144   1.3792   1.5149   1.5819   1.6884   1.8536   1.8751
     1.9951   2.0592   2.1300   2.2033   2.3400   2.3962   2.4395   2.5693
     2.5820   2.6476   2.6938   2.8292   2.9280   3.0030   3.0971   3.1072
     3.2562   3.3870   3.4763   3.5476   3.6141   3.6532   3.7119   3.7722
     3.8417   3.9073   4.0527   4.1419   4.2291   4.2946   4.3151   4.3875
     4.4529   4.5180   4.6216   4.6871   4.7755   4.8506   4.8862   4.9188
     4.9350   5.1116   5.1483   5.1679   5.2390   5.3995   5.4484   5.4920
     5.5163   5.5578   5.6370   5.6699   5.7511   5.8231   5.8362   5.9285
     5.9387   5.9782   6.0402   6.1166   6.1620   6.2798   6.3014   6.3618
     6.4650   6.4739   6.5372   6.5962   6.6095   6.6725   6.6936   6.7491
     6.7886   6.8992   7.0765   7.1156   7.1434   7.1512   7.2871   7.3689
     7.4129   7.5049   7.5415   7.6471   7.6842   7.7343   7.8134   7.8447
     7.9183   7.9804

     the Fermi energy is     6.3861 ev

!    total energy              =    -500.88444218 Ry
     estimated scf accuracy    <       0.00000068 Ry
     smearing contrib. (-TS)   =      -0.15945575 Ry
     internal energy E=F+TS    =    -500.72498643 Ry

     The total energy is F=E-TS. E is the sum of the following terms:
     one-electron contribution =     133.28005794 Ry
     hartree contribution      =      44.54662819 Ry
     xc contribution           =    -150.77690954 Ry
     ewald contribution        =    -527.77476303 Ry

     convergence has been achieved in  20 iterations

     Forces acting on atoms (cartesian axes, Ry/au):

     atom    1 type  1   force =     0.00739521    0.00674686    0.00432318
     atom    2 type  1   force =     0.01974401    0.01702539    0.01349933
     atom    3 type  1   force =     0.02266735    0.01283159    0.05827548
     atom    4 type  1   force =     0.06015689   -0.01358506   -0.03770770
     atom    5 type  1   force =    -0.00046335    0.00957046    0.02055267
     atom    6 type  1   force =    -0.09031065    0.04078443    0.04442051
     atom    7 type  1   force =     0.00249829   -0.01077038   -0.01210642
     atom    8 type  1   force =     0.00355024   -0.00325174    0.02464038
     atom    9 type  1   force =    -0.00366095    0.01588320   -0.00968033
     atom   10 type  1   force =    -0.03910716    0.00916260    0.05616896
     atom   11 type  1   force =    -0.00542200    0.01912861   -0.00227578
     atom   12 type  1   force =     0.02840438   -0.00686275   -0.01930856
     atom   13 type  1   force =     0.00456055   -0.00856738   -0.02292420
     atom   14 type  1   force =     0.11475677   -0.00636549   -0.03781014
     atom   15 type  1   force =    -0.01012455   -0.02988194    0.00292989
     atom   16 type  1   force =     0.01850575   -0.01036320   -0.01122337
     atom   17 type  1   force =     0.04201295    0.02263403    0.01039785
     atom   18 type  1   force =    -0.01797809    0.04891386   -0.01291659
     atom   19 type  1   force =     0.03392139   -0.00149893    0.03914119
     atom   20 type  1   force =     0.00219627   -0.02463469   -0.02782901
     atom   21 type  1   force =    -0.01417309    0.01912299    0.00364971
     atom   22 type  1   force =    -0.02490987    0.01471207   -0.01588834
     atom   23 type  1   force =    -0.01165123   -0.00480044   -0.03917194
     atom   24 type  1   force =    -0.02499197   -0.02770962   -0.00825716
     atom   25 type  1   force =     0.02408143    0.02532643    0.01222917
     atom   26 type  1   force =    -0.01420670   -0.00119219   -0.02199514
     atom   27 type  1   force =     0.01241545    0.02084118   -0.09123676
     atom   28 type  1   force =     0.01663695   -0.03477176   -0.06917923
     atom   29 type  1   force =    -0.00575147   -0.01467872    0.00958930
     atom   30 type  1   force =    -0.02351995   -0.04096393    0.05374303
     atom   31 type  1   force =     0.00903960   -0.00469183    0.03024886
     atom   32 type  1   force =    -0.01561346   -0.02639536   -0.00851697
     atom   33 type  1   force =    -0.02737675   -0.00166056   -0.02404159
     atom   34 type  1   force =    -0.00154804    0.00726332   -0.02360584
     atom   35 type  1   force =    -0.06067794   -0.01408523   -0.06794296
     atom   36 type  1   force =    -0.04729878    0.02074403    0.02434717
     atom   37 type  1   force =     0.00451832    0.01632287    0.00457605
     atom   38 type  1   force =     0.02590186    0.00967208    0.00107393
     atom   39 type  1   force =    -0.01765692    0.04601967    0.00829681
     atom   40 type  1   force =    -0.02068620   -0.03508044    0.04496250
     atom   41 type  1   force =    -0.01043715   -0.02140076    0.02512196
     atom   42 type  1   force =     0.02405231   -0.03780840    0.08375405
     atom   43 type  1   force =     0.03172147   -0.01010422   -0.06367558
     atom   44 type  1   force =     0.05424831   -0.04419837   -0.13515555
     atom   45 type  1   force =     0.04469151    0.01755080   -0.04503871
     atom   46 type  1   force =    -0.00117374   -0.01943815    0.02610280
     atom   47 type  1   force =     0.05756642    0.03363106    0.00221190
     atom   48 type  1   force =    -0.01850426    0.02311996   -0.00721915
     atom   49 type  1   force =    -0.05894772   -0.05481075    0.03254616
     atom   50 type  1   force =    -0.01169797    0.01331821    0.02461805
     atom   51 type  1   force =    -0.03736794   -0.00610982   -0.03283891
     atom   52 type  1   force =     0.02743088   -0.00774660    0.00627806
     atom   53 type  1   force =    -0.02520174    0.00243693   -0.02190505
     atom   54 type  1   force =     0.03980996   -0.02110572   -0.00000607
     atom   55 type  1   force =     0.00229937   -0.03077437   -0.00074861
     atom   56 type  1   force =    -0.01870752    0.03086614    0.03262847
     atom   57 type  1   force =    -0.00527570   -0.00777163   -0.00292585
     atom   58 type  1   force =     0.04705815    0.02117513    0.04066095
     atom   59 type  1   force =     0.01000284   -0.00650436    0.01587439
     atom   60 type  1   force =     0.03556390   -0.05259570   -0.01146308
     atom   61 type  1   force =    -0.04562622    0.01632113    0.03587066
     atom   62 type  1   force =    -0.09692308    0.03267398    0.07620808
     atom   63 type  1   force =    -0.01993263    0.06558248    0.01818941
     atom   64 type  1   force =    -0.00048398    0.00279901   -0.00253630

     Total force =     0.456574     Total SCF correction =     0.001590


     Computing stress (Cartesian axis) and pressure

          total   stress  (Ry/bohr**3)                   (kbar)     P=       -7.72
  -0.00017293  -0.00007840  -0.00010246          -25.44      -11.53      -15.07
  -0.00007840  -0.00007396   0.00003491          -11.53      -10.88        5.14
  -0.00010246   0.00003491   0.00008938          -15.07        5.14       13.15

 
     init_run     :      0.93s CPU      4.42s WALL (       1 calls)
     electrons    :      1.81s CPU      1.93s WALL (       1 calls)
     forces       :      0.03s CPU      0.03s WALL (       1 calls)
     stress       :      0.14s CPU      0.14s WALL (       1 calls)

     Called by init_run:
     wfcinit      :      0.42s CPU      3.74s WALL (       1 calls)
                                        3.74s GPU  (       1 calls)
     potinit      :      0.03s CPU      0.13s WALL (       1 calls)
     hinit0       :      0.45s CPU      0.48s WALL (       1 calls)

     Called by electrons:
     c_bands      :      1.17s CPU      1.23s WALL (      21 calls)
     sum_band     :      0.33s CPU      0.38s WALL (      21 calls)
     v_of_rho     :      0.13s CPU      0.23s WALL (      21 calls)
     mix_rho      :      0.15s CPU      0.17s WALL (      21 calls)

     Called by c_bands:
     init_us_2    :      0.05s CPU      0.06s WALL (      43 calls)
     init_us_2:gp :      0.05s CPU      0.06s WALL (      43 calls)
     regterg      :      1.02s CPU      1.07s WALL (      21 calls)

     Called by *egterg:
     rdiaghg      :      0.42s CPU      1.09s WALL (      90 calls)
                                        1.08s GPU  (      90 calls)
     h_psi        :      0.84s CPU      3.52s WALL (      92 calls)
                                        3.52s GPU  (      92 calls)
     g_psi        :      0.00s CPU      0.00s WALL (      70 calls)
                                        0.00s GPU  (      70 calls)

     Called by h_psi:
     h_psi:calbec :      0.41s CPU      3.02s WALL (      92 calls)
                                        3.02s GPU  (      92 calls)
     vloc_psi     :      0.38s CPU      0.44s WALL (      92 calls)
                                        0.44s GPU  (      92 calls)
     add_vuspsi   :      0.03s CPU      0.05s WALL (      92 calls)
                                        0.05s GPU  (      92 calls)

     General routines
     calbec       :      0.41s CPU      3.03s WALL (      97 calls)
     fft          :      0.56s CPU      0.68s WALL (     175 calls)
                                        0.12s GPU  (     111 calls)
     ffts         :      0.03s CPU      0.04s WALL (      21 calls)
     fftw         :      0.47s CPU      0.60s WALL (    2195 calls)
                                        0.53s GPU  (    2195 calls)
 
     Parallel routines
 
     PWSCF        :      2.94s CPU      6.61s WALL

 
   This run was terminated on:   9:48:33  11May2023            

=------------------------------------------------------------------------------=
   JOB DONE.
=------------------------------------------------------------------------------=
