An instance of this daemon is already running

     Program PWSCF v.7.1 starts on 11May2023 at  9:50:12 

     This program is part of the open-source Quantum ESPRESSO suite
     for quantum simulation of materials; please cite
         "P. Giannozzi et al., J. Phys.:Condens. Matter 21 395502 (2009);
         "P. Giannozzi et al., J. Phys.:Condens. Matter 29 465901 (2017);
         "P. Giannozzi et al., J. Chem. Phys. 152 154105 (2020);
          URL http://www.quantum-espresso.org", 
     in publications or presentations arising from this work. More details at
     http://www.quantum-espresso.org/quote

     Parallel version (MPI & OpenMP), running on       4 processor cores
     Number of MPI processes:                 4
     Threads/MPI process:                     1

     MPI processes distributed on     1 nodes
     259095 MiB available memory on the printing compute node when the environment starts
 
     Reading input from pw-si-40.in
Warning: card &CELL ignored
Warning: card / ignored

     Current dimensions of program PWSCF are:
     Max number of different atomic species (ntypx) = 10
     Max number of k-points (npk) =  40000
     Max angular momentum in pseudopotentials (lmaxx) =  4

     IMPORTANT: XC functional enforced from input :
     Exchange-correlation= PBE
                           (   1   4   3   4   0   0   0)
     Any further DFT definition will be discarded
     Please, verify this is what you really want


     gamma-point specific algorithms are used
 
     K-points division:     npool     =       2
     R & G space division:  proc/nbgrp/npool/nimage =       2
     Subspace diagonalization in iterative solution of the eigenvalue problem:
     a serial algorithm will be used

     Message from routine divide_et_impera:
     suboptimal parallelization: some nodes have no k-points
 
     Parallelization info
     --------------------
     sticks:   dense  smooth     PW     G-vecs:    dense   smooth      PW
     Min        2012    2012    533                96083    96083   13000
     Max        2013    2013    536                96084    96084   13001
     Sum        4025    4025   1069               192167   192167   26001
 
     Using Slab Decomposition
 


     bravais-lattice index     =            0
     lattice parameter (alat)  =      20.5406  a.u.
     unit-cell volume          =    8666.4336 (a.u.)^3
     number of atoms/cell      =           64
     number of atomic types    =            1
     number of electrons       =       256.00
     number of Kohn-Sham states=          154
     kinetic-energy cutoff     =      30.0000  Ry
     charge density cutoff     =     120.0000  Ry
     scf convergence threshold =      1.0E-06
     mixing beta               =       0.5000
     number of iterations used =            8  plain     mixing
     Exchange-correlation= PBE
                           (   1   4   3   4   0   0   0)

     GPU acceleration is ACTIVE.
     GPU-aware MPI enabled

     Message from routine print_cuda_info:
     High GPU oversubscription detected. Are you sure this is what you want?

     celldm(1)=  20.540616  celldm(2)=   0.000000  celldm(3)=   0.000000
     celldm(4)=   0.000000  celldm(5)=   0.000000  celldm(6)=   0.000000

     crystal axes: (cart. coord. in units of alat)
               a(1) = (   1.000000   0.000000   0.000000 )  
               a(2) = (   0.000000   1.000000   0.000000 )  
               a(3) = (   0.000000   0.000000   1.000000 )  

     reciprocal axes: (cart. coord. in units 2 pi/alat)
               b(1) = (  1.000000  0.000000  0.000000 )  
               b(2) = (  0.000000  1.000000  0.000000 )  
               b(3) = (  0.000000  0.000000  1.000000 )  


     PseudoPot. # 1 for Si read from file:
     /home/ppiaggi/pseudos/Si_ONCV_PBE_sr.upf
     MD5 check sum: 8553c464762ac42b85b1eed164b4d029
     Pseudo is Norm-conserving, Zval =  4.0
     Generated using ONCVPSP code by D. R. Hamann
     Using radial grid of 1510 points,  4 beta functions with: 
                l(1) =   0
                l(2) =   0
                l(3) =   1
                l(4) =   1

     atomic species   valence    mass     pseudopotential
        Si             4.00    28.08500     Si( 1.00)

     No symmetry found



   Cartesian axes

     site n.     atom                  positions (alat units)
         1           Si  tau(   1) = (   0.1120040   0.1212200   0.5654500  )
         2           Si  tau(   2) = (   0.2592530   0.0340251   0.2562100  )
         3           Si  tau(   3) = (   0.9341240   0.1992770   0.7091800  )
         4           Si  tau(   4) = (   0.4191020   0.8637270   0.9953730  )
         5           Si  tau(   5) = (   0.5677600   0.1682840   0.9215890  )
         6           Si  tau(   6) = (   0.5475470   0.2244590   0.4121700  )
         7           Si  tau(   7) = (   0.2527710   0.0251139   0.8886030  )
         8           Si  tau(   8) = (   0.5017580   0.1991800   0.1267070  )
         9           Si  tau(   9) = (   0.3899550   0.8076470   0.7579850  )
        10           Si  tau(  10) = (   0.2152520   0.3793010   0.4377180  )
        11           Si  tau(  11) = (   0.3209880   0.6822400   0.6118310  )
        12           Si  tau(  12) = (   0.8086570   0.4481690   0.0507641  )
        13           Si  tau(  13) = (   0.6517680   0.5726300   0.7700620  )
        14           Si  tau(  14) = (   0.7459180   0.1845090   0.3054570  )
        15           Si  tau(  15) = (   0.1381490   0.8766620   0.7390860  )
        16           Si  tau(  16) = (   0.2697240   0.9928580   0.5603910  )
        17           Si  tau(  17) = (   0.5274920   0.6678870   0.9180740  )
        18           Si  tau(  18) = (   0.1622230   0.2642600   0.7344940  )
        19           Si  tau(  19) = (   0.6809670   0.4895420   0.5456810  )
        20           Si  tau(  20) = (   0.1266100   0.3007510   0.1529880  )
        21           Si  tau(  21) = (   0.5004430   0.9162410   0.6034870  )
        22           Si  tau(  22) = (   0.9393930   0.9133650   0.8188550  )
        23           Si  tau(  23) = (   0.6240260   0.9282670   0.8905680  )
        24           Si  tau(  24) = (   0.6474180   0.6540420   0.1098310  )
        25           Si  tau(  25) = (   0.0643639   0.2398890   0.3544280  )
        26           Si  tau(  26) = (   0.1425320   0.5148340   0.1979510  )
        27           Si  tau(  27) = (   0.5426950   0.8869060   0.1801930  )
        28           Si  tau(  28) = (   0.3304220   0.2858540   0.2156510  )
        29           Si  tau(  29) = (   0.4655810   0.0159511   0.3369140  )
        30           Si  tau(  30) = (   0.0133516   0.4843970   0.4053500  )
        31           Si  tau(  31) = (   0.6887020   0.2963010   0.0129678  )
        32           Si  tau(  32) = (   0.0153429   0.5732100   0.0164998  )
        33           Si  tau(  33) = (   0.2355680   0.6319430   0.8592020  )
        34           Si  tau(  34) = (   0.9251910   0.6294390   0.5916640  )
        35           Si  tau(  35) = (   0.6701060   0.0563216   0.4812050  )
        36           Si  tau(  36) = (   0.2995780   0.7893640   0.3779290  )
        37           Si  tau(  37) = (   0.8969750   0.8137160   0.4178140  )
        38           Si  tau(  38) = (   0.8633730   0.1581850   0.9163580  )
        39           Si  tau(  39) = (   0.5152050   0.3914170   0.6593380  )
        40           Si  tau(  40) = (   0.0224264   0.9218500   0.5620420  )
        41           Si  tau(  41) = (   0.7257230   0.9614910   0.6974660  )
        42           Si  tau(  42) = (   0.5573160   0.6654250   0.5546760  )
        43           Si  tau(  43) = (   0.4501640   0.4313490   0.3144050  )
        44           Si  tau(  44) = (   0.8913300   0.2495640   0.1550240  )
        45           Si  tau(  45) = (   0.1036190   0.9261340   0.3598740  )
        46           Si  tau(  46) = (   0.7805150   0.9280240   0.2478270  )
        47           Si  tau(  47) = (   0.2469450   0.5767050   0.4455660  )
        48           Si  tau(  48) = (   0.5992200   0.4412510   0.1699120  )
        49           Si  tau(  49) = (   0.2982160   0.4463200   0.6317400  )
        50           Si  tau(  50) = (   0.8538900   0.4021440   0.6018560  )
        51           Si  tau(  51) = (   0.3925820   0.4769100   0.8273520  )
        52           Si  tau(  52) = (   0.7083210   0.2305320   0.6532400  )
        53           Si  tau(  53) = (   0.0050552   0.8197680   0.1735720  )
        54           Si  tau(  54) = (   0.3751590   0.2041560   0.8313310  )
        55           Si  tau(  55) = (   0.3856350   0.5553340   0.0396221  )
        56           Si  tau(  56) = (   0.3251450   0.3366760   0.9924430  )
        57           Si  tau(  57) = (   0.7890970   0.8207320   0.0801079  )
        58           Si  tau(  58) = (   0.9796480   0.6723860   0.8119190  )
        59           Si  tau(  59) = (   0.3105210   0.7760540   0.1506690  )
        60           Si  tau(  60) = (   0.0759086   0.4628700   0.7549620  )
        61           Si  tau(  61) = (   0.1943140   0.9369690   0.0864283  )
        62           Si  tau(  62) = (   0.8492870   0.3662510   0.3551920  )
        63           Si  tau(  63) = (   0.7687610   0.7800490   0.7949760  )
        64           Si  tau(  64) = (   0.7311410   0.3885890   0.8196730  )

     number of k points=     1  Fermi-Dirac smearing, width (Ry)=  0.0100
                       cart. coord. in units 2pi/alat
        k(    1) = (   0.0000000   0.0000000   0.0000000), wk =   2.0000000

     Dense  grid:    96084 G-vectors     FFT dimensions: (  72,  72,  72)

     Estimated max dynamical RAM per process >     153.42 MB

     Estimated total dynamical RAM >     590.22 MB

     Initial potential from superposition of free atoms

     starting charge     255.9608, renormalised to     256.0000
     Starting wfcs are  256 randomized atomic wfcs

     total cpu time spent up to now is        4.5 secs

     Self-consistent Calculation

     iteration #  1     ecut=    30.00 Ry     beta= 0.50
     Davidson diagonalization with overlap
     ethr =  1.00E-02,  avg # of iterations =  3.0

     Threshold (ethr) on eigenvalues was too large:
     Diagonalizing with lowered threshold

     Davidson diagonalization with overlap
     ethr =  5.90E-04,  avg # of iterations =  4.0

     total cpu time spent up to now is        4.7 secs

     total energy              =    -500.23930356 Ry
     estimated scf accuracy    <       2.00837318 Ry

     iteration #  2     ecut=    30.00 Ry     beta= 0.50
     Davidson diagonalization with overlap
     ethr =  7.85E-04,  avg # of iterations =  5.0

     total cpu time spent up to now is        4.8 secs

     total energy              =    -499.42363074 Ry
     estimated scf accuracy    <      11.00830902 Ry

     iteration #  3     ecut=    30.00 Ry     beta= 0.50
     Davidson diagonalization with overlap
     ethr =  7.85E-04,  avg # of iterations =  5.0

     total cpu time spent up to now is        4.9 secs

     total energy              =    -500.38341191 Ry
     estimated scf accuracy    <       4.81442775 Ry

     iteration #  4     ecut=    30.00 Ry     beta= 0.50
     Davidson diagonalization with overlap
     ethr =  7.85E-04,  avg # of iterations =  2.0

     total cpu time spent up to now is        5.0 secs

     total energy              =    -500.69630108 Ry
     estimated scf accuracy    <       0.94752292 Ry

     iteration #  5     ecut=    30.00 Ry     beta= 0.50
     Davidson diagonalization with overlap
     ethr =  3.70E-04,  avg # of iterations =  2.0

     total cpu time spent up to now is        5.1 secs

     total energy              =    -500.74706727 Ry
     estimated scf accuracy    <       1.09171532 Ry

     iteration #  6     ecut=    30.00 Ry     beta= 0.50
     Davidson diagonalization with overlap
     ethr =  3.70E-04,  avg # of iterations =  1.0

     total cpu time spent up to now is        5.1 secs

     total energy              =    -500.82576092 Ry
     estimated scf accuracy    <       0.05134043 Ry

     iteration #  7     ecut=    30.00 Ry     beta= 0.50
     Davidson diagonalization with overlap
     ethr =  2.01E-05,  avg # of iterations =  8.0

     total cpu time spent up to now is        5.3 secs

     total energy              =    -500.83101803 Ry
     estimated scf accuracy    <       0.10133388 Ry

     iteration #  8     ecut=    30.00 Ry     beta= 0.50
     Davidson diagonalization with overlap
     ethr =  2.01E-05,  avg # of iterations =  3.0

     total cpu time spent up to now is        5.4 secs

     total energy              =    -500.83986462 Ry
     estimated scf accuracy    <       0.03034533 Ry

     iteration #  9     ecut=    30.00 Ry     beta= 0.50
     Davidson diagonalization with overlap
     ethr =  1.19E-05,  avg # of iterations =  2.0

     total cpu time spent up to now is        5.4 secs

     total energy              =    -500.84185647 Ry
     estimated scf accuracy    <       0.00637886 Ry

     iteration # 10     ecut=    30.00 Ry     beta= 0.50
     Davidson diagonalization with overlap
     c_bands:  1 eigenvalues not converged
     ethr =  2.49E-06,  avg # of iterations = 20.0

     total cpu time spent up to now is        5.6 secs

     total energy              =    -500.84241283 Ry
     estimated scf accuracy    <       0.00297170 Ry

     iteration # 11     ecut=    30.00 Ry     beta= 0.50
     Davidson diagonalization with overlap
     ethr =  1.16E-06,  avg # of iterations = 12.0

     total cpu time spent up to now is        5.8 secs

     total energy              =    -500.84271840 Ry
     estimated scf accuracy    <       0.00121129 Ry

     iteration # 12     ecut=    30.00 Ry     beta= 0.50
     Davidson diagonalization with overlap
     ethr =  4.73E-07,  avg # of iterations =  2.0

     total cpu time spent up to now is        5.8 secs

     total energy              =    -500.84279935 Ry
     estimated scf accuracy    <       0.00042685 Ry

     iteration # 13     ecut=    30.00 Ry     beta= 0.50
     Davidson diagonalization with overlap
     ethr =  1.67E-07,  avg # of iterations =  3.0

     total cpu time spent up to now is        5.9 secs

     total energy              =    -500.84281949 Ry
     estimated scf accuracy    <       0.00058119 Ry

     iteration # 14     ecut=    30.00 Ry     beta= 0.50
     Davidson diagonalization with overlap
     ethr =  1.67E-07,  avg # of iterations =  2.0

     total cpu time spent up to now is        6.0 secs

     total energy              =    -500.84285509 Ry
     estimated scf accuracy    <       0.00007686 Ry

     iteration # 15     ecut=    30.00 Ry     beta= 0.50
     Davidson diagonalization with overlap
     ethr =  3.00E-08,  avg # of iterations =  3.0

     total cpu time spent up to now is        6.1 secs

     total energy              =    -500.84286540 Ry
     estimated scf accuracy    <       0.00004847 Ry

     iteration # 16     ecut=    30.00 Ry     beta= 0.50
     Davidson diagonalization with overlap
     ethr =  1.89E-08,  avg # of iterations =  2.0

     total cpu time spent up to now is        6.2 secs

     total energy              =    -500.84286842 Ry
     estimated scf accuracy    <       0.00001987 Ry

     iteration # 17     ecut=    30.00 Ry     beta= 0.50
     Davidson diagonalization with overlap
     ethr =  7.76E-09,  avg # of iterations =  2.0

     total cpu time spent up to now is        6.3 secs

     total energy              =    -500.84287004 Ry
     estimated scf accuracy    <       0.00001163 Ry

     iteration # 18     ecut=    30.00 Ry     beta= 0.50
     Davidson diagonalization with overlap
     ethr =  4.54E-09,  avg # of iterations =  1.0

     total cpu time spent up to now is        6.3 secs

     total energy              =    -500.84287057 Ry
     estimated scf accuracy    <       0.00000275 Ry

     iteration # 19     ecut=    30.00 Ry     beta= 0.50
     Davidson diagonalization with overlap
     ethr =  1.08E-09,  avg # of iterations =  4.0

     total cpu time spent up to now is        6.4 secs

     total energy              =    -500.84287083 Ry
     estimated scf accuracy    <       0.00000389 Ry

     iteration # 20     ecut=    30.00 Ry     beta= 0.50
     Davidson diagonalization with overlap
     ethr =  1.08E-09,  avg # of iterations =  2.0

     total cpu time spent up to now is        6.5 secs

     total energy              =    -500.84287104 Ry
     estimated scf accuracy    <       0.00000123 Ry

     iteration # 21     ecut=    30.00 Ry     beta= 0.50
     Davidson diagonalization with overlap
     ethr =  4.81E-10,  avg # of iterations =  2.0

     total cpu time spent up to now is        6.6 secs

     End of self-consistent calculation

          k = 0.0000 0.0000 0.0000 ( 11936 PWs)   bands (ev):

    -6.3918  -5.7288  -5.5281  -5.5040  -5.4168  -5.0316  -4.8640  -4.6993
    -4.5632  -4.4258  -4.2813  -4.2054  -4.0025  -3.8963  -3.7487  -3.5621
    -3.4624  -3.2797  -3.2161  -2.9370  -2.8766  -2.6832  -2.5523  -2.4462
    -2.3461  -2.0555  -1.9041  -1.8525  -1.7594  -1.5372  -1.4681  -1.4255
    -1.3355  -1.1343  -0.9363  -0.8631  -0.7372  -0.6683  -0.6170  -0.5425
    -0.4399  -0.3524  -0.1887  -0.1479  -0.0588  -0.0187   0.0927   0.2091
     0.3051   0.4040   0.4738   0.5162   0.6508   0.7854   0.8768   0.9377
     1.0701   1.1184   1.2808   1.4557   1.5640   1.5923   1.6734   1.7434
     1.9216   2.0147   2.1486   2.2288   2.2343   2.3864   2.4322   2.6223
     2.6577   2.6927   2.7503   2.8729   2.9216   2.9835   3.1682   3.2691
     3.3190   3.3671   3.4550   3.5671   3.5980   3.7305   3.7857   3.8315
     3.8788   4.0110   4.0268   4.1435   4.1724   4.2364   4.2939   4.2966
     4.4052   4.4724   4.5724   4.5813   4.7139   4.7546   4.7816   4.8570
     4.8785   5.0516   5.0907   5.1828   5.2224   5.2617   5.3232   5.3535
     5.4795   5.5370   5.6208   5.6736   5.7434   5.8229   5.8816   5.9395
     5.9641   6.0697   6.1008   6.1617   6.2329   6.2475   6.2736   6.3655
     6.4443   6.4617   6.5912   6.6410   6.6762   6.6985   6.7867   6.8540
     6.9690   6.9925   7.0603   7.1335   7.1916   7.2780   7.3148   7.3316
     7.3601   7.4058   7.4853   7.5589   7.6692   7.7425   7.8309   7.9167
     7.9518   8.0079

     the Fermi energy is     6.4085 ev

!    total energy              =    -500.84287107 Ry
     estimated scf accuracy    <       0.00000015 Ry
     smearing contrib. (-TS)   =      -0.15207073 Ry
     internal energy E=F+TS    =    -500.69080034 Ry

     The total energy is F=E-TS. E is the sum of the following terms:
     one-electron contribution =     116.63182679 Ry
     hartree contribution      =      52.68058373 Ry
     xc contribution           =    -151.08835388 Ry
     ewald contribution        =    -518.91485698 Ry

     convergence has been achieved in  21 iterations

     Forces acting on atoms (cartesian axes, Ry/au):

     atom    1 type  1   force =    -0.06542291    0.07895120   -0.02201249
     atom    2 type  1   force =     0.02416922    0.06825510    0.02988443
     atom    3 type  1   force =    -0.00498937    0.00736973   -0.01211814
     atom    4 type  1   force =     0.01743620    0.03039312   -0.06360074
     atom    5 type  1   force =    -0.03152012   -0.10358899   -0.04732571
     atom    6 type  1   force =    -0.01272060    0.02295784   -0.04413035
     atom    7 type  1   force =     0.01265916   -0.03901754   -0.00520901
     atom    8 type  1   force =     0.01404869   -0.02212254    0.03297524
     atom    9 type  1   force =     0.00531363    0.01924928    0.06725072
     atom   10 type  1   force =     0.00047792   -0.07714518   -0.00319307
     atom   11 type  1   force =     0.00121436   -0.02134459   -0.00752606
     atom   12 type  1   force =     0.08224313    0.09240713    0.02942242
     atom   13 type  1   force =    -0.01751582    0.05265449   -0.03294800
     atom   14 type  1   force =    -0.01855615   -0.04904157   -0.00268225
     atom   15 type  1   force =     0.05801937   -0.01587163    0.01695553
     atom   16 type  1   force =     0.06665413   -0.07751996   -0.01087629
     atom   17 type  1   force =     0.00009696    0.03425784   -0.00311845
     atom   18 type  1   force =     0.01843269    0.01041436   -0.00183788
     atom   19 type  1   force =    -0.05050145    0.00882324   -0.04291458
     atom   20 type  1   force =    -0.01265723    0.01079985   -0.03148565
     atom   21 type  1   force =     0.00947554   -0.00694374   -0.01296834
     atom   22 type  1   force =    -0.02521075    0.04174020   -0.00095656
     atom   23 type  1   force =    -0.00731032    0.01670784    0.02835619
     atom   24 type  1   force =    -0.00760150    0.00419574   -0.00575942
     atom   25 type  1   force =    -0.02942982   -0.01085464    0.03733894
     atom   26 type  1   force =    -0.01672400    0.01072773    0.00077684
     atom   27 type  1   force =     0.01821644   -0.00639856    0.00007777
     atom   28 type  1   force =    -0.00955448   -0.02503168    0.01367820
     atom   29 type  1   force =     0.00491618    0.02214364    0.00857827
     atom   30 type  1   force =     0.03152924    0.03529306    0.00264989
     atom   31 type  1   force =     0.00042318   -0.02737358    0.03083300
     atom   32 type  1   force =    -0.01046084    0.00834714   -0.00137906
     atom   33 type  1   force =    -0.03701759   -0.00262391   -0.00802988
     atom   34 type  1   force =     0.01394039   -0.00595572   -0.02182623
     atom   35 type  1   force =     0.01517636   -0.01765424    0.03324266
     atom   36 type  1   force =    -0.02028116    0.00727820    0.00916220
     atom   37 type  1   force =    -0.00904376   -0.01691083   -0.00974188
     atom   38 type  1   force =    -0.00608913   -0.02102621    0.01928300
     atom   39 type  1   force =     0.00321532   -0.02412877   -0.00395390
     atom   40 type  1   force =    -0.02208955    0.01294990    0.01206439
     atom   41 type  1   force =    -0.00254681    0.04467928   -0.02654904
     atom   42 type  1   force =    -0.03298431    0.04079485    0.03375318
     atom   43 type  1   force =    -0.02332025   -0.01099119    0.05308300
     atom   44 type  1   force =     0.01350611    0.00899675   -0.04153830
     atom   45 type  1   force =     0.01829774   -0.03407535    0.00096784
     atom   46 type  1   force =    -0.00518906    0.06590747    0.10507432
     atom   47 type  1   force =     0.00594778    0.06958254   -0.05569737
     atom   48 type  1   force =     0.02580270    0.01743915   -0.03169108
     atom   49 type  1   force =    -0.01685932   -0.01288945   -0.00130959
     atom   50 type  1   force =     0.09061287   -0.03949843    0.01984836
     atom   51 type  1   force =     0.01575580    0.00190746    0.01469766
     atom   52 type  1   force =    -0.00870256   -0.00511596   -0.00154614
     atom   53 type  1   force =    -0.01204543   -0.00271363    0.00544197
     atom   54 type  1   force =    -0.03004955   -0.00364893   -0.03014472
     atom   55 type  1   force =    -0.02414888   -0.00012647    0.03498119
     atom   56 type  1   force =     0.00191151    0.00952878    0.01622131
     atom   57 type  1   force =     0.00622997   -0.04613908   -0.08687044
     atom   58 type  1   force =     0.02348118    0.00709527    0.00446867
     atom   59 type  1   force =     0.01687869   -0.06658214    0.03961449
     atom   60 type  1   force =     0.01396582    0.02594114    0.01173525
     atom   61 type  1   force =    -0.05044000    0.00468021   -0.05195026
     atom   62 type  1   force =    -0.01706174   -0.00233721    0.00119114
     atom   63 type  1   force =    -0.00652940   -0.06456294    0.00974111
     atom   64 type  1   force =     0.01452556   -0.03323487   -0.00045828

     Total force =     0.449358     Total SCF correction =     0.000713


     Computing stress (Cartesian axis) and pressure

          total   stress  (Ry/bohr**3)                   (kbar)     P=       -0.52
   0.00004073   0.00006374  -0.00000665            5.99        9.38       -0.98
   0.00006374  -0.00003256   0.00002964            9.38       -4.79        4.36
  -0.00000665   0.00002964  -0.00001881           -0.98        4.36       -2.77

 
     init_run     :      0.94s CPU      4.43s WALL (       1 calls)
     electrons    :      1.93s CPU      2.10s WALL (       1 calls)
     forces       :      0.03s CPU      0.03s WALL (       1 calls)
     stress       :      0.14s CPU      0.15s WALL (       1 calls)

     Called by init_run:
     wfcinit      :      0.44s CPU      3.77s WALL (       1 calls)
                                        3.77s GPU  (       1 calls)
     potinit      :      0.04s CPU      0.12s WALL (       1 calls)
     hinit0       :      0.45s CPU      0.48s WALL (       1 calls)

     Called by electrons:
     c_bands      :      1.27s CPU      1.35s WALL (      22 calls)
     sum_band     :      0.33s CPU      0.39s WALL (      22 calls)
     v_of_rho     :      0.14s CPU      0.23s WALL (      22 calls)
     mix_rho      :      0.16s CPU      0.18s WALL (      22 calls)

     Called by c_bands:
     init_us_2    :      0.06s CPU      0.06s WALL (      45 calls)
     init_us_2:gp :      0.05s CPU      0.06s WALL (      45 calls)
     regterg      :      1.12s CPU      1.19s WALL (      22 calls)

     Called by *egterg:
     rdiaghg      :      0.48s CPU      1.16s WALL (     111 calls)
                                        1.14s GPU  (     111 calls)
     h_psi        :      0.88s CPU      3.58s WALL (     113 calls)
                                        3.58s GPU  (     113 calls)
     g_psi        :      0.00s CPU      0.00s WALL (      90 calls)
                                        0.00s GPU  (      90 calls)

     Called by h_psi:
     h_psi:calbec :      0.42s CPU      3.05s WALL (     113 calls)
                                        3.05s GPU  (     113 calls)
     vloc_psi     :      0.40s CPU      0.47s WALL (     113 calls)
                                        0.46s GPU  (     113 calls)
     add_vuspsi   :      0.04s CPU      0.06s WALL (     113 calls)
                                        0.06s GPU  (     113 calls)

     General routines
     calbec       :      0.43s CPU      3.05s WALL (     118 calls)
     fft          :      0.57s CPU      0.69s WALL (     183 calls)
                                        0.12s GPU  (     116 calls)
     ffts         :      0.03s CPU      0.04s WALL (      22 calls)
     fftw         :      0.49s CPU      0.63s WALL (    2334 calls)
                                        0.55s GPU  (    2334 calls)
 
     Parallel routines
 
     PWSCF        :      3.08s CPU      6.79s WALL

 
   This run was terminated on:   9:50:19  11May2023            

=------------------------------------------------------------------------------=
   JOB DONE.
=------------------------------------------------------------------------------=
