ITEM: TIMESTEP
0
ITEM: NUMBER OF ATOMS
64
ITEM: BOX BOUNDS pp pp pp
1.8942199823966277e-02 1.0842457800175595e+01
1.8942199823966277e-02 1.0842457800175595e+01
1.8942199823966277e-02 1.0842457800175595e+01
ITEM: ATOMS id type xs ys zs
7 1 0.226117 0.015058 0.218334
55 1 0.273577 0.210834 0.092556
40 1 0.487455 0.446817 0.195852
26 1 0.0219544 0.377741 0.0192341
54 1 0.476487 0.225459 0.177738
44 1 0.126577 0.32007 0.456339
30 1 0.204801 0.496003 0.00306616
64 1 0.101379 0.206261 0.245175
51 1 0.330603 0.332628 0.309932
19 1 0.4936 0.0829004 0.0401189
46 1 0.123099 0.448556 0.214436
57 1 0.481657 0.132475 0.442448
16 1 0.953815 0.427815 0.364867
60 1 0.662369 0.0830926 0.297627
56 1 0.602703 0.333276 0.381261
11 1 0.805472 0.071469 0.0373323
50 1 0.925307 0.0575565 0.324959
28 1 0.430101 0.954529 0.25448
49 1 0.274092 0.832156 0.0462586
47 1 0.204874 0.593485 0.384826
43 1 0.308506 0.606559 0.166337
58 1 0.381064 0.766891 0.391541
4 1 0.459971 0.722931 0.0573233
45 1 0.163672 0.75814 0.202186
22 1 0.151531 0.825991 0.458712
35 1 0.585476 0.70541 0.295829
52 1 0.652527 0.918227 0.143773
10 1 0.786372 0.639674 0.228274
34 1 0.696909 0.735653 0.0670972
5 1 0.980586 0.926011 0.144904
62 1 0.957727 0.73958 0.365422
2 1 0.780031 0.565839 0.44185
18 1 0.385628 0.058305 0.647129
20 1 0.440532 0.394815 0.530503
59 1 0.0334535 0.102555 0.518607
1 1 0.206912 0.167238 0.653095
21 1 0.284208 0.356503 0.796836
15 1 0.0982883 0.205242 0.834016
6 1 0.220673 0.491025 0.58006
36 1 0.590077 0.301194 0.646668
17 1 0.682232 0.115725 0.662807
33 1 0.703255 0.204431 0.924731
13 1 0.838645 0.0239728 0.537684
3 1 0.899357 0.320422 0.789707
61 1 0.881184 0.0910543 0.806041
63 1 0.505036 0.228978 0.860499
31 1 0.904223 0.396304 0.570847
25 1 0.763385 0.467882 0.86264
38 1 0.0737319 0.897921 0.650032
9 1 0.49322 0.511829 0.761225
23 1 0.164791 0.937398 0.864539
29 1 0.445308 0.832155 0.87307
27 1 0.0784868 0.502657 0.752596
12 1 0.320406 0.866096 0.604449
41 1 0.916379 0.648093 0.694247
32 1 0.979459 0.830669 0.966605
42 1 0.583413 0.555731 0.531095
39 1 0.543031 0.901677 0.536631
37 1 0.746485 0.722138 0.861981
24 1 0.657513 0.934686 0.89733
53 1 0.80696 0.891581 0.738778
48 1 0.581006 0.551003 0.961385
8 1 0.931878 0.642382 0.940457
14 1 0.562661 0.748168 0.69152
ITEM: TIMESTEP
1000
ITEM: NUMBER OF ATOMS
64
ITEM: BOX BOUNDS pp pp pp
-6.3675859265218904e-02 1.0925075859264778e+01
-6.3675859265218904e-02 1.0925075859264778e+01
-6.3675859265218904e-02 1.0925075859264778e+01
ITEM: ATOMS id type xs ys zs
26 1 0.306273 0.262296 0.144014
54 1 0.344752 0.320373 0.445296
46 1 0.15369 0.306094 0.31299
50 1 0.0706317 0.067166 0.259492
4 1 0.486403 0.467068 0.172914
22 1 0.341628 0.149334 0.327182
3 1 0.0893698 0.243719 0.125389
24 1 0.0514896 0.167301 0.452783
57 1 0.587569 0.0813726 0.303559
56 1 0.770306 0.316557 0.168247
11 1 0.688454 0.097471 0.0772148
47 1 0.952018 0.418204 0.181221
52 1 0.866862 0.0129174 0.399683
21 1 0.561291 0.265466 0.155349
17 1 0.660234 0.452045 0.341869
53 1 0.678538 0.179737 0.473744
40 1 0.466134 0.753702 0.142826
51 1 0.251306 0.91851 0.248242
28 1 0.220819 0.855941 0.459279
58 1 0.459039 0.59355 0.338947
39 1 0.35458 0.910855 0.0646532
48 1 0.116201 0.873069 0.076937
14 1 0.449629 0.878504 0.385821
60 1 0.985462 0.601737 0.3043
43 1 0.655288 0.543787 0.0914286
62 1 0.950136 0.786912 0.431915
20 1 0.755059 0.655174 0.239362
31 1 0.625897 0.765846 0.387748
23 1 0.684736 0.863695 0.0550688
41 1 0.898903 0.823135 0.0384359
37 1 0.749024 0.890429 0.251031
7 1 0.190393 0.473148 0.78401
55 1 0.460629 0.208772 0.595386
1 1 0.206508 0.032083 0.941709
6 1 0.424393 0.417078 0.760062
36 1 0.27012 0.213382 0.747724
33 1 0.414264 0.0888877 0.894
13 1 0.0703195 0.276036 0.667256
38 1 0.232624 0.103774 0.56784
30 1 0.97491 0.465227 0.842341
34 1 0.816449 0.251008 0.919017
18 1 0.9645 0.0789446 0.993203
61 1 0.75394 0.257725 0.663671
25 1 0.652492 0.442289 0.708564
9 1 0.630077 0.126761 0.868295
32 1 0.640507 0.0582474 0.671088
42 1 0.503155 0.422251 0.552348
8 1 0.903447 0.171693 0.755774
44 1 0.392441 0.598308 0.828848
19 1 0.355895 0.910495 0.796308
49 1 0.499012 0.759417 0.916179
45 1 0.41701 0.926499 0.584002
35 1 0.145605 0.581036 0.581534
2 1 0.10323 0.928003 0.626909
63 1 0.380028 0.624654 0.543702
27 1 0.0265413 0.775516 0.758987
12 1 0.244508 0.723653 0.731406
64 1 0.843359 0.588105 0.988164
16 1 0.773296 0.710027 0.554389
10 1 0.953977 0.559373 0.520769
5 1 0.882849 0.93191 0.816173
59 1 0.845377 0.628085 0.777609
15 1 0.656189 0.892024 0.53662
29 1 0.572462 0.712538 0.667066
ITEM: TIMESTEP
2000
ITEM: NUMBER OF ATOMS
64
ITEM: BOX BOUNDS pp pp pp
-6.1662839424601046e-03 1.0867566283941986e+01
-6.1662839424601046e-03 1.0867566283941986e+01
-6.1662839424601046e-03 1.0867566283941986e+01
ITEM: ATOMS id type xs ys zs
26 1 0.416141 0.129229 0.256858
54 1 0.430784 0.382846 0.313166
50 1 0.322357 0.0549251 0.450049
22 1 0.485048 0.220198 0.49533
3 1 0.283279 0.338022 0.145586
24 1 0.128877 0.467109 0.183827
56 1 0.0470428 0.253373 0.100734
11 1 0.19893 0.107981 0.212995
36 1 0.407556 0.0539884 0.0264168
15 1 0.137286 0.306711 0.32709
4 1 0.607375 0.491126 0.394823
21 1 0.749931 0.450559 0.210761
17 1 0.719959 0.208153 0.143574
18 1 0.973125 0.00472199 0.091959
42 1 0.888147 0.390348 0.378112
64 1 0.720063 0.134513 0.341016
52 1 0.0867271 0.968741 0.325633
39 1 0.147297 0.853197 0.0543614
48 1 0.180143 0.779178 0.348959
14 1 0.394088 0.801183 0.177453
62 1 0.367467 0.5316 0.166163
10 1 0.0874654 0.680035 0.164225
58 1 0.569541 0.927271 0.336442
23 1 0.878227 0.643194 0.180568
41 1 0.558077 0.997983 0.131675
34 1 0.730417 0.655186 0.32957
2 1 0.886423 0.944938 0.296384
63 1 0.613727 0.569241 0.13097
46 1 0.0771665 0.475498 0.884727
53 1 0.49925 0.295729 0.799277
7 1 0.203434 0.144482 0.955012
55 1 0.270407 0.252227 0.518371
38 1 0.118776 0.362527 0.556834
61 1 0.135151 0.147467 0.711514
25 1 0.291229 0.345595 0.900283
8 1 0.00349628 0.00609525 0.607422
19 1 0.38388 0.125352 0.702389
57 1 0.772024 0.233569 0.544596
47 1 0.603514 0.45015 0.900236
60 1 0.860195 0.262478 0.966157
20 1 0.898245 0.207694 0.725745
31 1 0.587401 0.392601 0.586816
37 1 0.777905 0.0138691 0.501438
33 1 0.986194 0.0780672 0.881866
13 1 0.743088 0.447848 0.735684
44 1 0.838255 0.494294 0.96914
35 1 0.954143 0.424075 0.645228
5 1 0.679056 0.125958 0.760238
51 1 0.249714 0.930376 0.667197
1 1 0.400754 0.900435 0.842011
6 1 0.305884 0.526782 0.721734
30 1 0.488345 0.606259 0.561518
9 1 0.436418 0.620775 0.838295
49 1 0.253539 0.700482 0.522364
45 1 0.0316177 0.679337 0.521615
27 1 0.312008 0.739888 0.988508
29 1 0.109915 0.612569 0.711076
40 1 0.597869 0.872127 0.962698
28 1 0.855472 0.815144 0.568013
43 1 0.578681 0.741446 0.734222
32 1 0.563873 0.997993 0.545537
12 1 0.959869 0.699202 0.892072
16 1 0.780576 0.802283 0.833604
59 1 0.809387 0.582691 0.539752
ITEM: TIMESTEP
3000
ITEM: NUMBER OF ATOMS
64
ITEM: BOX BOUNDS pp pp pp
-1.3793090423786403e-02 1.0875193090423366e+01
-1.3793090423786403e-02 1.0875193090423366e+01
-1.3793090423786403e-02 1.0875193090423366e+01
ITEM: ATOMS id type xs ys zs
24 1 0.362618 0.278731 0.257482
11 1 0.123976 0.0971531 0.2438
41 1 0.450584 0.029763 0.267949
2 1 0.109546 0.345416 0.0967382
55 1 0.392617 0.170116 0.468334
57 1 0.43506 0.450928 0.389065
37 1 0.165499 0.245723 0.446572
33 1 0.181274 0.107818 0.0405707
54 1 0.559934 0.394866 0.222945
21 1 0.937126 0.2003 0.499904
64 1 0.647108 0.346072 0.453173
46 1 0.920719 0.0197023 0.337182
38 1 0.98544 0.498368 0.216815
40 1 0.611751 0.190469 0.056711
16 1 0.964659 0.0282488 0.02156
26 1 0.299344 0.88192 0.322584
15 1 0.242215 0.500674 0.186747
18 1 0.230259 0.689413 0.0488934
52 1 0.00264139 0.770251 0.277551
47 1 0.412507 0.867158 0.00157302
35 1 0.103049 0.620502 0.408686
6 1 0.386579 0.710271 0.486514
27 1 0.376021 0.654157 0.286712
56 1 0.679804 0.87367 0.38414
17 1 0.515729 0.589253 0.0929602
62 1 0.615384 0.566021 0.452487
23 1 0.604596 0.727625 0.242784
34 1 0.721439 0.541506 0.128878
51 1 0.569577 0.976393 0.103951
1 1 0.776017 0.980833 0.186389
45 1 0.959049 0.669522 0.0866017
28 1 0.812247 0.547529 0.354478
22 1 0.472445 0.273377 0.656714
36 1 0.284489 0.363945 0.733475
48 1 0.214593 0.496755 0.877845
53 1 0.468421 0.476699 0.925181
7 1 0.400274 0.271067 0.967216
25 1 0.28258 0.0304382 0.602401
8 1 0.316523 0.0515182 0.907618
29 1 0.0630882 0.482174 0.669896
12 1 0.113426 0.209973 0.67415
39 1 0.661827 0.418563 0.845656
10 1 0.959482 0.473859 0.973633
19 1 0.573343 0.0935599 0.779675
60 1 0.923382 0.274724 0.767436
20 1 0.839483 0.0259148 0.672202
31 1 0.508783 0.482946 0.620691
44 1 0.797135 0.263029 0.95529
5 1 0.67422 0.150562 0.589409
59 1 0.819537 0.422772 0.623382
3 1 0.190317 0.875314 0.747125
42 1 0.25178 0.567451 0.571244
14 1 0.161303 0.874449 0.511474
63 1 0.0673667 0.837548 0.992203
13 1 0.489491 0.70503 0.916605
43 1 0.243524 0.699579 0.81887
50 1 0.960556 0.930681 0.525758
4 1 0.774745 0.611674 0.906495
58 1 0.578789 0.863929 0.77038
61 1 0.977323 0.908111 0.793348
30 1 0.688206 0.616815 0.677319
9 1 0.967002 0.660124 0.761557
49 1 0.894926 0.673474 0.524247
32 1 0.659501 0.802486 0.588667
ITEM: TIMESTEP
4000
ITEM: NUMBER OF ATOMS
64
ITEM: BOX BOUNDS pp pp pp
9.6277529253629979e-04 1.0860437224707052e+01
9.6277529253629979e-04 1.0860437224707052e+01
9.6277529253629979e-04 1.0860437224707052e+01
ITEM: ATOMS id type xs ys zs
57 1 0.118847 0.247678 0.414314
37 1 0.030033 0.411237 0.291842
33 1 0.375945 0.262145 0.173392
21 1 0.386243 0.267525 0.378279
15 1 0.22916 0.450428 0.150013
24 1 0.52981 0.439318 0.192193
11 1 0.964276 0.0362586 0.274162
41 1 0.84581 0.249371 0.253059
64 1 0.98542 0.110507 0.454665
40 1 0.687016 0.295317 0.12098
28 1 0.759193 0.457848 0.451921
7 1 0.754321 0.0520389 0.486164
8 1 0.685711 0.0913791 0.0446599
42 1 0.58857 0.198906 0.36877
61 1 0.923087 0.211093 0.0233902
2 1 0.00781653 0.568205 0.0430073
46 1 0.479137 0.725795 0.0853112
35 1 0.153333 0.912799 0.258756
23 1 0.118231 0.682822 0.294448
51 1 0.353014 0.9939 0.228395
48 1 0.259583 0.619273 0.0262704
53 1 0.288934 0.903824 0.049541
14 1 0.101295 0.774152 0.0438683
13 1 0.269455 0.548183 0.350193
50 1 0.480498 0.80159 0.451517
32 1 0.455928 0.659244 0.287142
38 1 0.911642 0.626002 0.233406
52 1 0.883187 0.848999 0.312805
47 1 0.685459 0.793945 0.162414
56 1 0.687551 0.626668 0.317477
17 1 0.689866 0.506524 0.0255781
1 1 0.737946 0.822529 0.487881
45 1 0.859091 0.944601 0.0998245
25 1 0.589055 0.99527 0.244776
22 1 0.420089 0.447008 0.948412
36 1 0.132791 0.271875 0.695284
29 1 0.265197 0.202926 0.529294
12 1 0.348535 0.235101 0.74107
19 1 0.437415 0.142853 0.974797
63 1 0.0656386 0.101264 0.898515
55 1 0.733949 0.299379 0.775811
16 1 0.83388 0.0931069 0.838483
62 1 0.647072 0.253087 0.563713
39 1 0.577768 0.142185 0.752637
60 1 0.978186 0.0279351 0.676031
31 1 0.551334 0.434688 0.559896
44 1 0.948094 0.278316 0.75999
54 1 0.351247 0.506774 0.547768
26 1 0.200228 0.653229 0.618973
18 1 0.129445 0.856833 0.576908
6 1 0.457025 0.720376 0.665093
59 1 0.0644871 0.500952 0.771989
3 1 0.221599 0.98108 0.77805
4 1 0.437223 0.681716 0.89245
58 1 0.461838 0.953109 0.747196
27 1 0.9125 0.777488 0.924414
34 1 0.700046 0.734409 0.954529
10 1 0.927794 0.720201 0.728145
20 1 0.638081 0.925809 0.830541
5 1 0.793915 0.945429 0.682912
43 1 0.973759 0.74029 0.501494
30 1 0.664368 0.537647 0.821354
9 1 0.745125 0.620722 0.632218
49 1 0.939139 0.537755 0.549511
ITEM: TIMESTEP
5000
ITEM: NUMBER OF ATOMS
64
ITEM: BOX BOUNDS pp pp pp
-8.2460017168942912e-02 1.0943860017168593e+01
-8.2460017168942912e-02 1.0943860017168593e+01
-8.2460017168942912e-02 1.0943860017168593e+01
ITEM: ATOMS id type xs ys zs
33 1 0.202697 0.348534 0.0867412
24 1 0.482008 0.294049 0.357794
11 1 0.110097 0.206581 0.392278
51 1 0.398475 0.264314 0.118866
25 1 0.137093 0.0825162 0.20821
19 1 0.432798 0.100686 0.417469
31 1 0.316178 0.414052 0.420874
41 1 0.997232 0.380133 0.382215
40 1 0.781955 0.347369 0.444341
42 1 0.72664 0.17561 0.341115
38 1 0.992214 0.0305023 0.0630229
56 1 0.951323 0.404859 0.153257
55 1 0.875246 0.225873 0.18203
34 1 0.659748 0.440937 0.303093
15 1 0.190002 0.522499 0.194002
64 1 0.264977 0.905779 0.246372
23 1 0.0493605 0.718444 0.187977
13 1 0.409725 0.568088 0.220901
50 1 0.417115 0.83472 0.433635
32 1 0.268828 0.73232 0.129593
18 1 0.276713 0.659979 0.396648
20 1 0.0372723 0.68667 0.452812
37 1 0.880145 0.63992 0.288103
21 1 0.600759 0.975591 0.345569
8 1 0.712282 0.965508 0.0450841
46 1 0.873725 0.857561 0.182508
52 1 0.756924 0.808914 0.366691
17 1 0.916082 0.55511 0.0192796
44 1 0.721943 0.528477 0.123453
26 1 0.752122 0.733285 0.0204435
43 1 0.582591 0.696848 0.180597
9 1 0.549986 0.575328 0.431231
57 1 0.252221 0.142754 0.55308
2 1 0.0153536 0.442957 0.879128
35 1 0.187675 0.142104 0.996128
22 1 0.23264 0.485132 0.893524
12 1 0.478855 0.374939 0.942724
63 1 0.0116972 0.235939 0.8333
60 1 0.10651 0.300732 0.652311
54 1 0.360067 0.324802 0.624078
3 1 0.293932 0.212569 0.769264
28 1 0.554629 0.254016 0.553282
7 1 0.946211 0.239361 0.548206
45 1 0.830227 0.221336 0.940017
39 1 0.560866 0.00168406 0.880568
27 1 0.874184 0.0185518 0.877911
10 1 0.68877 0.401121 0.866708
49 1 0.738856 0.301414 0.677575
61 1 0.0656538 0.929413 0.640824
53 1 0.162958 0.944508 0.849123
36 1 0.370544 0.986163 0.771121
29 1 0.263585 0.935502 0.551794
59 1 0.197567 0.517965 0.685286
4 1 0.352242 0.701996 0.890083
58 1 0.346179 0.757776 0.691144
30 1 0.410193 0.55246 0.645857
48 1 0.547579 0.640048 0.971536
14 1 0.962061 0.827386 0.887373
47 1 0.742863 0.648894 0.500863
1 1 0.787138 0.760897 0.73075
16 1 0.718332 0.986501 0.713946
62 1 0.56084 0.976401 0.562405
6 1 0.866059 0.948937 0.557868
5 1 0.621484 0.563601 0.743913
ITEM: TIMESTEP
6000
ITEM: NUMBER OF ATOMS
64
ITEM: BOX BOUNDS pp pp pp
8.8514165714832949e-02 1.0772885834284835e+01
8.8514165714832949e-02 1.0772885834284835e+01
8.8514165714832949e-02 1.0772885834284835e+01
ITEM: ATOMS id type xs ys zs
24 1 0.424037 0.332317 0.211669
25 1 0.0947241 0.084417 0.114268
19 1 0.426761 0.141122 0.488664
38 1 0.230349 0.188061 0.245382
21 1 0.374473 0.0121438 0.29701
8 1 0.308689 0.370388 0.0296226
63 1 0.130392 0.400954 0.236781
61 1 0.0155448 0.0557892 0.496245
59 1 0.178474 0.288031 0.441359
11 1 0.885277 0.0248995 0.260981
42 1 0.9191 0.266004 0.37291
55 1 0.778088 0.233194 0.216333
34 1 0.502311 0.357403 0.409913
23 1 0.508582 0.101161 0.131084
37 1 0.615671 0.11503 0.319728
35 1 0.991953 0.247813 0.0527382
54 1 0.79019 0.443446 0.451691
4 1 0.544965 0.499456 0.104877
51 1 0.220779 0.63854 0.121682
64 1 0.359196 0.592623 0.289493
13 1 0.0527161 0.508701 0.486681
50 1 0.399769 0.755932 0.477054
32 1 0.238653 0.845136 0.217401
62 1 0.178209 0.901134 0.414603
40 1 0.813143 0.638325 0.205134
20 1 0.984392 0.75178 0.331819
52 1 0.528891 0.738085 0.289429
44 1 0.63783 0.503349 0.291674
26 1 0.71205 0.841056 0.201923
43 1 0.639541 0.94429 0.000787824
2 1 0.96558 0.808973 0.129742
22 1 0.516876 0.75117 0.0506266
28 1 0.688683 0.976814 0.477666
14 1 0.88409 0.995589 0.00305241
33 1 0.34914 0.1918 0.921025
18 1 0.0291155 0.451855 0.704126
60 1 0.108997 0.374593 0.913396
3 1 0.28801 0.00605469 0.993474
7 1 0.163012 0.158999 0.61972
49 1 0.341829 0.249783 0.691772
47 1 0.260557 0.446838 0.758448
31 1 0.5026 0.399881 0.666621
41 1 0.856708 0.365173 0.806693
56 1 0.857523 0.220721 0.631733
46 1 0.962125 0.0975258 0.809426
17 1 0.724693 0.498128 0.667739
57 1 0.619219 0.156431 0.886241
12 1 0.616236 0.394967 0.881595
10 1 0.652055 0.0967257 0.675096
48 1 0.782875 0.230869 0.990689
9 1 0.495884 0.651316 0.676388
45 1 0.0109362 0.766383 0.528641
53 1 0.09915 0.952796 0.742847
36 1 0.482564 0.832584 0.809533
29 1 0.147495 0.654915 0.74855
58 1 0.234572 0.849129 0.60867
30 1 0.415888 0.566256 0.889516
16 1 0.473453 0.940576 0.610483
5 1 0.228351 0.830838 0.870996
15 1 0.93032 0.58363 0.974536
39 1 0.871665 0.96463 0.641338
27 1 0.931381 0.781369 0.876835
1 1 0.802184 0.739661 0.676637
6 1 0.653712 0.65136 0.875106
ITEM: TIMESTEP
7000
ITEM: NUMBER OF ATOMS
64
ITEM: BOX BOUNDS pp pp pp
-1.0624892125181429e-01 1.0967648921251477e+01
-1.0624892125181429e-01 1.0967648921251477e+01
-1.0624892125181429e-01 1.0967648921251477e+01
ITEM: ATOMS id type xs ys zs
61 1 0.315709 0.0335444 0.202862
59 1 0.382822 0.244372 0.162879
37 1 0.322641 0.224173 0.405753
40 1 0.179883 0.368915 0.483592
20 1 0.00125425 0.43404 0.189098
43 1 0.265 0.433851 0.0753942
41 1 0.161898 0.499157 0.292054
24 1 0.712139 0.375726 0.0858473
52 1 0.806481 0.0752536 0.221363
44 1 0.852309 0.36932 0.415734
26 1 0.533735 0.0888602 0.315018
33 1 0.953654 0.287001 0.0204441
7 1 0.839354 0.129895 0.416993
56 1 0.586197 0.338367 0.247002
8 1 0.0340275 0.709672 0.231513
63 1 0.479033 0.561537 0.360351
55 1 0.0324772 0.592302 0.463933
54 1 0.102139 0.988449 0.217359
50 1 0.441835 0.740692 0.167277
62 1 0.269689 0.862944 0.319962
3 1 0.2365 0.699266 0.110219
38 1 0.514469 0.822572 0.358308
21 1 0.732137 0.797162 0.454218
11 1 0.945032 0.882965 0.330148
64 1 0.56246 0.573701 0.105103
2 1 0.533732 0.998578 0.104648
22 1 0.685414 0.714164 0.225802
28 1 0.723911 0.533596 0.34098
5 1 0.984193 0.84442 0.0794223
1 1 0.798984 0.564589 0.148443
19 1 0.0698761 0.145083 0.502046
34 1 0.444888 0.328271 0.526931
35 1 0.0571552 0.459714 0.979934
32 1 0.415034 0.290446 0.946121
49 1 0.192083 0.475698 0.706394
47 1 0.279178 0.220087 0.652207
12 1 0.481323 0.258812 0.729307
30 1 0.370463 0.0734055 0.946702
16 1 0.352882 0.0328847 0.515785
25 1 0.920517 0.119175 0.678162
23 1 0.592488 0.0111221 0.57722
13 1 0.980711 0.436588 0.606107
60 1 0.594091 0.42083 0.89612
46 1 0.683337 0.217428 0.58646
57 1 0.554798 0.00979871 0.862488
48 1 0.892 0.319172 0.769548
27 1 0.734103 0.182214 0.786834
42 1 0.12601 0.80621 0.719541
18 1 0.224557 0.743267 0.504666
10 1 0.356997 0.904903 0.767512
9 1 0.338165 0.586052 0.80573
53 1 0.415152 0.823599 0.591413
36 1 0.0918907 0.928224 0.51241
29 1 0.408582 0.54993 0.57417
15 1 0.125674 0.621209 0.86672
4 1 0.633006 0.607498 0.775698
51 1 0.851934 0.707514 0.650899
14 1 0.821691 0.52026 0.738498
31 1 0.627378 0.781601 0.634746
17 1 0.902473 0.638596 0.918164
45 1 0.816106 0.828367 0.965576
58 1 0.85089 0.935401 0.543389
39 1 0.735327 0.91551 0.751033
6 1 0.502358 0.770966 0.877645
ITEM: TIMESTEP
8000
ITEM: NUMBER OF ATOMS
64
ITEM: BOX BOUNDS pp pp pp
-4.2949425491430659e-02 1.0904349425491073e+01
-4.2949425491430659e-02 1.0904349425491073e+01
-4.2949425491430659e-02 1.0904349425491073e+01
ITEM: ATOMS id type xs ys zs
61 1 0.463965 0.146065 0.0565734
40 1 0.202609 0.489699 0.44955
52 1 0.187021 0.00348078 0.13992
26 1 0.445134 0.154633 0.334524
7 1 0.0336058 0.0468062 0.481683
8 1 0.100384 0.27975 0.225061
63 1 0.313492 0.272811 0.430091
19 1 0.0475069 0.255488 0.436058
34 1 0.449978 0.447136 0.00927501
30 1 0.33874 0.414729 0.197585
42 1 0.174428 0.330659 0.00618217
20 1 0.804656 0.183138 0.349811
24 1 0.716897 0.379932 0.0839665
33 1 0.810884 0.103543 0.0339281
56 1 0.63379 0.0271859 0.367254
11 1 0.850712 0.374907 0.301578
64 1 0.579741 0.26113 0.216156
28 1 0.671564 0.274509 0.446222
60 1 0.940918 0.277593 0.0599401
58 1 0.984085 0.0570548 0.269282
43 1 0.225116 0.635741 0.168148
41 1 0.200638 0.886838 0.485535
55 1 0.0426438 0.739675 0.42808
3 1 0.324045 0.96186 0.316045
38 1 0.289524 0.669458 0.402569
2 1 0.452928 0.945127 0.0718844
18 1 0.035822 0.541114 0.323397
51 1 0.0695881 0.786633 0.119699
14 1 0.0850384 0.502313 0.115537
6 1 0.463816 0.618285 0.168897
54 1 0.696056 0.932375 0.150214
62 1 0.693554 0.557821 0.307734
21 1 0.820293 0.710253 0.423253
53 1 0.574371 0.746512 0.284219
59 1 0.188571 0.0356906 0.93728
37 1 0.252762 0.290444 0.619668
44 1 0.498927 0.339229 0.617947
12 1 0.357167 0.249482 0.810284
25 1 0.154676 0.141402 0.704777
57 1 0.383081 0.0278801 0.867041
48 1 0.0127957 0.253758 0.825921
36 1 0.224088 0.410197 0.8236
15 1 0.343246 0.02941 0.640108
50 1 0.963389 0.45255 0.904642
1 1 0.904572 0.482915 0.521937
32 1 0.787319 0.365756 0.812717
23 1 0.532794 0.121209 0.560369
13 1 0.981088 0.319683 0.630462
46 1 0.689203 0.00966017 0.676106
27 1 0.639973 0.189523 0.904917
31 1 0.650769 0.48457 0.534969
9 1 0.387319 0.83626 0.533602
29 1 0.100591 0.901244 0.753083
22 1 0.637682 0.949206 0.883624
5 1 0.969481 0.961837 0.993893
35 1 0.988934 0.682616 0.944194
49 1 0.765112 0.650175 0.656848
47 1 0.984703 0.658344 0.640759
16 1 0.594576 0.749788 0.710399
10 1 0.922759 0.961642 0.634812
4 1 0.761553 0.555947 0.958114
17 1 0.851966 0.849466 0.819789
45 1 0.516087 0.650596 0.914284
39 1 0.663501 0.834181 0.521896
ITEM: TIMESTEP
9000
ITEM: NUMBER OF ATOMS
64
ITEM: BOX BOUNDS pp pp pp
-1.0805535020007007e-01 1.0969455350199731e+01
-1.0805535020007007e-01 1.0969455350199731e+01
-1.0805535020007007e-01 1.0969455350199731e+01
ITEM: ATOMS id type xs ys zs
19 1 0.162901 0.417011 0.433602
33 1 0.177662 0.266358 0.0141202
58 1 0.147113 0.0838536 0.150674
41 1 0.188599 0.165205 0.406331
62 1 0.00448352 0.373312 0.229587
23 1 0.42299 0.157995 0.337591
63 1 0.680759 0.163284 0.388534
30 1 0.579769 0.344751 0.297602
20 1 0.725264 0.0606349 0.177544
24 1 0.514665 0.361072 0.116753
11 1 0.9785 0.316558 0.459018
64 1 0.521431 0.111021 0.141392
13 1 0.776737 0.329181 0.482704
4 1 0.948396 0.173886 0.0871733
40 1 0.200521 0.607539 0.444239
52 1 0.335072 0.78653 0.398776
26 1 0.26375 0.978125 0.403606
8 1 0.386888 0.550564 0.0523111
55 1 0.0552858 0.858742 0.301483
18 1 0.099081 0.561141 0.139263
51 1 0.484595 0.783502 0.00521561
53 1 0.0997933 0.766152 0.0929318
50 1 0.312161 0.626503 0.236876
16 1 0.315287 0.876572 0.0995904
56 1 0.647678 0.690775 0.161649
28 1 0.571895 0.969402 0.402842
43 1 0.777938 0.636278 0.328367
2 1 0.564835 0.914942 0.174636
14 1 0.985772 0.630789 0.330303
6 1 0.659369 0.536331 0.0240806
45 1 0.886207 0.603388 0.0770803
61 1 0.274181 0.216382 0.667509
60 1 0.178723 0.440945 0.659612
54 1 0.430837 0.215797 0.921938
37 1 0.418149 0.425224 0.720589
36 1 0.072645 0.197705 0.589781
46 1 0.276241 0.350217 0.845179
27 1 0.0943175 0.0253316 0.981386
9 1 0.427043 0.0332823 0.614621
49 1 0.317173 0.0291956 0.92645
10 1 0.0979334 0.199373 0.833959
34 1 0.723891 0.362667 0.932427
44 1 0.519654 0.21059 0.747973
12 1 0.886566 0.113943 0.711673
32 1 0.949386 0.380075 0.97542
31 1 0.700324 0.156219 0.624768
22 1 0.992212 0.349145 0.752205
17 1 0.689283 0.156564 0.951885
3 1 0.255834 0.927052 0.756665
25 1 0.12927 0.822175 0.535808
29 1 0.376236 0.634657 0.815232
39 1 0.348996 0.727801 0.612633
7 1 0.740642 0.699688 0.536284
42 1 0.684592 0.507927 0.520144
38 1 0.52441 0.853361 0.574564
21 1 0.555695 0.763018 0.785826
59 1 0.780574 0.680582 0.856214
57 1 0.721771 0.880936 0.747861
48 1 0.618903 0.554034 0.761346
15 1 0.976744 0.983595 0.585497
1 1 0.905289 0.53872 0.509508
5 1 0.895334 0.814349 0.971818
35 1 0.546855 0.994701 0.855724
47 1 0.847127 0.512269 0.739522
ITEM: TIMESTEP
10000
ITEM: NUMBER OF ATOMS
64
ITEM: BOX BOUNDS pp pp pp
-2.8397418301003619e-02 1.0889797418300649e+01
-2.8397418301003619e-02 1.0889797418300649e+01
-2.8397418301003619e-02 1.0889797418300649e+01
ITEM: ATOMS id type xs ys zs
19 1 0.149879 0.236294 0.240808
30 1 0.311521 0.078695 0.164386
4 1 0.235413 0.204946 0.453942
3 1 0.419997 0.0257666 0.371548
5 1 0.0218567 0.491314 0.316017
33 1 0.734675 0.461953 0.0525281
62 1 0.942052 0.322086 0.0919343
11 1 0.977279 0.380156 0.486602
13 1 0.640939 0.215588 0.172285
28 1 0.774363 0.214888 0.461406
6 1 0.523631 0.402149 0.0612678
54 1 0.942142 0.114385 0.209655
36 1 0.814349 0.347979 0.274333
57 1 0.559808 0.249932 0.37328
26 1 0.20356 0.92065 0.417615
18 1 0.239854 0.625452 0.0206318
53 1 0.31208 0.729626 0.340472
56 1 0.46223 0.624155 0.159662
2 1 0.411392 0.827895 0.0834085
37 1 0.170909 0.574362 0.432495
58 1 0.911018 0.825378 0.244441
41 1 0.95834 0.869772 0.0470627
63 1 0.869982 0.992313 0.41107
20 1 0.690434 0.74437 0.139759
55 1 0.518298 0.713519 0.46125
51 1 0.522768 0.500311 0.46961
14 1 0.835258 0.619166 0.331344
45 1 0.651412 0.511873 0.279253
32 1 0.714192 0.992459 0.160684
17 1 0.505391 0.843424 0.280955
23 1 0.497997 0.202559 0.869614
24 1 0.294088 0.410396 0.989204
50 1 0.180017 0.396839 0.61796
61 1 0.0586143 0.0776526 0.51715
9 1 0.38034 0.346375 0.761187
10 1 0.200352 0.0934602 0.955908
12 1 0.26133 0.0369115 0.749392
22 1 0.176822 0.256646 0.840507
38 1 0.410324 0.0493882 0.595648
64 1 0.618986 0.396909 0.791566
43 1 0.982145 0.0753073 0.937613
60 1 0.983634 0.481769 0.687411
34 1 0.980681 0.265707 0.705994
44 1 0.810686 0.323798 0.893469
31 1 0.603108 0.17395 0.572191
29 1 0.61513 0.0130275 0.796271
21 1 0.797347 0.162487 0.709863
35 1 0.77298 0.12941 0.976207
40 1 0.103778 0.662692 0.580312
52 1 0.366876 0.515168 0.61391
46 1 0.216244 0.804942 0.715135
27 1 0.155072 0.564324 0.776157
49 1 0.481354 0.999517 0.977069
25 1 0.148935 0.821835 0.970622
39 1 0.346342 0.605999 0.828959
8 1 0.555572 0.592614 0.880757
16 1 0.784895 0.694863 0.881782
7 1 0.579745 0.881133 0.606799
42 1 0.686952 0.520986 0.604183
59 1 0.956274 0.763543 0.808475
48 1 0.758446 0.934446 0.934567
15 1 0.790506 0.931286 0.596655
1 1 0.870949 0.658201 0.530097
47 1 0.980684 0.953917 0.735554
ITEM: TIMESTEP
11000
ITEM: NUMBER OF ATOMS
64
ITEM: BOX BOUNDS pp pp pp
-1.1574425661026844e-02 1.0872974425660725e+01
-1.1574425661026844e-02 1.0872974425660725e+01
-1.1574425661026844e-02 1.0872974425660725e+01
ITEM: ATOMS id type xs ys zs
11 1 0.112376 0.347821 0.0855372
57 1 0.233406 0.419993 0.432637
37 1 0.359349 0.307635 0.071495
63 1 0.169723 0.199048 0.456991
34 1 0.341553 0.195298 0.326977
31 1 0.440848 0.0287407 0.266746
3 1 0.961789 0.0947676 0.0439286
13 1 0.606012 0.204287 0.15465
54 1 0.818047 0.497855 0.156391
36 1 0.545758 0.386349 0.313757
32 1 0.738879 0.116898 0.468547
23 1 0.51636 0.478789 0.0221169
61 1 0.994127 0.0355087 0.334396
10 1 0.820122 0.270046 0.0556625
60 1 0.788896 0.34779 0.352318
21 1 0.805903 0.15974 0.233866
30 1 0.275743 0.907582 0.133388
4 1 0.243584 0.732061 0.496721
6 1 0.368727 0.546438 0.1578
18 1 0.189992 0.625337 0.0734171
53 1 0.478845 0.766182 0.490316
58 1 0.0797968 0.850027 0.0455241
20 1 0.1035 0.513975 0.246377
14 1 0.214756 0.753062 0.293601
8 1 0.385078 0.595035 0.373297
5 1 0.952073 0.678837 0.0854781
33 1 0.658997 0.632359 0.0505558
2 1 0.706844 0.918841 0.364021
45 1 0.524629 0.765135 0.217261
29 1 0.568332 0.978816 0.110124
35 1 0.787583 0.856387 0.151136
49 1 0.737499 0.701921 0.491729
25 1 0.859319 0.581516 0.382638
15 1 0.889163 0.87537 0.468519
41 1 0.219347 0.460138 0.915595
51 1 0.445802 0.390166 0.551995
24 1 0.198597 0.369442 0.682913
9 1 0.39275 0.208845 0.740654
12 1 0.225628 0.0186568 0.611556
46 1 0.268518 0.1515 0.905643
59 1 0.0944986 0.202811 0.822994
62 1 0.891831 0.277244 0.825397
28 1 0.537132 0.164242 0.5258
17 1 0.668303 0.469263 0.501975
50 1 0.949662 0.185579 0.547854
22 1 0.983382 0.480888 0.721166
64 1 0.760606 0.447277 0.891319
43 1 0.6933 0.109548 0.893562
52 1 0.95603 0.401243 0.530607
42 1 0.640764 0.354312 0.733218
47 1 0.732793 0.171973 0.701865
19 1 0.240715 0.769612 0.914185
26 1 0.321139 0.605601 0.741777
56 1 0.44514 0.779557 0.991411
38 1 0.420283 0.995305 0.696546
40 1 0.110685 0.929429 0.759613
27 1 0.0596446 0.635586 0.851614
55 1 0.743285 0.651741 0.69547
44 1 0.800762 0.713952 0.887159
39 1 0.506289 0.79024 0.74459
16 1 0.549618 0.564055 0.799721
7 1 0.537407 0.95864 0.888717
48 1 0.865105 0.974191 0.854707
1 1 0.895605 0.858435 0.680351
ITEM: TIMESTEP
12000
ITEM: NUMBER OF ATOMS
64
ITEM: BOX BOUNDS pp pp pp
-4.9993577834656300e-02 1.0911393577834358e+01
-4.9993577834656300e-02 1.0911393577834358e+01
-4.9993577834656300e-02 1.0911393577834358e+01
ITEM: ATOMS id type xs ys zs
11 1 0.21775 0.174831 0.485455
31 1 0.0629417 0.269365 0.318344
13 1 0.266744 0.011894 0.318389
36 1 0.442027 0.179129 0.296064
60 1 0.108571 0.113886 0.131963
6 1 0.417059 0.481009 0.0414403
46 1 0.325519 0.349767 0.331043
62 1 0.0469643 0.310866 0.0791679
43 1 0.458477 0.119552 0.0705711
48 1 0.254892 0.340111 0.143238
57 1 0.960895 0.440912 0.396151
32 1 0.65643 0.12112 0.421836
10 1 0.738903 0.135823 0.0177226
59 1 0.554267 0.326009 0.425059
17 1 0.630488 0.461825 0.250115
7 1 0.5479 0.329274 0.0291864
58 1 0.184699 0.849825 0.0989726
20 1 0.104737 0.516603 0.240301
14 1 0.208236 0.601531 0.0506677
8 1 0.030082 0.711077 0.234221
45 1 0.18051 0.786912 0.427834
51 1 0.398257 0.565024 0.245908
19 1 0.400197 0.898395 0.448664
54 1 0.631363 0.556196 0.0372412
30 1 0.742699 0.685379 0.178791
4 1 0.588106 0.764163 0.454292
53 1 0.877608 0.627596 0.399277
5 1 0.958822 0.925722 0.179609
35 1 0.772268 0.851309 0.39477
49 1 0.839943 0.504738 0.179201
47 1 0.75187 0.992745 0.215397
56 1 0.955849 0.595257 0.0342199
40 1 0.548008 0.867013 0.025888
55 1 0.666238 0.547664 0.490485
63 1 0.0567481 0.420112 0.619343
34 1 0.43367 0.115857 0.556063
21 1 0.136053 0.0208384 0.611877
15 1 0.217582 0.222424 0.743367
24 1 0.222179 0.41101 0.504784
12 1 0.0702309 0.0947057 0.899503
28 1 0.430508 0.0320298 0.75561
50 1 0.203859 0.410977 0.921118
37 1 0.629785 0.381723 0.721285
2 1 0.972581 0.208313 0.677493
22 1 0.820708 0.382048 0.642114
52 1 0.747427 0.182731 0.620924
38 1 0.588597 0.135164 0.848873
3 1 0.179724 0.83115 0.749689
18 1 0.383114 0.802045 0.682506
26 1 0.35869 0.618802 0.801786
27 1 0.0847146 0.714691 0.605795
44 1 0.0389229 0.828832 0.914584
39 1 0.341082 0.909992 0.913431
16 1 0.403832 0.58778 0.539567
23 1 0.579987 0.600183 0.717219
61 1 0.543418 0.900958 0.629597
33 1 0.791509 0.811213 0.984856
29 1 0.928777 0.938335 0.694982
25 1 0.88852 0.803154 0.544611
41 1 0.943874 0.595079 0.707477
9 1 0.695376 0.974932 0.747775
64 1 0.763523 0.719538 0.754026
42 1 0.88804 0.996863 0.990944
1 1 0.559875 0.794914 0.825211
ITEM: TIMESTEP
13000
ITEM: NUMBER OF ATOMS
64
ITEM: BOX BOUNDS pp pp pp
-2.1195801982549778e-01 1.1073358019825191e+01
-2.1195801982549778e-01 1.1073358019825191e+01
-2.1195801982549778e-01 1.1073358019825191e+01
ITEM: ATOMS id type xs ys zs
36 1 0.357902 0.443589 0.23583
46 1 0.0983234 0.496853 0.23131
43 1 0.230979 0.0107157 0.304731
57 1 0.0135389 0.156217 0.455865