6.832979385270303 0.36852306477139607 8.305460666072388 8.564288320610116 8.928900692753151 5.864035930979501 10.543788597751524 8.246516427414834 4.515602120265209 9.077230661302996 6.021920371795844 4.789425583292957 1.971745301893712 1.1463117348523921 1.2662996253561019 5.244366279004799 8.729092255915425 10.253651837344991 4.069230457976234 8.984128113163536 3.2214638475765645 5.129991105393068 3.467630755232006 1.3140505641050337 3.9376101046009815 1.119726308657944 9.22890255288776 10.1076462191111 9.935119442433429 8.887822888782278 10.670653137577085 7.652532453125179 8.345478052157182 10.00074752716082 7.743289228365131 2.204383848032801 7.400699272118867 0.6878855847957983 10.427924554582571 10.328127449081494 1.8811277734468828 5.642944157377727 8.727046399185717 4.624964409324562 7.949492306394672 2.6813898048085285 10.217297713048474 5.3203843167574165 3.9110782348654265 0.7714068824393151 2.723827942835282 9.221897368064568 5.069225947133155 2.6593352550364213 4.854796597017661 9.656047446434176 7.950820506575217 7.373738950712169 3.8165939300865275 0.7514324655306097 5.176038948749205 0.1143269727987274 5.878774668466833 9.61423056333058 1.937522724661133 8.861055370627593 2.0940146975462604 8.30839556001972 1.9231481710942722 2.2492534492932936 1.7375429071549504 6.12595914884124 4.20983758515372 5.166495187774486 3.0577310414491135 0.6750020430445162 5.158729501235011 5.319334610163115 10.587030082661673 10.479788629374479 0.6276120748285224 6.807625757630392 10.02944307783565 4.400155817475619 5.286097471774166 0.5636570938769468 0.752013017545009 9.028462149835098 0.3162412496001225 6.86138573106711 4.9727172082081035 4.375069972130173 9.50249036749638 3.1523010365622404 3.751147937319373 4.775265255561667 2.6376234666012297 9.155980078459155 7.7972848502209775 6.9569947214827605 3.1611164296960164 8.984770790670252 10.092532586411515 5.684996688900451 9.864756966739904 6.285814467344844 6.634113542109094 9.930567143427531 4.798358800636296 2.2679982099058176 6.975900151471963 8.048646734389033 8.870224236390063 10.071056446395453 8.49023044925298 3.6682211163695677 5.663595527926839 10.559748422501615 1.8425135665850838 3.3953830921854498 0.8680291610572193 10.290102363267517 3.3869211716803673 9.386101471030274 2.255455287233094 0.6688451925301855 2.771011183119949 2.823796429004816 10.666122261154744 0.8164596467892217 4.129417206480103 0.6903973827178764 2.3820091995970762 5.765974054746555 1.6455757559440192 3.957340304057135 6.958912042711128 4.882731645976211 8.288183352433531 6.177876780092042 0.5051755830242283 0.4699868472732207 3.8850712184270213 7.393608396961444 8.171333870420947 0.7925188385349062 2.8629247778719873 6.65382231898169 7.387063797684728 4.937755551842802 2.0485666865297243 5.7271884672162985 8.254528473665216 0.6888206805680688 3.9549838198658462 3.3755350685197314 5.007657441989847 2.336796836999669 4.24866601785109 2.2231500312288817 9.702427339835449 10.250363470768967 7.266486786133196 3.1179499238283186 3.606256293430453 1.4847135760132293 1.8622223434576803 8.576606306155488 6.078111808466301 8.463216571387388 1.9329490030716774 5.528386891805759 7.289226858579132 7.4825870977661495 4.166896016413372 5.023038856983896 7.094870469256707 8.176196796888425 7.163969012520359 7.714175937310937 3.239897980727509 6.708685555471602 10.244750753876987 1.60900740581193 7.253611813415338 6.185139035917922 8.60119943207912 9.405531754316629 1.8007073947732666 6.55866320282074 6.198838778102733 2.8660953202384487
6.854734939882257 0.40537455960305296 8.258153534425993 8.621458952451224 9.002382878558514 5.920225708463505 10.547445709810594 8.219703416483995 4.5155004525300955 9.118600769864543 6.004205478598108 4.9356991927023754 1.9461007744889163 1.0212083566913686 1.3201135757824904 5.25110797355863 8.770514743927217 10.240219628148681 4.1012459506469 9.090132688112499 3.3115083750002974 5.114444044606007 3.505215570849604 1.2651266940236527 3.854576127158823 1.1146678481046515 9.254921967960858 10.177178571266616 9.829649482970792 8.80668355960692 10.688854319055226 7.6357114580145 8.381108229126317 9.903197382666534 7.679816635085573 2.2175971643807704 7.501307410645653 0.706420775512171 10.461805837090752 10.329950850465693 1.9938153358904787 5.583492642141366 8.590398968598356 4.572168857552693 8.007863616268168 2.703300339464824 10.247588341559293 5.360396275363692 3.8308741463773055 0.7078409664979952 2.6468889825844584 9.194697730304071 4.993920596917615 2.6107844289403133 4.93447821402678 9.73162845806684 8.03224034842304 7.336389606726178 3.7827418817446183 0.8211392193218536 5.261293506194519 0.1242656402256991 5.833193491639915 9.659269406028915 1.9034200725393702 8.766498366704864 2.180335894096587 8.304218703581576 1.914794452833076 2.242520123837883 1.8077660326117935 6.233835152324146 4.154337102356787 5.086190169639155 3.0452814720241714 0.6024876433369155 5.194161099715283 5.454679391866038 10.645381052000468 10.499399127891984 0.5866566908772859 6.86288550805882 9.92936274147776 4.431659916805868 5.272078817828947 0.3908566947366517 0.7252120657431568 9.05442441702096 0.34955976861944743 6.806013606590291 4.898952018702653 4.417190248466135 9.480556685143062 3.040622474446241 3.6685910859156947 4.698400916066456 2.604347515045287 9.128143682144854 7.867365385860604 6.874441964119939 2.9776992312960324 8.830685429887707 10.110399605982948 5.523579004323109 9.901954983312418 6.221475420818556 6.693458651311049 9.922422441637533 4.868181214009794 2.293351393963992 7.112457833486253 8.12561308608832 8.726709456355412 9.943950223549349 8.410807999893215 3.77966801437711 5.71083857593813 10.566435141317882 1.8277301049917065 3.4937876388596 0.8294707922319042 10.385023414938608 3.368016124934 9.3932781305165 2.356146113043085 0.6358824811483794 2.7825032982896403 2.8426418532323505 0.0230657866294961 0.9504708500173483 4.199673968442717 0.6675026157445261 2.4270699796202226 5.774415149783175 1.5964403286804285 3.8564718572077736 6.928443494666894 4.914771189789097 8.358445151252983 6.271674780928348 0.41042127146218127 0.453462911844776 3.7976506739939953 7.41435016619688 8.238350117134976 0.8254008633132526 2.8096111669557127 6.63881450040852 7.410215975242671 4.8067359976774116 1.9567682723914879 5.721463232483663 8.290691545096688 0.686812286395677 3.946727886148507 3.362061176305657 4.921218814023383 2.3902799642634625 4.251779768940719 2.228725206871505 9.725266516546633 10.329008340610848 7.398273946968206 3.1118569408619075 3.4889465655142566 1.4733785305875096 1.8999392122799972 8.55235584354822 6.146406652947951 8.47140709942409 1.927132763660147 5.563378625011819 7.283523372140744 7.533845421316348 4.079482541271373 5.144026001641049 7.102068804404431 8.27338363685316 7.274430294109335 7.631213115525463 3.2145262530045287 6.726039503338783 10.279323076785516 1.5912458141395178 7.413204159896102 6.194121214349512 8.537307816888468 9.333900009661223 1.794099639716531 6.524995725096644 6.0623197794207515 2.827326068091108
6.893007470280215 0.4600192486321306 8.177892733769326 8.671123090548711 9.043848607539216 5.944248688558717 10.546572013969946 8.207917220242406 4.515248031545654 9.140871386402468 5.989553111621339 5.082083352667384 1.9009226228932223 0.8733045916965905 1.3744982903411773 5.242399547915218 8.83121442338002 10.261714163169913 4.118869129883599 9.180447171710775 3.4097494377724753 5.053247424681651 3.5447097186236434 1.2128007973918364 3.7678696054230083 1.1050274534718898 9.285222350077063 10.232888942918299 9.757690410397352 8.744631685283975 0.007624977467003874 7.569050971694 8.40996145535671 9.836392256180922 7.554295714076346 2.2429169429587144 7.611517845214766 0.7345773299819313 10.51463084308935 10.310851955047571 2.1318134937273814 5.635748160821253 8.465373979428813 4.520666145010482 8.07412408241034 2.72668166277583 10.276619329065248 5.40065985821197 3.783213788417274 0.6526952871646604 2.582459191910677 9.15202884535573 4.930836608219372 2.563270932367255 5.013125544933211 9.786590584787808 8.100529354750785 7.336768095424214 3.7568192238109486 0.8875544442637702 5.317856950260361 0.16304452590166352 5.794940043986464 9.713114113254905 1.8625568115404982 8.677644100627921 2.2589250054684333 8.29255115072857 1.8917353870180795 2.233376351857604 1.8812953462508715 6.335113107148863 4.11636352009947 5.008960236360449 3.037291614134977 0.5464916970667371 5.2316382751244035 5.588666253894674 10.70694174788838 10.523496846940885 0.5337088040740264 6.951407452171858 9.811014926316016 4.444041599646236 5.253482052729638 0.21013714056236152 0.6704347902816178 9.08834995054282 0.4099113360431806 6.7948710870684605 4.8247765017586595 4.468540895313284 9.472008064070064 2.890060269982044 3.5909457145547243 4.631512608622931 2.553783879936746 9.101167108284717 7.927749356987025 6.788735555417578 2.7941403877331736 8.681456053974717 10.163427871680474 5.347827898062838 9.900863523318725 6.151389805114243 6.720216764782333 9.904771846272602 4.9315111954689455 2.3266193005764215 7.252872998592342 8.2096090422334 8.587699134018129 9.809087534174376 8.328207905348881 3.881285925224307 5.743039656705789 10.551476156197005 1.7708022378643906 3.500615269516605 0.8085153048554159 10.44536251106569 3.355043624152306 9.396454292117838 2.4408708236390972 0.5903859115457273 2.8126326445587817 2.8547997015241817 0.06746407882440374 1.0557975750807973 4.274688076800943 0.6493705357203341 2.4720089144606776 5.82142027046575 1.5490771874371343 3.765214087361195 6.900524299632604 4.947347934232741 8.39340729840686 6.370909062312736 0.3456949129774375 0.42877300969593624 3.7114184311412437 7.437849105519027 8.309426539702025 0.8623794905737369 2.771579191941884 6.623707957156851 7.438352369022677 4.691818567187971 1.8625889347428588 5.723744319821165 8.328550552840728 0.6968240010208833 3.9691214682124167 3.340556059887657 4.866386756549808 2.4144869667668916 4.242318596555538 2.2287827339200326 9.741596686014672 10.415113162176088 7.516904306528562 3.1037866430215013 3.3737500356603185 1.4747119739722534 1.943378788679868 8.534760096527796 6.207594701511242 8.477056117353966 1.9243618528823692 5.609696243706774 7.263580732712556 7.57154587374401 4.00089131534709 5.267262906542353 7.109057421623758 8.367933598934872 7.380423527432323 7.550837115955518 3.204889068584555 6.751119285453268 10.295122293624978 1.5751826432222142 7.574233515008183 6.200292026841257 8.432576189818601 9.307483729312985 1.7616471251916084 6.481873311000506 5.924160979349197 2.773174644325796
6.966057415263788 0.5199687528726129 8.081516348424266 8.729622758488317 9.071166893954137 5.928868790139981 10.541978591870276 8.212965935772505 4.507393504934594 9.136056747252592 6.001080428271188 5.223654599253224 1.8445224465726335 0.7380894329603666 1.4194307517213878 5.221417387220994 8.881603315586874 10.313344085667422 4.1206234324536 9.238358351999102 3.5175181677651213 4.952887717170673 3.593733237954003 1.1498199409282186 3.6742407580229046 1.087274343299899 9.317784731325155 10.277323901512144 9.728179334691944 8.70580554905429 0.05394035957707779 7.446993776010455 8.430810443274463 9.773769220075994 7.389607681729191 2.2742277222176166 7.717856997367121 0.7712708198383855 10.569713598451653 10.264789091513382 2.2949513705161664 5.7640322921289435 8.350763210848557 4.464105057765516 8.152807411269485 2.7509893810859594 10.309180088152889 5.4439075886080595 3.7927594739121315 0.6180025277758202 2.5344079885112905 9.100464737648936 4.884154997271401 2.522354874883105 5.072112921070078 9.817528659251858 8.14248840457537 7.362547050066622 3.7429734779221753 0.9613267989400139 5.353134583663998 0.2290626807544775 5.761987758644944 9.77383344625874 1.8202770625869853 8.609316413846063 2.342949737753097 8.279011860360344 1.8582454409521485 2.2350925681992804 1.9507739615578639 6.407150468666585 4.096067621918025 4.932731400153022 3.038251687769784 0.5244570926100004 5.2683025006237045 5.717735918734714 0.0399251360660802 10.541775208958256 0.4586391709709025 7.056734080933734 9.696847661876935 4.438543037033627 5.241926948243732 0.04327453149615057 0.6077573811918625 9.130651043538352 0.4909791948549824 6.820660041896431 4.751485112451037 4.524820209185647 9.474164781941639 2.703183692397259 3.512947404426546 4.565004390855459 2.503087020060073 9.085532150161086 7.990197420926886 6.711636096689443 2.6336909626688576 8.549778742442895 10.229068629544239 5.162254368550495 9.864874060297565 6.079832432678436 6.715179241104122 9.890414672301873 4.963806168237057 2.3607617991006107 7.3827461845394335 8.302936113432274 8.449917732640637 9.665901346158389 8.234171280441632 3.9573711802835674 5.758423205502683 10.510272266322598 1.7145179483361213 3.4484214994969706 0.8126057206156841 10.446602710496268 3.354522820326062 9.402531179455124 2.5115327630908353 0.5270261399197379 2.860848266668613 2.844898764620659 0.0989843224078101 1.130498564286234 4.340159229434468 0.6420648671406499 2.518115946822038 5.90623976508671 1.5287330103869314 3.685897810190838 6.873122128834031 4.982281900139587 8.408845088776205 6.474480916909291 0.29381658863279236 0.3889248609120359 3.646698429989759 7.464099349347791 8.386419446634955 0.8899704394756736 2.7425971598741503 6.600535504907082 7.448802813491061 4.5821848947393296 1.7628481508505596 5.731887087665851 8.372996174441576 0.7074396281188181 4.006943088997712 3.322495363864667 4.837355518779015 2.4109759696421897 4.219435414604383 2.229761795031575 9.742587408354055 10.499407337075167 7.621432088341637 3.1041370469007625 3.272067106047276 1.4978616252149182 1.979964761614757 8.554231757779773 6.239209705156282 8.47388480316773 1.9289905812440473 5.668763454392842 7.236653027525689 7.588013064587467 3.93127394136215 5.402695788014352 7.118508964369132 8.453385946508782 7.469044765419035 7.478432492463368 3.216800475796546 6.7915762854774435 10.275718246943558 1.5592618559176463 7.73185830520519 6.196017597261318 8.328262638160771 9.31453060473282 1.7107607166456298 6.42850567442878 5.787239352826906 2.708396717563269
7.071341418676115 0.5238146020006317 7.973604319985795 8.811582688456731 9.117466624219972 5.87812331862834 10.536948729230213 8.233064699322455 4.483939804533829 9.104367861410811 6.056176599362652 5.357789948279523 1.8024710947277256 0.6533254087951157 1.468655973562601 5.19496504947122 8.838069157372312 10.350216447974475 4.103797441374545 9.252146305554344 3.6282502821011615 4.850801477622716 3.6518152132333257 1.0759713309814742 3.5853475532597234 1.0550379241751042 9.34848214118184 10.318636015744222 9.727393819926865 8.692238405084389 0.10502981839396656 7.309227365150631 8.445159781115537 9.700425778849183 7.223239980206516 2.302492821439465 7.8075261336824076 0.8067564399613589 10.618377231039767 10.185668590986209 2.4503140719974064 5.864328951585034 8.25093637733822 4.398958370328326 8.235665188997803 2.7725072516504827 10.345101081452597 5.490457728136672 3.864199238323669 0.6121263752471563 2.499113384423687 9.06339142121778 4.862423419134764 2.4909052544607575 5.107918205770482 9.823387204239086 8.153380558900068 7.383550002168288 3.7449726725909516 1.02810305806859 5.376945818727558 0.30979216139878374 5.731243809187398 9.837909280327347 1.7896398720086224 8.5983104302674 2.4360381327919987 8.277433547857402 1.82712758942732 2.2610241074807287 2.005962087224595 6.429823089135367 4.086492948349699 4.859630300594575 3.053702587903322 0.5459519392122554 5.30570524354735 5.83492094488604 0.022641382741289847 10.547307881517195 0.35211593348534004 7.152213437098353 9.625846303345071 4.416530403443228 5.243775063501103 10.675555899086612 0.5904459965093489 9.171028150249255 0.5489933349560161 6.855169025910574 4.678901618959702 4.584438563962601 9.48301200006578 2.5225927027270334 3.432004275243018 4.499425024946291 2.4630382786804867 9.088904044205554 8.061571501596326 6.708942314289369 2.5677641715321493 8.493381206947296 10.275144698704658 4.989772502001593 9.801844876187749 6.015339280016447 6.688191904904598 9.891716943239482 4.890707757455522 2.384584822672359 7.454544440465645 8.392968060347341 8.33670973021029 9.528472412168158 8.13178472283072 3.9944912621811173 5.761326016913335 10.45301605217773 1.703631083857303 3.4050897421833484 0.8431515236522662 10.376617304061236 3.3804439490873563 9.423917744974132 2.569562040937328 0.4445788587691792 2.908128674101854 2.81478928748299 0.1184956462066834 1.182805439742781 4.379524258186632 0.6579592031548919 2.563879489424531 6.009827954161287 1.547965557858909 3.6236485925521924 6.850149973821118 5.016933171944115 8.421081173010466 6.5583065419840345 0.2521490437556001 0.3424812797622303 3.6401611669104708 7.510866980224311 8.451259695168822 0.8913001785795297 2.716676985657521 6.561720353533153 7.414680967047246 4.47497186071514 1.6760637529778954 5.734518499889687 8.41817033683065 0.6958129154167865 4.045174056841395 3.301840670628797 4.81469426706871 2.39052421267161 4.187195038246914 2.2418361322218865 9.714915750126636 10.560513660362378 7.703517248272096 3.108344975896433 3.2169876556665207 1.5458038339312536 2.00114636560358 8.62759001772317 6.213030003360896 8.455465425384508 1.944566987358461 5.738788439726988 7.212174522081785 7.5741348607208385 3.8744513745746283 5.54665184865211 7.136353660559812 8.518401556169366 7.51309291377358 7.412808186416853 3.2522494395359494 6.8460298564342486 10.217398845666894 1.5459001483636738 7.873736955169556 6.174975100951279 8.276598822776426 9.347326367992796 1.6492776391614525 6.369797794530323 5.667258921249519 2.6449548383152113
7.186341388390798 0.45261914944394976 7.855897102980786 8.923432548329174 9.195629154976453 5.80906165604584 10.537158873058948 8.262833062993208 4.435013442499823 9.054662172667653 6.1471833862702026 5.494491491637605 1.7802458464156337 0.6198705780365911 1.5367797959774896 5.160992331350802 8.685819613066597 10.353422418434354 4.067722439937994 9.229324693711114 3.7385034370007824 4.781096265394426 3.722249539465708 0.9974489387881635 3.518792259852871 0.9953473815295141 9.37676541401117 10.36640199559699 9.739080733654099 8.696841018241797 0.1250266062995828 7.210310269548511 8.454584112254912 9.61266628633391 7.07597753113158 2.325773301407831 7.880989525442767 0.833412978404403 10.66310250307068 10.061323080111476 2.57888040627593 5.885184254508326 8.167760067865405 4.331305229919218 8.314772772430501 2.7880409955570973 10.383372819488121 5.542129642938559 3.9838206554926248 0.6308523917563058 2.473588535475977 9.061906338981837 4.867780152117029 2.4695865883541086 5.126547765079963 9.808472784684351 8.139885543126189 7.380232516327298 3.76089936033252 1.064387389617764 5.3992579906091915 0.39728741530710443 5.702539240007878 9.911752981529997 1.7757516811985623 8.666976220335021 2.5422529597567998 8.308159929325383 1.8144764048189925 2.311563179007187 2.0453159910758414 6.4166085910336195 4.074335283043113 4.786275255787431 3.086367962823632 0.5991920678413767 5.352582874711896 5.939189139866798 10.65153537783341 10.542904984300774 0.2151057278397502 7.2235145549720015 9.606417256603507 4.37352898217294 5.263427197119903 0.021613724576100175 0.6289455816570627 9.217372354312378 0.5601623830097883 6.8698879547487435 4.6037586460074715 4.647887068281761 9.48966526450002 2.385802508235853 3.343658921500957 4.442246908420633 2.43524902601701 9.112615503181123 8.146359281117446 6.777896672912647 2.59434247470133 8.516293280842648 10.286405854733124 4.8287558174821275 9.723404657361218 5.968272809057273 6.6401933105829105 9.909056482399755 4.702651681569786 2.3983754704502784 7.4737111528423785 8.47864929695299 8.268097656533206 9.404597137176888 8.025744447005955 4.000566771122902 5.758095682405578 10.415174388595586 1.7345979682822392 3.3941861790128858 0.8878255487504235 10.2614953389585 3.443525692860303 9.46564288137544 2.624859996603918 0.33791521263224455 2.9242035012409806 2.7694223110863745 0.12203691639089308 1.2276240306164883 4.396320820059515 0.7056684721878296 2.612137228882257 6.108169752028675 1.592507444669172 3.573963488089107 6.835978408146604 5.04793197496134 8.431963480662318 6.607203997810934 0.23051750441629215 0.3113450658453173 3.6990617870242954 7.604395057118784 8.478520892232503 0.8540604574588329 2.6876606053158008 6.5060638796400845 7.335290864156586 4.367429757949772 1.640948125473175 5.703587878558529 8.457034502337553 0.6366092033915064 4.0835162205579865 3.2588262028320516 4.7814172771956445 2.361951331405254 4.146488035563854 2.2643530434411914 9.659394904198077 10.591035353696931 7.762097454664486 3.0989730262181796 3.236237672419582 1.6082798245024172 2.01850080528065 8.736496676085762 6.133775793372607 8.424184294679437 1.9726175184930284 5.824074307949533 7.196485361309331 7.530177128676867 3.828600749209685 5.699222118061946 7.170001887708733 8.562647384938725 7.506304551059518 7.329512651734638 3.3047629915865433 6.908313067354702 10.134385366069004 1.5413916655216746 8.004001247670029 6.137959647181833 8.28365602849897 9.39881892475494 1.5774947927654797 6.307132866424441 5.570870899541067 2.587751032382959
7.256699251098429 0.3549629133558998 7.752553279215423 9.047190501187337 9.288943149191548 5.74293088864182 10.546908703107936 8.284650943079154 4.356191814626163 9.003274386305552 6.226404082227083 5.611268150458224 1.7663930311040688 0.6190160446480347 1.6132751734424076 5.115050294878758 8.537179304457137 10.354946913423642 4.017982085836278 9.186889545968453 3.8352122899832355 4.762298168397756 3.801579651320114 0.9314903308719621 3.5025776820153314 0.8922322775905771 9.4039340289478 10.422115883480409 9.753871842998514 8.697595112983656 0.08421856699661572 7.189123650348314 8.457083758674933 9.525227684450975 6.987841457140134 2.3432307720440035 7.936147037262884 0.8490737798953495 0.0051502987555075595 9.906957598237016 2.6783693690183257 5.842159478626905 8.123411172358216 4.297176860051835 8.375350989311611 2.792140356694528 10.420532163937889 5.596040901073042 4.118815796979323 0.6632874263461146 2.4733953971468376 9.094006534961169 4.870312121520742 2.459901678612254 5.132781533270356 9.7760439165938 8.111008936211045 7.352289566458805 3.784062429082911 1.0652793195494694 5.426689918100547 0.48059895663174257 5.680769896597891 9.993676943997734 1.768040955492908 8.792200954033817 2.6552770259591414 8.385687969568874 1.8405924318326983 2.3777087745169836 2.065566213332368 6.396750240317515 4.049142837916141 4.712293293923443 3.1335175245694544 0.6628165908064463 5.413367412489479 6.02080946350785 10.561943337954162 10.538797490856378 0.08381300638403782 7.258272269833229 9.625601260862073 4.308808638043185 5.308413890374337 0.10500381591142537 0.6647791189422454 9.303624657383022 0.5465683661431254 6.863144944782084 4.527832770450683 4.708451703952059 9.477384373136047 2.3117061925016698 3.256534010115507 4.396223536305685 2.418671466468122 9.151223753838583 8.234089626603415 6.830582386890936 2.6177064900551583 8.569677657501964 10.262352824224793 4.689019037133023 9.659126891447995 5.963699252707634 6.557968609423014 9.928466221753679 4.482054715025664 2.4051991495489777 7.482036860060569 8.559982725707888 8.249991026874937 9.308065492586712 7.9272118628169075 3.9936377482738847 5.753310672129961 10.418766530664133 1.7808819247565875 3.416735802487632 0.9410129796617526 10.148100300201202 3.5329572751316536 9.516741943929228 2.6858920368452983 0.21885398956475413 2.887794876901223 2.714848422534896 0.11113644881560443 1.2648033700492978 4.402526312052608 0.7799305108142937 2.6602100983179384 6.171701553163808 1.6383578667374619 3.534252072865741 6.835280041479898 5.066532832677488 8.433392170383444 6.618010841538437 0.23509353536022115 0.30153699065358813 3.7811732109985834 7.720504360094822 8.456709230404742 0.7846784591995394 2.6607986427425234 6.443191745821157 7.237341489933432 4.2681134662850395 1.6920331182596433 5.624740467377368 8.48567631690206 0.5316321787279219 4.120046389867092 3.1856625605877142 4.73324547543868 2.3324871610933915 4.100410407701382 2.2820007502716906 9.596655575980193 10.595030235423575 7.798823571795549 3.068317503133121 3.3267741119878353 1.6592137409832217 2.04945079690645 8.841681488929861 6.034602804658586 8.391883737238599 2.011002794769449 5.924587800492009 7.194013919476232 7.466584893713275 3.795383883650389 5.849650044030719 7.222306855087206 8.57874124164058 7.476932574778257 7.230246854415248 3.3563511445251777 6.9682054749744236 10.050541036220395 1.5508787636286434 8.121249609198829 6.0946664383894475 8.32495018495167 9.447047583250605 1.4985946171100273 6.242840522884593 5.501905895562551 2.5367762812708166
7.2634140177736155 0.26502086880592496 7.670301945197409 9.160222871571284 9.372389837725585 5.680098098378381 10.560013241420648 8.272210519864178 4.252404823783809 8.972298360057527 6.220003785745959 5.640753611288475 1.7542011427024813 0.6309524267253025 1.6890194434702923 5.067903872978913 8.467188354825227 10.372602477290002 3.9627904396255476 9.139780006951664 3.915611304943201 4.780141120013948 3.8832880320891427 0.8838788258871595 3.54151758547465 0.7412357946593836 9.433600697809144 10.489223133256166 9.761714026489274 8.65725348043528 0.006958066120007585 7.217305190139416 8.452011400882494 9.453904422512505 6.996789829009566 2.3557137037614355 7.972235563479849 0.8599349869130495 0.04846885467536433 9.751471188038503 2.752348089663976 5.77674682482611 8.129934603953917 4.328396624202288 8.40962724177585 2.783611758540367 10.455433539746146 5.647817637806249 4.238769111990408 0.6942129248060668 2.5123638433283193 9.125726875409487 4.827373770048702 2.4554128052963855 5.1321544050792145 9.725869443446813 8.074032466829168 7.313878995093774 3.8060118632128863 1.0517479239327263 5.46451685274049 0.5543270045343192 5.668592297610793 10.0794881890843 1.7424598743843023 8.923759935424034 2.772919391129373 8.501266931238247 1.914693684572215 2.4377099267200237 2.064226282268917 6.382187412751766 4.007347322039932 4.635820917641725 3.192972095245382 0.7237063058248222 5.49308334785555 6.080542777372325 10.477952800039173 10.546955495433249 0.004026495115131292 7.264152529636838 9.669068248401619 4.227316826575228 5.388075523361788 0.1708445516394171 0.6542369565577537 9.446690553007992 0.5477510380305002 6.859876151410524 4.446836802150302 4.757739593496218 9.433086950426034 2.278105739700253 3.1832644103186833 4.345810519875649 2.4113589671946296 9.198004710370896 8.308226352034346 6.816956838779805 2.564198813670108 8.631009551614701 10.20211326759057 4.5959412770277455 9.654030434375144 6.0228425244066885 6.4369015090530715 9.938614375407111 4.290143850301493 2.4099782711025197 7.508268161178343 8.639454274224585 8.267736636402923 9.244873456009278 7.833534473110401 3.9971472958710854 5.751016643388642 10.448390919369334 1.8184623778732636 3.463695560003837 1.0188295603598985 10.07304494065445 3.6293790910570864 9.560078881688748 2.7585772766841945 0.11816510903664011 2.8124244242765006 2.6614469120647994 0.10735393754330115 1.2912291259557531 4.408519809826618 0.8672537465082828 2.7057683269285917 6.201348333896746 1.6765289602184097 3.5003214671914487 6.8486807396869 5.069776910313172 8.418264619654401 6.60286331993884 0.25395817515627134 0.30773789340454405 3.8349422627243155 7.7912680477790515 8.404596798649557 0.7108326526497027 2.654436400899433 6.37859118106999 7.143518222240121 4.180640736205511 1.8093754710344905 5.538592803542786 8.510600008698093 0.4210973237950014 4.141413982890901 3.0968692253922083 4.673977363908187 2.3101079204398665 4.055521842277056 2.2840673499584354 9.546261217697163 10.59192979759641 7.821375785043443 3.022354448700172 3.4556254448608046 1.689244207950403 2.098422592457233 8.918290666408 5.935537578489288 8.36655808615839 2.0578472522619573 6.038640256437347 7.205467594186904 7.394387491255438 3.7802388694934916 5.996673517079479 7.289326151409269 8.551089724329518 7.497115561736645 7.178923979392843 3.381335432648879 7.013486618960668 9.975625593132056 1.5742290125564613 8.229901282250903 6.051548159438007 8.382238084413752 9.470355041842534 1.4087595429128414 6.1745371423406485 5.453824485329496 2.486366085128814