-0.09096717250819171 0.42137629733093235 -2.0023674286999706 -0.011052401159419675 -0.4190749028912653 -0.25942045231900485 -0.1688703127435737 0.36848844819296533 0.6546591720226209 0.05348357374043693 -0.235707167862465 0.41091602122955684 -0.670271167528265 -1.3961429551399698 0.6348264535674099 -0.3936186676016898 0.11246802269444502 0.5890027103650759 -0.21745207830701904 -0.054381917184990206 0.48656507532343946 -0.8581596732455543 -0.07457896095815542 0.09261576385520824 -0.17197980490683284 -0.5371078212679975 0.6939294303771533 -0.32646916633838613 -0.1581531834363857 0.7812654338906609 -0.1998464494101139 -0.7230086071312967 -0.3181313358966521 1.5217930237423274 -1.899555441038051 0.5097435703224318 0.8920133885702055 0.518435698779791 1.4793369114606458 0.11161647332742712 1.0820341101391493 1.0667111066288337 0.10263663842632001 -0.06715978567594885 0.0811051921124474 0.27524250695292596 0.24368735785446424 -0.04144618295992862 0.045324434968412264 -0.4387631253488121 -0.2658078439025874 -0.6879534152993765 0.3517477383995168 -0.48822240842120435 1.0365399823620922 -0.20851080995333124 0.4031641451982799 0.969824997533046 0.1905521685923815 0.12049654942587636 -0.6587040315159559 0.4833131440450451 -0.2541813154072526 0.23134014914302095 0.008921985079978184 0.6187861122750956 -0.7101772596945833 -0.3057972398113314 -0.6329675459818002 -0.3723574442300684 0.3981571789019917 0.41053138419662843 0.5445830465991202 -0.12305119752693001 -0.4243958008835465 -0.375283873848244 0.2934279196127011 1.187989014305425 0.5013010959820334 0.5211135027222703 -0.37667638332039644 0.46120834172620573 -0.8476009238931015 -0.2854796112999019 -0.3676713516083087 0.14692491882073405 -0.6163422787202933 -0.5932499156772041 -0.23231382591019992 1.4069693563315122 -0.2576019110530273 0.9035771821484051 0.23573262178376173 -0.4743178825249702 0.15058668394303742 0.593291567548417 -1.0900294696398 -0.514780618525707 -0.5469723727669031 0.42303183065648436 -0.46365346083258857 -0.07529681296078646 0.5549296799407669 -0.25339301517800233 -0.6544408853642277 -0.3612088838124166 -0.40581315278535274 -0.5071017618242105 0.09005520221688361 0.14040922918940335 0.12568323583313837 0.33816640017065636 0.3005809857177146 -0.08252264128526432 0.7870768983661155 0.5174522518205992 0.047072528007770544 -0.7224532488484591 -1.8167821171945615 -1.1298008360004672 0.6128592052676993 -0.34848937936321916 0.0046539538322435976 0.04110448334979372 -0.5799663111944205 -0.6038891405586051 0.48887212619006126 0.7200572378124567 -1.1074954876350476 -0.4993676264047465 0.5145623318673138 0.09725300551690347 -0.0015148939826296489 1.1618822899160441 -0.5824674803497194 0.4025779336775067 0.6095401681967955 -0.13592625371738526 -0.6003394755341338 -0.277311987887445 1.031760558695578 -0.3840549351726547 -0.2800579260636983 -0.07951470769687595 0.21848977554291402 0.799902589375874 0.5475590985083085 -0.05313107549702462 0.5199333663712401 0.4538503586992377 0.4215727296124546 0.3292405584359362 -0.36974186098409223 0.7179587034122151 0.35419748549158997 -1.1722507776345619 0.43859574653301237 -0.5320982838685482 0.012702020947700706 -0.0034095399021812248 0.24990325685718898 0.5463373102860656 -0.26282433579423126 -0.5438543959632117 -0.4442431746267769 0.011164244146935611 0.3624946925033757 -0.25199664905110797 0.2627145496892443 0.3659970492296793 0.031068182159714235 0.5041424220855705 -0.7941237779105679 -0.38367415479446826 -0.4917260506990886 0.2104237107053279 0.080036641638617 0.08659552580305732 0.09396559301488333 -0.1686168019718709 0.5763814220566396 0.07550892897159255 0.019597205405637218 0.14015006199074573 0.34268048599092593 0.23160343010673665 -1.4821057324550346 1.0980816505203155 -1.0814448132945826 -0.3051781181700937 -0.4303946987794588 -0.3439806928595882
0.48343912809994805 0.5635973829180938 -1.081607821235008 0.08034851645208098 -0.8045979379690144 -0.6497236823942165 -0.24899899987536472 0.4879141331521661 0.46284793421215775 -0.5592059387186176 -0.055179730495937225 -0.5328061085688501 -0.6351190451071643 -0.3228156287461989 -0.21643469278609823 -0.4947427260382254 0.4058113530131398 0.7266616305028517 -0.24093499192030762 -0.7288385835495126 0.11616886858479993 -1.4210173497841463 -0.06895390146189416 0.21232992658910527 -0.141092371299357 -0.6041225967256499 0.6275659153502546 -0.42489896577221015 0.7715039836285229 0.9336572893632371 -0.0181563591940526 -1.7265970742680328 -0.5006619197361378 1.7418992518427423 -1.94849227594807 0.46697069813127967 0.2123741495634794 0.3742063245133491 0.7038618589995169 -0.433998356970317 0.891827754921961 3.2979648236146946 0.6006194686683979 -0.019664568308462905 0.15780248496518628 0.31604977077727503 0.35821560551204756 0.06686385170208484 0.9697810316689879 0.24213312599346687 0.43163217073098564 -0.7847094265752034 0.7044894652811867 0.35332999528497216 -0.17198417578220704 -0.4524987297673497 -0.3429846474949061 1.2562623447605268 0.45061539670170786 0.16164808396352162 -1.1046037679095493 0.8406802855138683 0.33784501227549557 0.20609654408488376 0.12240405086123435 0.6733294947386145 -0.4598268879976468 -0.2971735026980624 -0.4963730625527968 -0.28896525585565713 0.09847505084946266 -0.08307260025146337 0.7205863708430492 0.08792247214459696 -0.27628226107135 0.10776161835771118 0.0829270758125346 0.32156504416854936 -0.04778986578976931 0.04566767724044393 -0.20773022303356484 0.6921018902501114 -0.6310042516078423 -0.5362904675730248 0.005079471405436413 0.13849761398898727 -0.7926708475141252 -0.18420051534274084 0.4496836289160578 1.5665271334249085 0.21877722487634582 0.514380554873811 0.1761136245695483 -0.9359363152054009 0.45995775714855625 0.617249363915595 -0.1805760312162761 -0.1898867670942407 -0.4513183363060034 -0.3299244718768382 0.003485387445439159 0.15509717021888128 0.786922117955806 -0.09063729997259873 -1.2755111656878095 -0.19063367256259428 -0.9376548405584046 -0.3751992845542377 0.20797422072357086 -0.004112736616792917 -0.011035688988871318 0.1852801215601648 0.3779969019040329 0.09777545367927677 0.7981596385428382 0.008438617685656435 -0.19561312805505668 -0.735985736117255 -1.488065035362263 -3.1143806016997138 0.8067741196847267 -0.9247954680972331 -0.13422469764524625 0.11675122345083118 -1.0733206415255516 -0.6975449156425535 0.4674458379954852 -0.15213011717075736 -0.7422774826632378 -1.0436004887532995 0.23829909695935733 0.26023960578619054 0.031523010308945706 1.4761001496909032 -0.13992200514033967 0.6931902382182837 0.5482193578001268 -0.1347206634450583 -1.0261568393555554 0.14207864647202625 1.265636329776259 -0.6680075683050689 0.041305800727322414 -0.09874501668139768 0.34143452939896685 0.2796324084905055 0.5008041017409568 -0.12494430078458481 0.2864872266288098 0.4819558586862023 0.5248868537217733 0.6526236296498308 -0.12354356378231626 0.8760393817394525 0.6734019998477628 -0.5288921182264246 1.0482665267704012 -1.2604208470135907 -0.557353201780595 0.042787270368855344 0.11848363276090562 0.37113771289035435 -0.790902956980425 -0.44725753597306844 -0.19545911897569562 0.16124004989182553 0.06738012921687105 0.31959609336763667 -0.05092815430843487 0.029746120914181027 0.4672231804617179 0.4375441653400465 -0.5010936079569177 -0.3043337678919275 -0.31622563423350697 0.13124633174321268 0.13674926383931288 -0.028849063021208383 -0.12440514045166318 0.06840342827506284 0.6691977319584281 0.201144342285931 -0.4535567387182189 -0.007133268610671586 -0.21249627696364046 0.15762739283990274 -1.4741756789746805 1.74974137359498 -1.114544424062029 -0.24236863904304068 -0.050507007610616245 -0.3293670567114715
0.9007944771969455 0.1000627070515567 -0.3880848822676542 0.40608954637519096 -0.4048106796627673 -0.9485491188734052 -0.28128459938194783 0.4961928282211906 0.16754208085045338 -1.1138533115322753 0.7307273159317932 -0.8320670899235605 -0.39462654004091396 1.004191647938374 -0.5011545431018402 -0.4876709067931085 -0.3560502224296126 0.35979940505939967 -0.3077543635377022 -1.2434744489672391 -0.11682809943535365 -1.1407053987281128 0.03330144236560716 0.09731856864751627 -0.07513380502036093 -0.5962992440264892 0.43351961756168567 -0.2812390908559931 1.097277409451465 0.8664144570551788 0.19939367814341144 -1.9058780408219693 -0.5227767493573061 0.9207238691310208 -0.9653024270723441 0.24488549192762343 -0.5147813898566553 0.14973616301728404 0.00812057222460537 -0.4293330902841638 0.6006215255509268 1.934783925223042 0.6015455800270931 -0.1894586784178866 0.16435237026856211 0.3485099481885095 0.3413321994931476 0.10049156705885917 1.7052564038087275 0.8308985235367561 0.694874567899242 -0.4471829739813911 0.8429649677829869 0.5783046072212814 -0.722481273872917 -0.6464239285970221 -0.9128812331581503 0.608295754266733 0.4741669587694027 0.43512861392001834 -0.9721335910615645 0.7191249558061744 0.3984181458728622 0.16128401575588353 0.2519120597571017 0.9458592307460679 -0.1680573299239751 -0.13612371444017202 -0.27699754197081977 -0.013436070900247829 -0.09585689650032524 -0.78642640926631 0.7589392595896348 0.18805691297435354 -0.19261573598962956 0.7362742138919514 -0.014269108324504455 -0.11072301497888028 -0.9616308917580279 -0.41667349253862435 -0.32058802496726074 0.2537601687094339 0.13446895244556842 -0.4686660835558316 0.26131201291476286 0.9009230323550097 -0.2784766976195075 -0.17373843946915238 0.2895522387073788 1.346624793805184 0.41591990220205144 0.34854388675023845 0.12244698828402784 -0.7920720375878617 0.4250028383399261 0.455144652030629 0.24716451776978723 0.10675246036690647 -0.2826670815517712 -0.10308246771448698 0.9740786306030771 0.6522919573420249 -0.037266597660942265 0.3411013144292641 -1.0931070801238594 -0.11321595660406307 -1.1015089310343094 -0.06745597676012899 -0.47580655125535476 -0.15105950981439792 -0.5243968014592324 0.04389053073536312 0.6067497499358518 0.08787130719168737 0.5841117008213617 -0.5468574444555936 -0.27795682056029547 -0.7635384489245431 0.03331481210204585 -1.958287921882253 1.0800983265690172 -1.7345384406022966 0.02512661986429866 0.1751144938810726 -1.2518688436785215 -0.6756072350291977 0.31130325723122515 -0.7050617928448889 -0.4892300237501123 -1.2112238164636495 -0.19059999111118142 0.4145739296971183 0.20107183717678273 1.3998193755502926 0.5538696141073688 0.7712512441877686 0.42004652277591537 -0.02960033936493612 -0.42041676163114045 0.01480646888521321 0.7651793269620758 -0.7712029074483363 0.6635701013590056 -0.14897074560616927 0.2745786481166819 -0.12842326047212077 0.3319715842138541 -0.11935806494605897 -0.5031402060733012 0.3874351644987973 0.5402965034086242 0.7666762232225763 0.09491510141234621 0.48434518485398514 0.20970508737174853 -0.2564711398826938 0.8586826356285598 -1.4248796609530299 -0.7331189560924213 0.25219642376673984 -0.2552051286860766 -0.05768295653376518 -0.8969249669392101 -0.3570102723500368 0.13490192621792896 0.33529062128475806 -0.39293552549173616 1.3431242368510934 -0.764793918598199 -0.3743438785324779 0.7796554090910637 0.3762241262743262 -0.14603660267850976 -0.37687564381539607 -0.13784995310265938 0.08404344880516493 0.27158588403694517 -0.3429769341854222 -0.7024672926448354 0.4255697665869896 0.8226098011654026 0.3562546251309348 -1.0270834649348828 -0.05903227147280801 -0.6237542549136483 -0.017257758639183184 -0.03872338471212686 1.2675230052760105 -0.776684756498514 -0.1038010910480664 0.35681152607566935 -0.17281104255887658
0.7820974428736531 -1.6440129836172137 -0.3155823442225533 0.8860319741757902 0.4725366222548313 -0.9286642070240199 -0.18742827825141914 0.34836956595590324 -0.12328491080429091 -1.2195634466775964 1.4223000731513118 -0.6719305575085589 0.2626664700601283 1.9536977314084094 0.05644008526559957 -0.5040804584993834 -2.987570965571616 -1.0897247939151877 -0.40923709086523713 -1.3543612432174932 -0.27270791345653034 -0.3106422266084586 0.06584775173274465 -0.0017583774520034234 0.13131626574919966 -0.583160392651686 0.16222066863753995 0.10167556006463135 0.5697122375665801 0.6233932720298038 -0.05852653548098308 -0.8255290316947266 -0.46963230412384277 0.17021911346198426 -0.21067773569766296 0.19079565206175528 -0.9658955805716527 -0.09658426158465301 -0.30656137167086556 -0.43010956343887213 -0.2310419011763118 -0.903446827218128 0.20995602704029004 -0.4076278373965883 0.011820903894328029 0.3133994776386216 0.27760817897162515 0.00026739472877373305 1.7652500107535407 1.18367984540711 0.572717085831175 0.16342291647575724 1.0299098786400844 0.4960007668150426 -0.4965766939231706 -0.5554739824800111 -1.0920220745897968 -0.41832516920943447 0.4763475113604893 0.33977025432266644 -0.6216595771681487 0.36107467222739753 0.23566371621903928 0.23285375757406993 0.5541817460311488 1.6793648807539465 0.13793788483077535 0.17331986387449505 0.06447786796841154 0.28609281940386855 -0.1967104748842935 -1.2244462286911946 0.5825448705548741 0.22395002732653693 -0.10744125890381497 1.0488954186036517 0.1025754461710814 -0.3540771578636418 -1.886156908243958 -0.5935507347470745 -0.7404129186506733 -0.4416597301703168 1.2707857351876823 -0.4849054282328294 0.3277503470436549 3.4329207429990105 1.3111461412826 -0.5190103403363384 -0.7263556692266587 0.5344765542927375 0.3589797373715818 0.49511013667997317 0.09120397110934615 0.07585937033247579 0.1636355467071956 0.2863854109436229 0.1831119102642524 0.23835103324321533 0.04044036740323358 2.0237230115576113 3.061475011949934 2.2634357010350437 -0.8678360199930537 0.5759031968686404 -0.7144483762661115 0.009345445770641971 -0.8775254793666757 0.3167876773845641 -2.9224408087311864 -0.4867465952066262 -1.9917878534119116 -0.032371217241853927 0.956035142837805 -0.051899002862136424 0.31213603754516567 -0.8945302414547884 -0.12375105180743205 -0.39079071123459147 1.5636580394072297 0.03687167621536876 1.1861396198015122 -2.145337476638015 0.5086734771867045 0.34955613006483666 -1.0679447219256188 -0.6538472176442869 -0.1050709588994255 -0.6787910320738181 -0.3049570032982232 -0.7174249423959321 -0.46801508023539395 0.6972883195470573 0.24042437083247628 0.8001776974141316 0.9280679682009179 0.6165091433154607 0.3335145032209417 0.1477659266647907 0.2048742416420085 -0.6084723890539133 0.2986030360557374 -0.459941302088324 1.4926691097931775 0.34559148899013387 -0.2795786724344346 -0.3890729572125364 0.09656240720778209 -0.12997466411964068 -1.4342623877195106 0.2222854951399204 0.7936951750135814 0.4727340829776181 0.18146254758628746 -0.20286878117620544 -0.25658298287020975 -0.42461305910067515 0.24868686795158457 -1.230507861504242 -0.7008716660229414 0.6068420525393419 -0.759799293597085 -0.635376412533609 -0.9907182960422872 -0.5667536691588885 0.8278355683407161 0.39649958869391067 -0.7883182269723842 1.9789444217903405 -1.6274429950736746 -0.8022942295365021 0.9168037081410082 0.3701702067707625 0.13082878458981984 -0.5578576522208393 0.00016866436738035466 0.012477820752036574 0.36176501342620276 -0.6489538941077274 -1.408952191089496 0.5125576427324592 0.8837609187534263 0.3989832743477129 -1.3406696046630138 0.09922349897971298 -0.8151350900549124 -0.3138190816745434 1.4524871382576534 0.8047971984640139 -0.44977927395365763 0.029981633963754816 0.6725311672070353 0.012389889023920598
0.03830712311031467 -2.12402997340949 -0.13821762085472325 1.0551149171508023 0.7382773603649092 -0.2884132400069291 0.0475911195154019 0.09368328588777414 -0.3998916450945952 -0.8908574205888916 1.0854950721045564 -0.33080918847463675 0.4058928569833526 1.8915292282994651 0.41548692842969087 -0.7764916666511015 -3.5971502145364633 -1.670468863815897 -0.45553828792462187 -1.0431361475223713 -0.6139177284392007 0.6673115706793088 0.15012414248432213 0.21186404269628029 0.7217644503115505 -0.8200451257620199 -0.06262384547880827 0.4275772839353217 0.1481536490215126 0.2997286650197483 -1.1130567837729088 0.8519653715093843 -0.4840466797769599 -0.14287003202507007 0.22746806778212436 0.27724102544019347 -1.1016032905203288 -0.2643960511567253 -0.4444041256846733 -0.7670685735649887 -0.9584033859596655 -2.3950579280604365 0.22123597082948349 -0.30796827932072124 -0.3145297345883228 0.2083318611733057 0.2603913008727064 -0.2035382964394043 1.1883942201636437 1.1138381420236236 0.6220419002082319 0.7371856699626272 1.1998582549391852 0.46013979125237525 -0.1559402349454669 -0.3895416693188388 -0.865917205703786 -1.0719733834690377 0.45826519993748177 -0.26281790803632804 -0.3754507384434114 0.1015266931915929 0.19436177214645883 0.2957321422658455 0.7840944186990239 2.361714062492668 0.4252092979237774 0.6542809627475958 0.46346654163276313 0.3710004159815417 -0.20793462573488705 -0.7111118556937108 0.20997685297589644 0.2344982351560284 -0.02762933168149435 0.7622035321632035 0.4473053584918683 -0.5765408304526393 -1.6824077813453284 -0.26928423248696204 -0.8026541839790822 -0.9941275788341525 1.7082018595902966 -0.6798978919847517 0.4554120467594028 4.2016276234983705 1.6535039538267844 -0.4814598928863902 -1.4240576792723667 -0.39417325455357916 0.2914957355869947 0.6135824565869691 -0.06817434298339226 1.1356444392654377 -0.016352473216094416 0.3498741755258878 -0.06184814365504833 0.13472580565138087 0.3440498555346268 2.082805933762697 3.0822271568956205 2.3229294855253024 -1.1737062791341657 0.3940274730043343 -0.4287769606703777 0.40094759716293527 -0.8326311899571467 0.36119911362040374 -3.4229579753593438 -0.46627032963014536 -1.969858657438988 0.12467793449707558 1.4520240825783057 0.09226840781811851 0.2994589562981294 -0.6952149819577962 0.0541947408748486 0.8088212320217426 1.440349731564171 0.6679286354380174 0.7831284552413287 -1.2676006525914816 0.9324277878315103 0.5362866109182828 -0.6745834217503737 -0.6682078572413331 -0.8871861423848915 -0.5711368858282486 -0.157663902504793 -0.17219192091763894 -0.3629178960837234 1.0015611522940622 0.16153058454905084 -0.15091527092704976 0.5414763826493384 0.40477108467408357 0.33507850527395194 0.21013446159968327 0.2903330827374613 -1.151135078701869 0.2739618404682895 0.2372788832249591 1.8371938480816938 1.4167418623372439 -1.1594574825246353 -0.5585801322091606 -0.04293870834505508 -0.06533404532111974 -1.5241005888295815 0.040876940720019926 1.7775851352801257 -0.534433102649312 0.1411509924514343 -1.042931487710733 -0.33385774549297337 -1.0216391539908598 -0.0829162771792572 -1.0845033976152483 -0.6521353771595026 0.6449889959227085 -0.8675832805522994 -0.917323328089904 -1.1198637793924133 -0.9911587260138155 1.6737187382117626 -0.0669497265476718 -0.6066474200300327 1.2646228009100802 -1.401634060161528 -0.7531805027289867 0.879966998928633 0.3871073488457333 0.3182028125645358 -0.5667734666532304 0.14998633135487716 -0.07462215549126504 0.41646137652781823 -0.7695633149623843 -1.6054855169659767 -0.22504531727324464 0.7017674383643333 0.266810831245805 -1.0361602304251705 0.3477154773116721 -0.783568885212857 -0.4049420630343091 1.474458500322422 0.30474591572868165 -0.28751618211395646 0.15635418255443395 0.7828746873593098 0.16872221720148362
-1.509933039079948 -0.42644368455151077 0.6175915777463621 0.5259314929362039 0.3234128960105656 0.4779408239895382 0.3212086892703952 -0.3894269981178454 -0.6609720016145262 -0.3476830814118399 -0.4239697690897214 -0.6684994203398229 0.06914493442677769 1.1503665759669608 0.07675437134291943 -1.131792155398883 0.09917927600533887 -0.3862203182550897 -0.3391549893361707 -0.5518515552360754 -1.1063924843788557 1.226044683526566 0.22578399521148212 0.5313956013745686 1.6523636695747543 -1.2573877166142216 -0.14941528934275558 0.4733372637792558 0.03237507389659586 -0.2669910655774112 -2.026010007819575 1.868873695683478 -0.5679955119857896 -0.03948674524071264 1.0493492183116184 0.35194391357072285 -1.1642268788888206 -0.2684000301097958 -0.5474770803174636 -0.49572540166646883 -0.8291092928468173 -1.8280430348203616 1.0722598043612048 0.7933956414952916 -0.5744155565795205 -0.015984034133082147 0.23293371888238595 -0.39749100607290255 0.14258026869879317 0.7497023143723992 1.1673314859560735 0.6907577175173909 0.4490557655240718 0.47609682880226395 0.042890114495306775 -0.29459442911697653 -0.5010157035311307 -1.0690161006129266 0.34325152800304753 -0.353349792779314 -0.10937395715015356 -0.046238976362881656 0.3928550499627879 0.1640456376614207 0.4215668160751836 2.0234121651854124 0.5967157627386175 1.0664144013240215 0.7941769997460064 0.34216857935151396 -0.23493223736965346 0.20108443558227304 -0.11316067788609543 0.3487963690806767 -0.030733424528114815 0.3115760512766376 0.7882284954720554 -0.6152531594211726 -0.6883151695141694 0.3183516794375743 -0.06635297350393735 -1.2005509101308356 1.2904454184001388 -0.7162761735034696 0.7709149438942723 1.3471482704088218 -0.29984050800726425 0.46834983786699336 -0.8781253177342038 -0.5655105407804067 0.2471922856839291 0.5740077796181405 -0.40977136610215237 1.4121557856284583 0.062416614564008634 0.27687001525401994 -0.2117992508966159 -0.1505424609686633 0.29174333282142656 -0.7411145727033881 -0.16815194652031043 0.7406119220353568 -1.0892727939794338 0.3370191739400905 0.12724749499646473 1.1892282860291647 -1.3806489732694287 -0.07525516108957363 -0.917489164243807 -0.39918279195302864 -0.5616793399597746 0.4609692291322061 1.5638629563291842 0.4391665314348178 0.3233779290075721 -0.1548269472766301 0.12814326733785672 1.3618192421574353 0.7333788946220273 0.7260831322915625 0.6093352512748409 0.026733816450418474 0.790388993458484 0.5484322451418814 -0.25276000957969375 -0.46247435292282285 -1.4789576737443562 -0.6096442978748274 0.0804513605785324 -0.20040000792073875 -0.06858880481299155 0.9747861981930631 0.14462686681517672 -1.157421425931213 -0.16248934891789435 0.26077850900879607 0.3748264745958512 0.04679819130046133 0.042089472970882356 -1.2134012837309427 0.19780833593416255 0.2126297172177112 0.8107007084326426 0.9517789386646125 -1.455167513303294 -0.4063343153961454 0.23159134592187858 0.1629161520426678 -0.7695214059808554 0.004769653474501463 2.6285637173962084 -1.3010316785564175 0.1041636165938077 -1.1845367940907663 -0.35384010215217127 -1.4236216201762129 -0.06518774955124257 -0.8904499007378277 -0.5380377892814346 0.18958491958310575 -0.36720546771548374 -0.7251662769042478 -1.1093477103524378 -1.0449816853715421 1.6266930042815275 -0.8363842292416755 -0.03557172645702261 0.08765970540151355 -0.3943596595327724 -0.24085683038420455 0.686954541721217 0.3022838273414343 0.41976627253133514 -0.26750374354777157 0.36065943906684983 -0.12290233065389157 0.49181501086846907 -0.9175339014388133 -0.8023399951727731 -0.6176807950260589 0.2486030499885267 0.02009471386734604 -0.3767311478177318 0.5071051042583202 -0.6776985703405877 -0.17096987558507976 0.5209762058134576 -0.37468994901798697 -0.2363147195394769 0.24834773944461097 0.7216335811606411 0.21383247927656077
-2.088620740672261 0.5451882842832868 0.8534774372785366 -0.38796789707381574 -0.45616049488965305 0.41488323340742095 0.2542355656839557 -1.1881707912989279 -0.5762577519945817 0.6061352562803045 -3.058345208071701 -2.9169404477382477 0.014144666931498219 0.6031841440717806 -0.29155615651128497 -0.8484876973734292 2.4704213325931006 0.2622399240456709 -0.07211353013679839 -0.1975615100306791 -1.2846061860105424 0.7219948211548016 -0.17341576602241102 0.576622334422852 1.8989221783294263 -1.2851674578306511 -0.16207642975019185 0.41056146610361555 -0.18987802534349232 -1.2204728458657432 -0.9685116780382611 0.8002954539389185 -0.6402046871601877 0.23062435402291892 2.2649945608817315 0.36617316979622744 -1.2117439506331775 -0.13421826988734303 -0.45055960376310794 0.39129001946851316 -0.6966396302194647 -0.6280554533921635 1.7515779125830866 2.101681944731593 -0.6191974887809013 -0.22190934274742427 0.10189976026029547 -0.5047234914000212 -0.9333320448133345 0.2812964264564897 1.5860742023189007 -0.12345383228198736 -0.9533593957778549 0.4228721651501685 0.11393766526143603 -0.30000865815401234 -0.19618237029496535 -0.6237306007645645 0.20745177256119757 0.33262592996840135 0.11393689393048766 -0.17455013673717037 0.6663970292848395 0.12487128145480429 -0.3023023392841955 0.7486499618484849 0.5895285009615588 0.6855010971041421 0.8737354161966244 -0.21062040009716632 -0.35225450283260623 0.5170555306028127 -0.26991543831305775 0.582990442732725 -0.17088168674664767 -0.056848119337295645 0.8660205640508697 -0.42144108913059675 -0.018797335212161176 0.8068882766650879 1.2205687480136593 -0.9165157445869441 0.8659208052482119 -0.44354332034627486 1.1108199240225902 -0.07873103545331603 -1.6201374625511966 0.96986125008762 0.3093661881095124 0.09055348200954083 0.11769790363481666 0.3550096969802402 -0.7578465407460885 0.6588960929221039 0.4675016309340852 -0.2905436560863706 -0.269902068576619 -0.4996825865420039 -0.1562269129479503 -2.096108307298558 -2.5410626490597465 0.20818890783753824 -1.070282626030176 1.0798530433274305 1.3954945229226934 1.8691287491170778 -1.6215819083072072 -0.5127075380467623 0.8715687475626086 -0.4087717211930444 0.28345461045007314 0.6251056267352202 1.1264488888090987 0.6673830473471924 0.029151167642659473 0.442168037265303 0.135755789577792 0.7553957652127505 0.04722602286649931 0.47350695658790065 1.0231723028059347 1.2628096589607414 0.14937363747154275 0.20692289664092103 -0.012915936730719692 0.43970132089236535 -0.9852855550624904 -0.4042838606250199 0.6309728841492745 -0.46474977922056093 0.21016840016141222 0.6824304285986182 0.16856846523243874 -1.3410472997174065 -0.6039775865073533 0.21901248081560346 0.3687838679461971 -0.17341859423588843 -0.2143734393816953 -0.8344147642201307 -0.28836747437065824 -0.021159664796750653 -0.7131666813402104 -1.2135570925825165 -0.9152109097325916 0.2502583262037626 0.9317330757573308 0.33095779823735905 -0.04723322195535091 0.14260726528198664 1.6175655880589626 -0.18332428338537457 0.12886369044364904 -0.15028509354221858 -0.64732330048284 -1.0552373016612795 0.2057939252428004 -0.5268648033837506 -0.22555516703012768 -0.2932325157724434 0.16794702959835592 -0.219695365815241 -1.0214542916735634 -0.6624650412202849 0.5973834782296035 -0.9157166457244165 0.16015581568871126 -0.6335049065425089 0.05597805802751649 0.13251080027793305 0.3528607689580375 0.0010937472848110196 0.442060050932529 0.17066751385331252 0.6541308103229767 -0.03750313915178057 0.5061553387505412 -1.4604963817153749 1.580328558084375 1.4965216507700485 -0.5965116171476114 -0.47767985701866766 0.017424623234350636 0.429047440722945 -0.5560892474665068 0.1343339695296009 0.01949436127918578 -1.0540301687270557 -0.37745697024016284 0.2662122784298576 0.5238725535246461 0.1781890190413383