An instance of this daemon is already running

     Program PWSCF v.7.1 starts on 11May2023 at 10: 3:39 

     This program is part of the open-source Quantum ESPRESSO suite
     for quantum simulation of materials; please cite
         "P. Giannozzi et al., J. Phys.:Condens. Matter 21 395502 (2009);
         "P. Giannozzi et al., J. Phys.:Condens. Matter 29 465901 (2017);
         "P. Giannozzi et al., J. Chem. Phys. 152 154105 (2020);
          URL http://www.quantum-espresso.org", 
     in publications or presentations arising from this work. More details at
     http://www.quantum-espresso.org/quote

     Parallel version (MPI & OpenMP), running on       4 processor cores
     Number of MPI processes:                 4
     Threads/MPI process:                     1

     MPI processes distributed on     1 nodes
     259185 MiB available memory on the printing compute node when the environment starts
 
     Reading input from pw-si-29.in
Warning: card &CELL ignored
Warning: card / ignored

     Current dimensions of program PWSCF are:
     Max number of different atomic species (ntypx) = 10
     Max number of k-points (npk) =  40000
     Max angular momentum in pseudopotentials (lmaxx) =  4

     IMPORTANT: XC functional enforced from input :
     Exchange-correlation= PBE
                           (   1   4   3   4   0   0   0)
     Any further DFT definition will be discarded
     Please, verify this is what you really want


     gamma-point specific algorithms are used
 
     K-points division:     npool     =       2
     R & G space division:  proc/nbgrp/npool/nimage =       2
     Subspace diagonalization in iterative solution of the eigenvalue problem:
     a serial algorithm will be used

     Message from routine divide_et_impera:
     suboptimal parallelization: some nodes have no k-points
 
     Parallelization info
     --------------------
     sticks:   dense  smooth     PW     G-vecs:    dense   smooth      PW
     Min        2057    2057    541                99085    99085   13477
     Max        2060    2060    544                99088    99088   13484
     Sum        4117    4117   1085               198173   198173   26961
 
     Using Slab Decomposition
 


     bravais-lattice index     =            0
     lattice parameter (alat)  =      20.7419  a.u.
     unit-cell volume          =    8923.7306 (a.u.)^3
     number of atoms/cell      =           64
     number of atomic types    =            1
     number of electrons       =       256.00
     number of Kohn-Sham states=          154
     kinetic-energy cutoff     =      30.0000  Ry
     charge density cutoff     =     120.0000  Ry
     scf convergence threshold =      1.0E-06
     mixing beta               =       0.5000
     number of iterations used =            8  plain     mixing
     Exchange-correlation= PBE
                           (   1   4   3   4   0   0   0)

     GPU acceleration is ACTIVE.
     GPU-aware MPI enabled

     Message from routine print_cuda_info:
     High GPU oversubscription detected. Are you sure this is what you want?

     celldm(1)=  20.741913  celldm(2)=   0.000000  celldm(3)=   0.000000
     celldm(4)=   0.000000  celldm(5)=   0.000000  celldm(6)=   0.000000

     crystal axes: (cart. coord. in units of alat)
               a(1) = (   1.000000   0.000000   0.000000 )  
               a(2) = (   0.000000   1.000000   0.000000 )  
               a(3) = (   0.000000   0.000000   1.000000 )  

     reciprocal axes: (cart. coord. in units 2 pi/alat)
               b(1) = (  1.000000  0.000000  0.000000 )  
               b(2) = (  0.000000  1.000000  0.000000 )  
               b(3) = (  0.000000  0.000000  1.000000 )  


     PseudoPot. # 1 for Si read from file:
     /home/ppiaggi/pseudos/Si_ONCV_PBE_sr.upf
     MD5 check sum: 8553c464762ac42b85b1eed164b4d029
     Pseudo is Norm-conserving, Zval =  4.0
     Generated using ONCVPSP code by D. R. Hamann
     Using radial grid of 1510 points,  4 beta functions with: 
                l(1) =   0
                l(2) =   0
                l(3) =   1
                l(4) =   1

     atomic species   valence    mass     pseudopotential
        Si             4.00    28.08500     Si( 1.00)

     No symmetry found



   Cartesian axes

     site n.     atom                  positions (alat units)
         1           Si  tau(   1) = (   0.5999730   0.0232313   0.7014320  )
         2           Si  tau(   2) = (   0.8167810   0.0012133   0.4588280  )
         3           Si  tau(   3) = (   0.9840440   0.8142600   0.3158810  )
         4           Si  tau(   4) = (   0.0064427   0.5694640   0.3209760  )
         5           Si  tau(   5) = (   0.2421030   0.1507140   0.2140840  )
         6           Si  tau(   6) = (   0.5586080   0.7422550   0.0165891  )
         7           Si  tau(   7) = (   0.5035660   0.8634270   0.5170610  )
         8           Si  tau(   8) = (   0.4060760   0.3631840   0.9665820  )
         9           Si  tau(   9) = (   0.4257900   0.8744160   0.8984110  )
        10           Si  tau(  10) = (   0.0450977   0.8436970   0.7026030  )
        11           Si  tau(  11) = (   0.9060640   0.7068750   0.8808190  )
        12           Si  tau(  12) = (   0.8293750   0.6929790   0.2308060  )
        13           Si  tau(  13) = (   0.7270540   0.2244080   0.1553450  )
        14           Si  tau(  14) = (   0.7922030   0.2656550   0.5261950  )
        15           Si  tau(  15) = (   0.7621100   0.2646270   0.7905490  )
        16           Si  tau(  16) = (   0.3227250   0.0481948   0.5616730  )
        17           Si  tau(  17) = (   0.4560060   0.0048243   0.2337660  )
        18           Si  tau(  18) = (   0.7896110   0.4630020   0.2608830  )
        19           Si  tau(  19) = (   0.6176590   0.7412860   0.7871250  )
        20           Si  tau(  20) = (   0.5730310   0.3662130   0.1300030  )
        21           Si  tau(  21) = (   0.5123290   0.0937791   0.5163870  )
        22           Si  tau(  22) = (   0.9937540   0.0480929   0.8004370  )
        23           Si  tau(  23) = (   0.3701780   0.8225950   0.2561490  )
        24           Si  tau(  24) = (   0.2758690   0.2524490   0.6045320  )
        25           Si  tau(  25) = (   0.3845190   0.4582190   0.3845050  )
        26           Si  tau(  26) = (   0.0253707   0.5389710   0.5785500  )
        27           Si  tau(  27) = (   0.0397640   0.0156461   0.0271362  )
        28           Si  tau(  28) = (   0.6214660   0.8504600   0.2844940  )
        29           Si  tau(  29) = (   0.5571890   0.9706100   0.0755379  )
        30           Si  tau(  30) = (   0.8234810   0.1042030   0.6699810  )
        31           Si  tau(  31) = (   0.3334540   0.4160970   0.7512050  )
        32           Si  tau(  32) = (   0.2605310   0.2868400   0.4050200  )
        33           Si  tau(  33) = (   0.2727840   0.8843520   0.6995250  )
        34           Si  tau(  34) = (   0.7319810   0.0925990   0.9487520  )
        35           Si  tau(  35) = (   0.9816460   0.4950710   0.9667540  )
        36           Si  tau(  36) = (   0.6091470   0.5106060   0.8946600  )
        37           Si  tau(  37) = (   0.3756140   0.1177230   0.9322140  )
        38           Si  tau(  38) = (   0.7690300   0.9244110   0.8300400  )
        39           Si  tau(  39) = (   0.7178980   0.4595640   0.4853260  )
        40           Si  tau(  40) = (   0.9877750   0.0971771   0.3675780  )
        41           Si  tau(  41) = (   0.1756220   0.9710280   0.3397240  )
        42           Si  tau(  42) = (   0.7657010   0.3973900   0.9990690  )
        43           Si  tau(  43) = (   0.2118200   0.3023630   0.0197886  )
        44           Si  tau(  44) = (   0.0981089   0.4512180   0.1442600  )
        45           Si  tau(  45) = (   0.1891680   0.6535720   0.1902000  )
        46           Si  tau(  46) = (   0.2992580   0.6141520   0.5072990  )
        47           Si  tau(  47) = (   0.7680540   0.6596380   0.0235189  )
        48           Si  tau(  48) = (   0.9955400   0.3476890   0.4846960  )
        49           Si  tau(  49) = (   0.8339020   0.0382034   0.2051630  )
        50           Si  tau(  50) = (   0.5140680   0.6170520   0.4297220  )
        51           Si  tau(  51) = (   0.1588450   0.5217290   0.7992470  )
        52           Si  tau(  52) = (   0.9276480   0.2938490   0.2671890  )
        53           Si  tau(  53) = (   0.4332110   0.2338450   0.2882970  )
        54           Si  tau(  54) = (   0.1751680   0.8586410   0.1494670  )
        55           Si  tau(  55) = (   0.6169600   0.2338760   0.4117180  )
        56           Si  tau(  56) = (   0.1898170   0.1935870   0.8382930  )
        57           Si  tau(  57) = (   0.5288960   0.6727550   0.2165940  )
        58           Si  tau(  58) = (   0.7151660   0.6547380   0.6065880  )
        59           Si  tau(  59) = (   0.3042830   0.6621760   0.7221460  )
        60           Si  tau(  60) = (   0.9097300   0.7786070   0.5354970  )
        61           Si  tau(  61) = (   0.2839150   0.7227790   0.9343760  )
        62           Si  tau(  62) = (   0.1463970   0.7507650   0.5124900  )
        63           Si  tau(  63) = (   0.7944310   0.8633810   0.0813876  )
        64           Si  tau(  64) = (   0.3884170   0.5024920   0.1627710  )

     number of k points=     1  Fermi-Dirac smearing, width (Ry)=  0.0100
                       cart. coord. in units 2pi/alat
        k(    1) = (   0.0000000   0.0000000   0.0000000), wk =   2.0000000

     Dense  grid:    99087 G-vectors     FFT dimensions: (  75,  75,  75)

     Estimated max dynamical RAM per process >     159.39 MB

     Estimated total dynamical RAM >     613.36 MB

     Initial potential from superposition of free atoms

     starting charge     255.9608, renormalised to     256.0000
     Starting wfcs are  256 randomized atomic wfcs

     total cpu time spent up to now is        4.1 secs

     Self-consistent Calculation

     iteration #  1     ecut=    30.00 Ry     beta= 0.50
     Davidson diagonalization with overlap
     ethr =  1.00E-02,  avg # of iterations =  3.0

     Threshold (ethr) on eigenvalues was too large:
     Diagonalizing with lowered threshold

     Davidson diagonalization with overlap
     ethr =  6.30E-04,  avg # of iterations =  4.0

     total cpu time spent up to now is        4.4 secs

     total energy              =    -500.19022672 Ry
     estimated scf accuracy    <       2.05671270 Ry

     iteration #  2     ecut=    30.00 Ry     beta= 0.50
     Davidson diagonalization with overlap
     ethr =  8.03E-04,  avg # of iterations =  5.0

     total cpu time spent up to now is        4.5 secs

     total energy              =    -498.95996076 Ry
     estimated scf accuracy    <      19.30630051 Ry

     iteration #  3     ecut=    30.00 Ry     beta= 0.50
     Davidson diagonalization with overlap
     ethr =  8.03E-04,  avg # of iterations =  4.0

     total cpu time spent up to now is        4.6 secs

     total energy              =    -500.57177283 Ry
     estimated scf accuracy    <       2.69552387 Ry

     iteration #  4     ecut=    30.00 Ry     beta= 0.50
     Davidson diagonalization with overlap
     ethr =  8.03E-04,  avg # of iterations =  2.0

     total cpu time spent up to now is        4.7 secs

     total energy              =    -500.76460015 Ry
     estimated scf accuracy    <       0.79744169 Ry

     iteration #  5     ecut=    30.00 Ry     beta= 0.50
     Davidson diagonalization with overlap
     ethr =  3.12E-04,  avg # of iterations =  2.0

     total cpu time spent up to now is        4.8 secs

     total energy              =    -500.79384864 Ry
     estimated scf accuracy    <       0.89537466 Ry

     iteration #  6     ecut=    30.00 Ry     beta= 0.50
     Davidson diagonalization with overlap
     ethr =  3.12E-04,  avg # of iterations =  1.0

     total cpu time spent up to now is        4.9 secs

     total energy              =    -500.86594905 Ry
     estimated scf accuracy    <       0.08279425 Ry

     iteration #  7     ecut=    30.00 Ry     beta= 0.50
     Davidson diagonalization with overlap
     ethr =  3.23E-05,  avg # of iterations =  2.0

     total cpu time spent up to now is        5.0 secs

     total energy              =    -500.87681216 Ry
     estimated scf accuracy    <       0.02947413 Ry

     iteration #  8     ecut=    30.00 Ry     beta= 0.50
     Davidson diagonalization with overlap
     c_bands:  1 eigenvalues not converged
     ethr =  1.15E-05,  avg # of iterations = 20.0

     total cpu time spent up to now is        5.2 secs

     total energy              =    -500.87883202 Ry
     estimated scf accuracy    <       0.04326324 Ry

     iteration #  9     ecut=    30.00 Ry     beta= 0.50
     Davidson diagonalization with overlap
     ethr =  1.15E-05,  avg # of iterations =  2.0

     total cpu time spent up to now is        5.3 secs

     total energy              =    -500.88214563 Ry
     estimated scf accuracy    <       0.00375067 Ry

     iteration # 10     ecut=    30.00 Ry     beta= 0.50
     Davidson diagonalization with overlap
     ethr =  1.47E-06,  avg # of iterations = 10.0

     total cpu time spent up to now is        5.5 secs

     total energy              =    -500.88257139 Ry
     estimated scf accuracy    <       0.00188682 Ry

     iteration # 11     ecut=    30.00 Ry     beta= 0.50
     Davidson diagonalization with overlap
     ethr =  7.37E-07,  avg # of iterations =  2.0

     total cpu time spent up to now is        5.6 secs

     total energy              =    -500.88264589 Ry
     estimated scf accuracy    <       0.00154778 Ry

     iteration # 12     ecut=    30.00 Ry     beta= 0.50
     Davidson diagonalization with overlap
     ethr =  6.05E-07,  avg # of iterations =  2.0

     total cpu time spent up to now is        5.7 secs

     total energy              =    -500.88277380 Ry
     estimated scf accuracy    <       0.00068189 Ry

     iteration # 13     ecut=    30.00 Ry     beta= 0.50
     Davidson diagonalization with overlap
     ethr =  2.66E-07,  avg # of iterations =  2.0

     total cpu time spent up to now is        5.8 secs

     total energy              =    -500.88282339 Ry
     estimated scf accuracy    <       0.00039114 Ry

     iteration # 14     ecut=    30.00 Ry     beta= 0.50
     Davidson diagonalization with overlap
     ethr =  1.53E-07,  avg # of iterations =  1.0

     total cpu time spent up to now is        5.9 secs

     total energy              =    -500.88285061 Ry
     estimated scf accuracy    <       0.00003119 Ry

     iteration # 15     ecut=    30.00 Ry     beta= 0.50
     Davidson diagonalization with overlap
     ethr =  1.22E-08,  avg # of iterations =  4.0

     total cpu time spent up to now is        6.0 secs

     total energy              =    -500.88285452 Ry
     estimated scf accuracy    <       0.00006461 Ry

     iteration # 16     ecut=    30.00 Ry     beta= 0.50
     Davidson diagonalization with overlap
     ethr =  1.22E-08,  avg # of iterations =  3.0

     total cpu time spent up to now is        6.1 secs

     total energy              =    -500.88285928 Ry
     estimated scf accuracy    <       0.00001402 Ry

     iteration # 17     ecut=    30.00 Ry     beta= 0.50
     Davidson diagonalization with overlap
     ethr =  5.48E-09,  avg # of iterations =  2.0

     total cpu time spent up to now is        6.2 secs

     total energy              =    -500.88286029 Ry
     estimated scf accuracy    <       0.00000364 Ry

     iteration # 18     ecut=    30.00 Ry     beta= 0.50
     Davidson diagonalization with overlap
     ethr =  1.42E-09,  avg # of iterations =  2.0

     total cpu time spent up to now is        6.3 secs

     total energy              =    -500.88286070 Ry
     estimated scf accuracy    <       0.00000271 Ry

     iteration # 19     ecut=    30.00 Ry     beta= 0.50
     Davidson diagonalization with overlap
     ethr =  1.06E-09,  avg # of iterations =  2.0

     total cpu time spent up to now is        6.4 secs

     End of self-consistent calculation

          k = 0.0000 0.0000 0.0000 ( 12419 PWs)   bands (ev):

    -6.4185  -5.6629  -5.5121  -5.3527  -5.2111  -5.1321  -4.8694  -4.7553
    -4.5722  -4.4174  -4.3038  -4.2298  -3.9987  -3.9450  -3.8593  -3.6854
    -3.5087  -3.4531  -3.4056  -3.1637  -3.1483  -2.9582  -2.6354  -2.5266
    -2.3545  -2.3331  -2.1787  -1.8319  -1.7291  -1.6425  -1.5026  -1.4514
    -1.3745  -1.1857  -1.1673  -1.1119  -1.0613  -0.9008  -0.8536  -0.7500
    -0.6915  -0.6236  -0.5159  -0.4626  -0.3283  -0.2710  -0.1488  -0.1378
     0.0575   0.2342   0.3125   0.3923   0.4463   0.6760   0.7159   0.7729
     0.9169   0.9497   1.1413   1.2149   1.3627   1.5239   1.5590   1.6548
     1.7350   1.8328   1.8691   1.9445   2.0001   2.0893   2.1303   2.2699
     2.4394   2.5317   2.5412   2.6425   2.7279   2.9072   2.9806   3.0371
     3.0976   3.1166   3.1912   3.2808   3.3077   3.4462   3.5103   3.5501
     3.6263   3.6683   3.7602   3.8445   4.0279   4.0797   4.0999   4.1864
     4.2460   4.2964   4.3901   4.4285   4.4933   4.5202   4.5642   4.6324
     4.7232   4.7382   4.7802   4.8592   4.9403   5.0083   5.0434   5.1207
     5.1472   5.1675   5.2412   5.3479   5.4495   5.5325   5.5454   5.6365
     5.6787   5.7179   5.8104   5.8485   5.9226   5.9575   6.0025   6.0644
     6.0895   6.1368   6.1914   6.2693   6.3167   6.3706   6.4157   6.5354
     6.5791   6.6679   6.7637   6.8439   6.8839   6.9256   7.0073   7.0281
     7.0752   7.1565   7.1996   7.2736   7.3257   7.3951   7.4927   7.5571
     7.5896   7.6021

     the Fermi energy is     6.0820 ev

!    total energy              =    -500.88286074 Ry
     estimated scf accuracy    <       0.00000031 Ry
     smearing contrib. (-TS)   =      -0.16374283 Ry
     internal energy E=F+TS    =    -500.71911791 Ry

     The total energy is F=E-TS. E is the sum of the following terms:
     one-electron contribution =     112.57573039 Ry
     hartree contribution      =      52.10692563 Ry
     xc contribution           =    -149.90786272 Ry
     ewald contribution        =    -515.49391121 Ry

     convergence has been achieved in  19 iterations

     Forces acting on atoms (cartesian axes, Ry/au):

     atom    1 type  1   force =     0.02641626   -0.00287654    0.02206246
     atom    2 type  1   force =     0.00827302   -0.01502795    0.00187702
     atom    3 type  1   force =     0.03002096    0.01270455    0.02913555
     atom    4 type  1   force =    -0.00578868   -0.00618260    0.01557021
     atom    5 type  1   force =    -0.00475592    0.01023757   -0.01162334
     atom    6 type  1   force =     0.01628543   -0.00277151   -0.02584709
     atom    7 type  1   force =     0.00502001    0.00078931   -0.01671440
     atom    8 type  1   force =     0.04434497    0.00049269   -0.01558395
     atom    9 type  1   force =     0.01438406    0.03899022   -0.02836278
     atom   10 type  1   force =     0.00183934    0.00727911    0.01165920
     atom   11 type  1   force =     0.03432371    0.01429524   -0.03608852
     atom   12 type  1   force =    -0.03162462   -0.02029634    0.01121199
     atom   13 type  1   force =     0.04716589   -0.02879101   -0.01261659
     atom   14 type  1   force =     0.05387890    0.00102879    0.02284570
     atom   15 type  1   force =    -0.02705086    0.01182747    0.05221763
     atom   16 type  1   force =    -0.07777947   -0.02866245   -0.01839768
     atom   17 type  1   force =    -0.05369844    0.09601518    0.10797488
     atom   18 type  1   force =    -0.02062609    0.02533742    0.02787565
     atom   19 type  1   force =     0.00495659    0.00859056    0.02021763
     atom   20 type  1   force =    -0.02397409    0.01418180    0.00314314
     atom   21 type  1   force =     0.03795319   -0.02412064    0.01160295
     atom   22 type  1   force =     0.01742769   -0.01811056    0.01689593
     atom   23 type  1   force =    -0.04286235   -0.03793313    0.01571922
     atom   24 type  1   force =     0.00626213    0.00777697    0.07530297
     atom   25 type  1   force =    -0.02465967   -0.02867481   -0.03632645
     atom   26 type  1   force =     0.02400867    0.03188787    0.00856916
     atom   27 type  1   force =    -0.01318223    0.00050767    0.00711245
     atom   28 type  1   force =     0.04508455    0.03871162    0.02501138
     atom   29 type  1   force =     0.09544024   -0.02132764   -0.12777195
     atom   30 type  1   force =    -0.00544807   -0.04864582   -0.02807512
     atom   31 type  1   force =     0.02663753   -0.03055508    0.00114226
     atom   32 type  1   force =    -0.04067877    0.00445212   -0.03432619
     atom   33 type  1   force =    -0.00654867   -0.02735725   -0.00810017
     atom   34 type  1   force =    -0.03181594    0.02691694    0.03237215
     atom   35 type  1   force =    -0.00518707    0.02658074   -0.02415238
     atom   36 type  1   force =    -0.01446481    0.01853596    0.01419359
     atom   37 type  1   force =     0.00147158    0.00432004   -0.00507226
     atom   38 type  1   force =     0.00334547   -0.04357835   -0.01192760
     atom   39 type  1   force =    -0.01793274    0.03499919   -0.02810744
     atom   40 type  1   force =    -0.00367610   -0.00694148   -0.02112015
     atom   41 type  1   force =     0.00118072    0.00950599    0.03535756
     atom   42 type  1   force =     0.02467025    0.00594867   -0.00395647
     atom   43 type  1   force =    -0.03034480   -0.01548800    0.04275477
     atom   44 type  1   force =    -0.02627784   -0.03215557   -0.00212476
     atom   45 type  1   force =     0.01796776   -0.04085346    0.00033276
     atom   46 type  1   force =     0.02708288   -0.01934909   -0.00404209
     atom   47 type  1   force =    -0.03804515   -0.05516167    0.01686631
     atom   48 type  1   force =    -0.00417632   -0.01768202   -0.01432329
     atom   49 type  1   force =     0.01608737    0.00614191   -0.00593192
     atom   50 type  1   force =     0.03315299    0.01080774    0.02043818
     atom   51 type  1   force =    -0.07329814    0.01084475   -0.00396114
     atom   52 type  1   force =     0.02660499    0.01400045   -0.01308370
     atom   53 type  1   force =     0.05239702   -0.00969080   -0.02399606
     atom   54 type  1   force =    -0.01653255    0.02390615   -0.02773747
     atom   55 type  1   force =     0.01162304    0.03485756   -0.05134497
     atom   56 type  1   force =    -0.02983769   -0.02579156   -0.01525203
     atom   57 type  1   force =    -0.03754256   -0.04654049    0.01144323
     atom   58 type  1   force =     0.01432900   -0.00830449   -0.00864014
     atom   59 type  1   force =     0.01527156    0.00230108   -0.00704422
     atom   60 type  1   force =     0.00131201    0.00452423   -0.01020675
     atom   61 type  1   force =    -0.01632424   -0.01523618    0.02904832
     atom   62 type  1   force =    -0.05709503    0.05305116   -0.01673798
     atom   63 type  1   force =    -0.00210001    0.04034686   -0.01196893
     atom   64 type  1   force =    -0.00289085    0.02541095    0.02061175

     Total force =     0.416696     Total SCF correction =     0.000936


     Computing stress (Cartesian axis) and pressure

          total   stress  (Ry/bohr**3)                   (kbar)     P=      -22.68
  -0.00017230  -0.00003288  -0.00004200          -25.35       -4.84       -6.18
  -0.00003288  -0.00004993  -0.00002097           -4.84       -7.34       -3.08
  -0.00004200  -0.00002097  -0.00024024           -6.18       -3.08      -35.34

 
     init_run     :      0.65s CPU      4.09s WALL (       1 calls)
     electrons    :      2.11s CPU      2.26s WALL (       1 calls)
     forces       :      0.03s CPU      0.03s WALL (       1 calls)
     stress       :      0.15s CPU      0.15s WALL (       1 calls)

     Called by init_run:
     wfcinit      :      0.47s CPU      3.75s WALL (       1 calls)
                                        3.75s GPU  (       1 calls)
     potinit      :      0.04s CPU      0.11s WALL (       1 calls)
     hinit0       :      0.13s CPU      0.16s WALL (       1 calls)

     Called by electrons:
     c_bands      :      1.40s CPU      1.46s WALL (      20 calls)
     sum_band     :      0.38s CPU      0.43s WALL (      20 calls)
     v_of_rho     :      0.13s CPU      0.22s WALL (      20 calls)
     mix_rho      :      0.16s CPU      0.18s WALL (      20 calls)

     Called by c_bands:
     init_us_2    :      0.05s CPU      0.06s WALL (      41 calls)
     init_us_2:gp :      0.05s CPU      0.06s WALL (      41 calls)
     regterg      :      1.24s CPU      1.30s WALL (      20 calls)

     Called by *egterg:
     rdiaghg      :      0.42s CPU      1.10s WALL (      94 calls)
                                        1.08s GPU  (      94 calls)
     h_psi        :      1.09s CPU      3.75s WALL (      96 calls)
                                        3.74s GPU  (      96 calls)
     g_psi        :      0.00s CPU      0.00s WALL (      75 calls)
                                        0.00s GPU  (      75 calls)

     Called by h_psi:
     h_psi:calbec :      0.43s CPU      3.01s WALL (      96 calls)
                                        3.01s GPU  (      96 calls)
     vloc_psi     :      0.60s CPU      0.68s WALL (      96 calls)
                                        0.67s GPU  (      96 calls)
     add_vuspsi   :      0.03s CPU      0.05s WALL (      96 calls)
                                        0.05s GPU  (      96 calls)

     General routines
     calbec       :      0.44s CPU      3.01s WALL (     101 calls)
     fft          :      0.26s CPU      0.37s WALL (     167 calls)
                                        0.11s GPU  (     106 calls)
     ffts         :      0.04s CPU      0.05s WALL (      20 calls)
     fftw         :      0.68s CPU      0.87s WALL (    2118 calls)
                                        0.79s GPU  (    2118 calls)
 
     Parallel routines
 
     PWSCF        :      2.98s CPU      6.60s WALL

 
   This run was terminated on:  10: 3:46  11May2023            

=------------------------------------------------------------------------------=
   JOB DONE.
=------------------------------------------------------------------------------=
