An instance of this daemon is already running

     Program PWSCF v.7.1 starts on 11May2023 at 10: 7:38 

     This program is part of the open-source Quantum ESPRESSO suite
     for quantum simulation of materials; please cite
         "P. Giannozzi et al., J. Phys.:Condens. Matter 21 395502 (2009);
         "P. Giannozzi et al., J. Phys.:Condens. Matter 29 465901 (2017);
         "P. Giannozzi et al., J. Chem. Phys. 152 154105 (2020);
          URL http://www.quantum-espresso.org", 
     in publications or presentations arising from this work. More details at
     http://www.quantum-espresso.org/quote

     Parallel version (MPI & OpenMP), running on       4 processor cores
     Number of MPI processes:                 4
     Threads/MPI process:                     1

     MPI processes distributed on     1 nodes
     259165 MiB available memory on the printing compute node when the environment starts
 
     Reading input from pw-si-56.in
Warning: card &CELL ignored
Warning: card / ignored

     Current dimensions of program PWSCF are:
     Max number of different atomic species (ntypx) = 10
     Max number of k-points (npk) =  40000
     Max angular momentum in pseudopotentials (lmaxx) =  4

     IMPORTANT: XC functional enforced from input :
     Exchange-correlation= PBE
                           (   1   4   3   4   0   0   0)
     Any further DFT definition will be discarded
     Please, verify this is what you really want


     gamma-point specific algorithms are used
 
     K-points division:     npool     =       2
     R & G space division:  proc/nbgrp/npool/nimage =       2
     Subspace diagonalization in iterative solution of the eigenvalue problem:
     a serial algorithm will be used

     Message from routine divide_et_impera:
     suboptimal parallelization: some nodes have no k-points
 
     Parallelization info
     --------------------
     sticks:   dense  smooth     PW     G-vecs:    dense   smooth      PW
     Min        2074    2074    546                99902    99902   13598
     Max        2075    2075    547                99903    99903   13603
     Sum        4149    4149   1093               199805   199805   27201
 
     Using Slab Decomposition
 


     bravais-lattice index     =            0
     lattice parameter (alat)  =      20.7988  a.u.
     unit-cell volume          =    8997.3449 (a.u.)^3
     number of atoms/cell      =           64
     number of atomic types    =            1
     number of electrons       =       256.00
     number of Kohn-Sham states=          154
     kinetic-energy cutoff     =      30.0000  Ry
     charge density cutoff     =     120.0000  Ry
     scf convergence threshold =      1.0E-06
     mixing beta               =       0.5000
     number of iterations used =            8  plain     mixing
     Exchange-correlation= PBE
                           (   1   4   3   4   0   0   0)

     GPU acceleration is ACTIVE.
     GPU-aware MPI enabled

     Message from routine print_cuda_info:
     High GPU oversubscription detected. Are you sure this is what you want?

     celldm(1)=  20.798793  celldm(2)=   0.000000  celldm(3)=   0.000000
     celldm(4)=   0.000000  celldm(5)=   0.000000  celldm(6)=   0.000000

     crystal axes: (cart. coord. in units of alat)
               a(1) = (   1.000000   0.000000   0.000000 )  
               a(2) = (   0.000000   1.000000   0.000000 )  
               a(3) = (   0.000000   0.000000   1.000000 )  

     reciprocal axes: (cart. coord. in units 2 pi/alat)
               b(1) = (  1.000000  0.000000  0.000000 )  
               b(2) = (  0.000000  1.000000  0.000000 )  
               b(3) = (  0.000000  0.000000  1.000000 )  


     PseudoPot. # 1 for Si read from file:
     /home/ppiaggi/pseudos/Si_ONCV_PBE_sr.upf
     MD5 check sum: 8553c464762ac42b85b1eed164b4d029
     Pseudo is Norm-conserving, Zval =  4.0
     Generated using ONCVPSP code by D. R. Hamann
     Using radial grid of 1510 points,  4 beta functions with: 
                l(1) =   0
                l(2) =   0
                l(3) =   1
                l(4) =   1

     atomic species   valence    mass     pseudopotential
        Si             4.00    28.08500     Si( 1.00)

     No symmetry found



   Cartesian axes

     site n.     atom                  positions (alat units)
         1           Si  tau(   1) = (   0.6200490   0.7324390   0.7934920  )
         2           Si  tau(   2) = (   0.6733290   0.1277330   0.4462750  )
         3           Si  tau(   3) = (   0.9242280   0.9485230   0.3972210  )
         4           Si  tau(   4) = (   0.7561260   0.5254140   0.3540690  )
         5           Si  tau(   5) = (   0.2807800   0.1588490   0.3247280  )
         6           Si  tau(   6) = (   0.3684240   0.5827540   0.0866217  )
         7           Si  tau(   7) = (   0.7150120   0.8455580   0.5021570  )
         8           Si  tau(   8) = (   0.3272650   0.2301300   0.8905550  )
         9           Si  tau(   9) = (   0.5817090   0.9527930   0.8311820  )
        10           Si  tau(  10) = (   0.1636160   0.9493580   0.6561250  )
        11           Si  tau(  11) = (   0.8844290   0.7107210   0.7451720  )
        12           Si  tau(  12) = (   0.9247320   0.8004650   0.1652180  )
        13           Si  tau(  13) = (   0.6818370   0.3678050   0.2324860  )
        14           Si  tau(  14) = (   0.8507310   0.1760870   0.5647290  )
        15           Si  tau(  15) = (   0.7699630   0.2545830   0.7925320  )
        16           Si  tau(  16) = (   0.3749960   0.9734040   0.5981230  )
        17           Si  tau(  17) = (   0.6030520   0.0039236   0.2717520  )
        18           Si  tau(  18) = (   0.7884300   0.5166840   0.1202140  )
        19           Si  tau(  19) = (   0.6151400   0.5527130   0.7390480  )
        20           Si  tau(  20) = (   0.4573690   0.2734550   0.0414703  )
        21           Si  tau(  21) = (   0.5177370   0.1774930   0.5700750  )
        22           Si  tau(  22) = (   0.0094745   0.9187490   0.7986540  )
        23           Si  tau(  23) = (   0.3449630   0.8239260   0.3159170  )
        24           Si  tau(  24) = (   0.3247600   0.2945910   0.6296710  )
        25           Si  tau(  25) = (   0.3339530   0.5640510   0.4174710  )
        26           Si  tau(  26) = (   0.0614367   0.4959130   0.3324020  )
        27           Si  tau(  27) = (   0.9701300   0.0219187   0.0433260  )
        28           Si  tau(  28) = (   0.8074420   0.9931070   0.2037210  )
        29           Si  tau(  29) = (   0.5779060   0.9773540   0.0630718  )
        30           Si  tau(  30) = (   0.6647220   0.0617873   0.6705350  )
        31           Si  tau(  31) = (   0.1814970   0.4611880   0.7794200  )
        32           Si  tau(  32) = (   0.2072130   0.3177120   0.4374680  )
        33           Si  tau(  33) = (   0.3703590   0.7642250   0.7043040  )
        34           Si  tau(  34) = (   0.6728670   0.2807150   0.0151273  )
        35           Si  tau(  35) = (   0.9519130   0.6071160   0.9085690  )
        36           Si  tau(  36) = (   0.5744890   0.3916730   0.8705710  )
        37           Si  tau(  37) = (   0.3801800   0.0350120   0.0191510  )
        38           Si  tau(  38) = (   0.7938630   0.8985620   0.8343100  )
        39           Si  tau(  39) = (   0.4905800   0.4686630   0.5392960  )
        40           Si  tau(  40) = (   0.9543160   0.1473340   0.3727860  )
        41           Si  tau(  41) = (   0.1894600   0.0363339   0.4509980  )
        42           Si  tau(  42) = (   0.9244440   0.3980650   0.9501240  )
        43           Si  tau(  43) = (   0.1526470   0.1103880   0.1351390  )
        44           Si  tau(  44) = (   0.0125669   0.5243360   0.1217770  )
        45           Si  tau(  45) = (   0.2044600   0.6070710   0.2562190  )
        46           Si  tau(  46) = (   0.2757320   0.7473550   0.5101940  )
        47           Si  tau(  47) = (   0.5905630   0.5605420   0.0400556  )
        48           Si  tau(  48) = (   0.1178740   0.3341260   0.6194040  )
        49           Si  tau(  49) = (   0.8371180   0.2280550   0.1284390  )
        50           Si  tau(  50) = (   0.5486110   0.7989930   0.3697040  )
        51           Si  tau(  51) = (   0.1572690   0.7057480   0.7230590  )
        52           Si  tau(  52) = (   0.9755010   0.3124540   0.2475480  )
        53           Si  tau(  53) = (   0.4711540   0.1969270   0.2586980  )
        54           Si  tau(  54) = (   0.2485500   0.9270590   0.1758740  )
        55           Si  tau(  55) = (   0.6693650   0.3950090   0.4788800  )
        56           Si  tau(  56) = (   0.1446790   0.1504860   0.7138890  )
        57           Si  tau(  57) = (   0.5842830   0.5956440   0.2684600  )
        58           Si  tau(  58) = (   0.7690160   0.5907930   0.5863880  )
        59           Si  tau(  59) = (   0.3714900   0.5584850   0.7310540  )
        60           Si  tau(  60) = (   0.9455080   0.7483830   0.4766060  )
        61           Si  tau(  61) = (   0.4392710   0.7715300   0.9322630  )
        62           Si  tau(  62) = (   0.1064970   0.6080650   0.5185010  )
        63           Si  tau(  63) = (   0.7561250   0.7517030   0.0180880  )
        64           Si  tau(  64) = (   0.3890260   0.4168840   0.2275170  )

     number of k points=     1  Fermi-Dirac smearing, width (Ry)=  0.0100
                       cart. coord. in units 2pi/alat
        k(    1) = (   0.0000000   0.0000000   0.0000000), wk =   2.0000000

     Dense  grid:    99903 G-vectors     FFT dimensions: (  75,  75,  75)

     Estimated max dynamical RAM per process >     160.56 MB

     Estimated total dynamical RAM >     617.84 MB

     Initial potential from superposition of free atoms

     starting charge     255.9608, renormalised to     256.0000
     Starting wfcs are  256 randomized atomic wfcs

     total cpu time spent up to now is        4.2 secs

     Self-consistent Calculation

     iteration #  1     ecut=    30.00 Ry     beta= 0.50
     Davidson diagonalization with overlap
     ethr =  1.00E-02,  avg # of iterations =  3.0

     Threshold (ethr) on eigenvalues was too large:
     Diagonalizing with lowered threshold

     Davidson diagonalization with overlap
     ethr =  6.21E-04,  avg # of iterations =  4.0

     total cpu time spent up to now is        4.4 secs

     total energy              =    -499.96262218 Ry
     estimated scf accuracy    <       2.09443755 Ry

     iteration #  2     ecut=    30.00 Ry     beta= 0.50
     Davidson diagonalization with overlap
     ethr =  8.18E-04,  avg # of iterations =  3.0

     total cpu time spent up to now is        4.5 secs

     total energy              =    -499.17271981 Ry
     estimated scf accuracy    <      11.23727234 Ry

     iteration #  3     ecut=    30.00 Ry     beta= 0.50
     Davidson diagonalization with overlap
     ethr =  8.18E-04,  avg # of iterations =  5.0

     total cpu time spent up to now is        4.7 secs

     total energy              =    -500.12235971 Ry
     estimated scf accuracy    <       4.74658050 Ry

     iteration #  4     ecut=    30.00 Ry     beta= 0.50
     Davidson diagonalization with overlap
     ethr =  8.18E-04,  avg # of iterations =  3.0

     total cpu time spent up to now is        4.8 secs

     total energy              =    -500.47914695 Ry
     estimated scf accuracy    <       0.84658963 Ry

     iteration #  5     ecut=    30.00 Ry     beta= 0.50
     Davidson diagonalization with overlap
     ethr =  3.31E-04,  avg # of iterations =  2.0

     total cpu time spent up to now is        4.9 secs

     total energy              =    -500.51903464 Ry
     estimated scf accuracy    <       0.70521492 Ry

     iteration #  6     ecut=    30.00 Ry     beta= 0.50
     Davidson diagonalization with overlap
     ethr =  2.75E-04,  avg # of iterations =  2.0

     total cpu time spent up to now is        5.0 secs

     total energy              =    -500.57867946 Ry
     estimated scf accuracy    <       0.14841800 Ry

     iteration #  7     ecut=    30.00 Ry     beta= 0.50
     Davidson diagonalization with overlap
     ethr =  5.80E-05,  avg # of iterations =  2.0

     total cpu time spent up to now is        5.0 secs

     total energy              =    -500.59136566 Ry
     estimated scf accuracy    <       0.06089748 Ry

     iteration #  8     ecut=    30.00 Ry     beta= 0.50
     Davidson diagonalization with overlap
     ethr =  2.38E-05,  avg # of iterations = 10.0

     total cpu time spent up to now is        5.2 secs

     total energy              =    -500.59737084 Ry
     estimated scf accuracy    <       0.03915297 Ry

     iteration #  9     ecut=    30.00 Ry     beta= 0.50
     Davidson diagonalization with overlap
     ethr =  1.53E-05,  avg # of iterations =  2.0

     total cpu time spent up to now is        5.3 secs

     total energy              =    -500.60009139 Ry
     estimated scf accuracy    <       0.00446842 Ry

     iteration # 10     ecut=    30.00 Ry     beta= 0.50
     Davidson diagonalization with overlap
     ethr =  1.75E-06,  avg # of iterations = 12.0

     total cpu time spent up to now is        5.5 secs

     total energy              =    -500.60034083 Ry
     estimated scf accuracy    <       0.00970984 Ry

     iteration # 11     ecut=    30.00 Ry     beta= 0.50
     Davidson diagonalization with overlap
     ethr =  1.75E-06,  avg # of iterations =  2.0

     total cpu time spent up to now is        5.6 secs

     total energy              =    -500.60105264 Ry
     estimated scf accuracy    <       0.00088030 Ry

     iteration # 12     ecut=    30.00 Ry     beta= 0.50
     Davidson diagonalization with overlap
     ethr =  3.44E-07,  avg # of iterations =  3.0

     total cpu time spent up to now is        5.7 secs

     total energy              =    -500.60110766 Ry
     estimated scf accuracy    <       0.00068444 Ry

     iteration # 13     ecut=    30.00 Ry     beta= 0.50
     Davidson diagonalization with overlap
     ethr =  2.67E-07,  avg # of iterations =  3.0

     total cpu time spent up to now is        5.8 secs

     total energy              =    -500.60115827 Ry
     estimated scf accuracy    <       0.00084996 Ry

     iteration # 14     ecut=    30.00 Ry     beta= 0.50
     Davidson diagonalization with overlap
     ethr =  2.67E-07,  avg # of iterations =  2.0

     total cpu time spent up to now is        5.9 secs

     total energy              =    -500.60120746 Ry
     estimated scf accuracy    <       0.00006597 Ry

     iteration # 15     ecut=    30.00 Ry     beta= 0.50
     Davidson diagonalization with overlap
     ethr =  2.58E-08,  avg # of iterations =  4.0

     total cpu time spent up to now is        6.0 secs

     total energy              =    -500.60121512 Ry
     estimated scf accuracy    <       0.00006405 Ry

     iteration # 16     ecut=    30.00 Ry     beta= 0.50
     Davidson diagonalization with overlap
     ethr =  2.50E-08,  avg # of iterations =  2.0

     total cpu time spent up to now is        6.1 secs

     total energy              =    -500.60121998 Ry
     estimated scf accuracy    <       0.00003718 Ry

     iteration # 17     ecut=    30.00 Ry     beta= 0.50
     Davidson diagonalization with overlap
     ethr =  1.45E-08,  avg # of iterations =  1.0

     total cpu time spent up to now is        6.2 secs

     total energy              =    -500.60122212 Ry
     estimated scf accuracy    <       0.00000606 Ry

     iteration # 18     ecut=    30.00 Ry     beta= 0.50
     Davidson diagonalization with overlap
     ethr =  2.37E-09,  avg # of iterations =  5.0

     total cpu time spent up to now is        6.3 secs

     total energy              =    -500.60122244 Ry
     estimated scf accuracy    <       0.00001968 Ry

     iteration # 19     ecut=    30.00 Ry     beta= 0.50
     Davidson diagonalization with overlap
     ethr =  2.37E-09,  avg # of iterations =  3.0

     total cpu time spent up to now is        6.4 secs

     total energy              =    -500.60122351 Ry
     estimated scf accuracy    <       0.00000145 Ry

     iteration # 20     ecut=    30.00 Ry     beta= 0.50
     Davidson diagonalization with overlap
     ethr =  5.65E-10,  avg # of iterations =  5.0

     total cpu time spent up to now is        6.5 secs

     End of self-consistent calculation

          k = 0.0000 0.0000 0.0000 ( 12443 PWs)   bands (ev):

    -6.6458  -6.1596  -5.7084  -5.6620  -5.4066  -5.3279  -5.2279  -5.0647
    -4.8768  -4.6934  -4.4880  -4.3938  -4.2732  -4.1697  -3.9958  -3.8968
    -3.8067  -3.7609  -3.5030  -3.2791  -3.1257  -2.9767  -2.9344  -2.7305
    -2.6920  -2.4917  -2.3459  -2.2341  -2.0452  -1.9253  -1.8305  -1.7135
    -1.5524  -1.3867  -1.3129  -1.3026  -1.2279  -1.1376  -1.0134  -0.9377
    -0.9027  -0.6512  -0.6248  -0.5786  -0.4851  -0.3397  -0.2989  -0.1206
     0.0081   0.1276   0.1686   0.3092   0.3420   0.5509   0.5808   0.6701
     0.7553   0.7820   0.9073   1.1374   1.2698   1.3540   1.4803   1.5907
     1.6372   1.6866   1.7602   1.7811   1.9559   2.0499   2.1585   2.2149
     2.3132   2.3946   2.4442   2.5703   2.6389   2.6967   2.7221   2.8115
     2.9160   3.0479   3.0945   3.1404   3.2076   3.2459   3.3247   3.4367
     3.4744   3.5522   3.6147   3.6487   3.7358   3.7855   3.9847   4.0336
     4.1464   4.1672   4.2481   4.3659   4.3858   4.4568   4.5196   4.5555
     4.6000   4.6572   4.7005   4.7412   4.8377   4.8784   4.9649   5.0667
     5.1614   5.1768   5.2448   5.2656   5.3249   5.3656   5.4555   5.5156
     5.5277   5.5767   5.7039   5.7683   5.8010   5.8418   5.8825   5.9319
     5.9893   6.0177   6.1066   6.2314   6.2657   6.3183   6.3595   6.3765
     6.4697   6.4956   6.6019   6.6656   6.7208   6.7669   6.8412   6.9537
     7.0174   7.0389   7.1256   7.1989   7.2526   7.2797   7.3637   7.4542
     7.4590   7.5642

     the Fermi energy is     5.9786 ev

!    total energy              =    -500.60122318 Ry
     estimated scf accuracy    <       0.00000072 Ry
     smearing contrib. (-TS)   =      -0.15722455 Ry
     internal energy E=F+TS    =    -500.44399863 Ry

     The total energy is F=E-TS. E is the sum of the following terms:
     one-electron contribution =      96.44381255 Ry
     hartree contribution      =      59.03828316 Ry
     xc contribution           =    -150.33899428 Ry
     ewald contribution        =    -505.58710005 Ry

     convergence has been achieved in  20 iterations

     Forces acting on atoms (cartesian axes, Ry/au):

     atom    1 type  1   force =     0.00671956    0.15439371    0.06743590
     atom    2 type  1   force =     0.02217155    0.00445235   -0.03000686
     atom    3 type  1   force =    -0.01747741   -0.05601900    0.00242186
     atom    4 type  1   force =     0.09891273    0.05693618   -0.00808470
     atom    5 type  1   force =    -0.01472262    0.01661725   -0.04928094
     atom    6 type  1   force =    -0.00219587    0.02467536    0.00550832
     atom    7 type  1   force =     0.02157534    0.00451519    0.02368702
     atom    8 type  1   force =    -0.05473765   -0.02759338   -0.05030857
     atom    9 type  1   force =    -0.02288009   -0.01261472    0.03581722
     atom   10 type  1   force =     0.01985696   -0.02074011   -0.05379873
     atom   11 type  1   force =    -0.00649888    0.04147271   -0.06103877
     atom   12 type  1   force =     0.00310628    0.02666818   -0.00641025
     atom   13 type  1   force =    -0.03901833   -0.05754800   -0.00169424
     atom   14 type  1   force =    -0.00520563   -0.00123405    0.01749530
     atom   15 type  1   force =    -0.01203400    0.00467538    0.00693051
     atom   16 type  1   force =     0.00122872   -0.00309422   -0.00805369
     atom   17 type  1   force =    -0.01447789   -0.00609537    0.02676858
     atom   18 type  1   force =     0.03047880    0.02315393   -0.02862646
     atom   19 type  1   force =    -0.02511460   -0.15039197   -0.07268111
     atom   20 type  1   force =     0.02111169    0.00858317    0.06258647
     atom   21 type  1   force =    -0.06209827    0.01481083    0.02181755
     atom   22 type  1   force =    -0.01661226   -0.00848553    0.03249507
     atom   23 type  1   force =    -0.01036494   -0.03220088    0.04933262
     atom   24 type  1   force =     0.06462708    0.00255282    0.02020502
     atom   25 type  1   force =     0.04178421   -0.04608753    0.02166432
     atom   26 type  1   force =    -0.06328336   -0.08174035    0.05154745
     atom   27 type  1   force =    -0.00637061   -0.01682674   -0.01675322
     atom   28 type  1   force =     0.02646211    0.02391415    0.01148436
     atom   29 type  1   force =     0.01275781   -0.03025700   -0.04741042
     atom   30 type  1   force =     0.03795942    0.00932250   -0.01276125
     atom   31 type  1   force =     0.01509129    0.02059216    0.01293802
     atom   32 type  1   force =     0.00736443    0.06158095   -0.05731095
     atom   33 type  1   force =     0.00007899    0.04729498    0.03662280
     atom   34 type  1   force =     0.00480690   -0.01290394   -0.00059584
     atom   35 type  1   force =     0.01624203   -0.02225570    0.04909073
     atom   36 type  1   force =    -0.01629877    0.03218967   -0.01870022
     atom   37 type  1   force =    -0.04042020    0.00894901   -0.01782017
     atom   38 type  1   force =    -0.00233925   -0.02625810    0.02547090
     atom   39 type  1   force =    -0.07827655    0.00762885    0.04999070
     atom   40 type  1   force =     0.02094371    0.01831994    0.01663459
     atom   41 type  1   force =    -0.05182482   -0.05909669    0.04987966
     atom   42 type  1   force =    -0.01453631   -0.01614258    0.00910956
     atom   43 type  1   force =    -0.00031882    0.02921068    0.01307040
     atom   44 type  1   force =    -0.01725779    0.00630722   -0.03008850
     atom   45 type  1   force =     0.07231261    0.08522747   -0.08662814
     atom   46 type  1   force =    -0.01201916    0.03800026   -0.00888076
     atom   47 type  1   force =     0.02577164    0.02003155   -0.01923586
     atom   48 type  1   force =    -0.06368172    0.03045350    0.01781210
     atom   49 type  1   force =     0.00278137   -0.07254953   -0.01439952
     atom   50 type  1   force =     0.01278446    0.01154485   -0.02796410
     atom   51 type  1   force =    -0.02000372   -0.00283204    0.00015228
     atom   52 type  1   force =     0.05754945    0.02633521    0.00847179
     atom   53 type  1   force =     0.05445452    0.00488611   -0.02918002
     atom   54 type  1   force =    -0.01222310    0.00747793   -0.04356158
     atom   55 type  1   force =     0.01657493   -0.08984979    0.02845466
     atom   56 type  1   force =     0.03495149    0.00223709    0.03369664
     atom   57 type  1   force =    -0.08186525    0.02536906   -0.03327684
     atom   58 type  1   force =     0.00727071    0.02396224   -0.00490143
     atom   59 type  1   force =     0.02109968   -0.06751653   -0.00286916
     atom   60 type  1   force =    -0.02529250   -0.00602804    0.01526232
     atom   61 type  1   force =    -0.00414216    0.00513070    0.00235188
     atom   62 type  1   force =     0.00440486    0.00318089    0.01728714
     atom   63 type  1   force =     0.00252568   -0.00930742   -0.01419937
     atom   64 type  1   force =     0.02783151    0.00301518    0.01302790

     Total force =     0.514219     Total SCF correction =     0.001597


     Computing stress (Cartesian axis) and pressure

          total   stress  (Ry/bohr**3)                   (kbar)     P=       -5.54
  -0.00000089  -0.00001484   0.00003468           -0.13       -2.18        5.10
  -0.00001484  -0.00003543  -0.00009052           -2.18       -5.21      -13.32
   0.00003468  -0.00009052  -0.00007664            5.10      -13.32      -11.27

 
     init_run     :      0.64s CPU      4.11s WALL (       1 calls)
     electrons    :      2.18s CPU      2.33s WALL (       1 calls)
     forces       :      0.03s CPU      0.03s WALL (       1 calls)
     stress       :      0.15s CPU      0.15s WALL (       1 calls)

     Called by init_run:
     wfcinit      :      0.45s CPU      3.78s WALL (       1 calls)
                                        3.78s GPU  (       1 calls)
     potinit      :      0.03s CPU      0.11s WALL (       1 calls)
     hinit0       :      0.13s CPU      0.16s WALL (       1 calls)

     Called by electrons:
     c_bands      :      1.45s CPU      1.52s WALL (      21 calls)
     sum_band     :      0.39s CPU      0.44s WALL (      21 calls)
     v_of_rho     :      0.14s CPU      0.23s WALL (      21 calls)
     mix_rho      :      0.17s CPU      0.19s WALL (      21 calls)

     Called by c_bands:
     init_us_2    :      0.05s CPU      0.06s WALL (      43 calls)
     init_us_2:gp :      0.05s CPU      0.06s WALL (      43 calls)
     regterg      :      1.30s CPU      1.36s WALL (      21 calls)

     Called by *egterg:
     rdiaghg      :      0.44s CPU      1.11s WALL (      98 calls)
                                        1.09s GPU  (      98 calls)
     h_psi        :      1.12s CPU      3.82s WALL (     100 calls)
                                        3.82s GPU  (     100 calls)
     g_psi        :      0.00s CPU      0.00s WALL (      78 calls)
                                        0.00s GPU  (      78 calls)

     Called by h_psi:
     h_psi:calbec :      0.43s CPU      3.05s WALL (     100 calls)
                                        3.05s GPU  (     100 calls)
     vloc_psi     :      0.64s CPU      0.71s WALL (     100 calls)
                                        0.71s GPU  (     100 calls)
     add_vuspsi   :      0.03s CPU      0.06s WALL (     100 calls)
                                        0.06s GPU  (     100 calls)

     General routines
     calbec       :      0.43s CPU      3.05s WALL (     105 calls)
     fft          :      0.27s CPU      0.39s WALL (     175 calls)
                                        0.11s GPU  (     111 calls)
     ffts         :      0.04s CPU      0.05s WALL (      21 calls)
     fftw         :      0.71s CPU      0.90s WALL (    2225 calls)
                                        0.82s GPU  (    2225 calls)
 
     Parallel routines
 
     PWSCF        :      3.03s CPU      6.71s WALL

 
   This run was terminated on:  10: 7:45  11May2023            

=------------------------------------------------------------------------------=
   JOB DONE.
=------------------------------------------------------------------------------=
