An instance of this daemon is already running

     Program PWSCF v.7.1 starts on 11May2023 at 10:10:19 

     This program is part of the open-source Quantum ESPRESSO suite
     for quantum simulation of materials; please cite
         "P. Giannozzi et al., J. Phys.:Condens. Matter 21 395502 (2009);
         "P. Giannozzi et al., J. Phys.:Condens. Matter 29 465901 (2017);
         "P. Giannozzi et al., J. Chem. Phys. 152 154105 (2020);
          URL http://www.quantum-espresso.org", 
     in publications or presentations arising from this work. More details at
     http://www.quantum-espresso.org/quote

     Parallel version (MPI & OpenMP), running on       4 processor cores
     Number of MPI processes:                 4
     Threads/MPI process:                     1

     MPI processes distributed on     1 nodes
     258899 MiB available memory on the printing compute node when the environment starts
 
     Reading input from pw-si-74.in
Warning: card &CELL ignored
Warning: card / ignored

     Current dimensions of program PWSCF are:
     Max number of different atomic species (ntypx) = 10
     Max number of k-points (npk) =  40000
     Max angular momentum in pseudopotentials (lmaxx) =  4

     IMPORTANT: XC functional enforced from input :
     Exchange-correlation= PBE
                           (   1   4   3   4   0   0   0)
     Any further DFT definition will be discarded
     Please, verify this is what you really want


     gamma-point specific algorithms are used
 
     K-points division:     npool     =       2
     R & G space division:  proc/nbgrp/npool/nimage =       2
     Subspace diagonalization in iterative solution of the eigenvalue problem:
     a serial algorithm will be used

     Message from routine divide_et_impera:
     suboptimal parallelization: some nodes have no k-points
 
     Parallelization info
     --------------------
     sticks:   dense  smooth     PW     G-vecs:    dense   smooth      PW
     Min        2074    2074    546               100294   100294   13598
     Max        2075    2075    547               100303   100303   13603
     Sum        4149    4149   1093               200597   200597   27201
 
     Using Slab Decomposition
 


     bravais-lattice index     =            0
     lattice parameter (alat)  =      20.8321  a.u.
     unit-cell volume          =    9040.5837 (a.u.)^3
     number of atoms/cell      =           64
     number of atomic types    =            1
     number of electrons       =       256.00
     number of Kohn-Sham states=          154
     kinetic-energy cutoff     =      30.0000  Ry
     charge density cutoff     =     120.0000  Ry
     scf convergence threshold =      1.0E-06
     mixing beta               =       0.5000
     number of iterations used =            8  plain     mixing
     Exchange-correlation= PBE
                           (   1   4   3   4   0   0   0)

     GPU acceleration is ACTIVE.
     GPU-aware MPI enabled

     Message from routine print_cuda_info:
     High GPU oversubscription detected. Are you sure this is what you want?

     celldm(1)=  20.832057  celldm(2)=   0.000000  celldm(3)=   0.000000
     celldm(4)=   0.000000  celldm(5)=   0.000000  celldm(6)=   0.000000

     crystal axes: (cart. coord. in units of alat)
               a(1) = (   1.000000   0.000000   0.000000 )  
               a(2) = (   0.000000   1.000000   0.000000 )  
               a(3) = (   0.000000   0.000000   1.000000 )  

     reciprocal axes: (cart. coord. in units 2 pi/alat)
               b(1) = (  1.000000  0.000000  0.000000 )  
               b(2) = (  0.000000  1.000000  0.000000 )  
               b(3) = (  0.000000  0.000000  1.000000 )  


     PseudoPot. # 1 for Si read from file:
     /home/ppiaggi/pseudos/Si_ONCV_PBE_sr.upf
     MD5 check sum: 8553c464762ac42b85b1eed164b4d029
     Pseudo is Norm-conserving, Zval =  4.0
     Generated using ONCVPSP code by D. R. Hamann
     Using radial grid of 1510 points,  4 beta functions with: 
                l(1) =   0
                l(2) =   0
                l(3) =   1
                l(4) =   1

     atomic species   valence    mass     pseudopotential
        Si             4.00    28.08500     Si( 1.00)

     No symmetry found



   Cartesian axes

     site n.     atom                  positions (alat units)
         1           Si  tau(   1) = (   0.6458200   0.8330920   0.6498690  )
         2           Si  tau(   2) = (   0.6636560   0.1881980   0.4189910  )
         3           Si  tau(   3) = (   0.9853430   0.8850020   0.4047780  )
         4           Si  tau(   4) = (   0.7811050   0.5749760   0.3064970  )
         5           Si  tau(   5) = (   0.3077710   0.2361910   0.4136280  )
         6           Si  tau(   6) = (   0.2886230   0.7378720   0.9799700  )
         7           Si  tau(   7) = (   0.7310180   0.8485630   0.4406550  )
         8           Si  tau(   8) = (   0.2478690   0.0983834   0.8417180  )
         9           Si  tau(   9) = (   0.5840040   0.9908480   0.8712510  )
        10           Si  tau(  10) = (   0.1299510   0.9180770   0.7464760  )
        11           Si  tau(  11) = (   0.8604200   0.9195680   0.6296760  )
        12           Si  tau(  12) = (   0.9584340   0.7884600   0.0697341  )
        13           Si  tau(  13) = (   0.7071220   0.4112780   0.1324220  )
        14           Si  tau(  14) = (   0.8517000   0.1368860   0.6482440  )
        15           Si  tau(  15) = (   0.8214470   0.3335650   0.7180220  )
        16           Si  tau(  16) = (   0.3639180   0.9359740   0.5320010  )
        17           Si  tau(  17) = (   0.6619260   0.0534236   0.2265860  )
        18           Si  tau(  18) = (   0.7428670   0.4706490   0.9224280  )
        19           Si  tau(  19) = (   0.7382610   0.6099140   0.7461550  )
        20           Si  tau(  20) = (   0.4446440   0.2003330   0.9647090  )
        21           Si  tau(  21) = (   0.4294730   0.1257130   0.5335810  )
        22           Si  tau(  22) = (   0.9245710   0.8442000   0.8522540  )
        23           Si  tau(  23) = (   0.3602730   0.8462370   0.3421740  )
        24           Si  tau(  24) = (   0.3457570   0.3890600   0.7535390  )
        25           Si  tau(  25) = (   0.3235840   0.5169240   0.3137870  )
        26           Si  tau(  26) = (   0.9545270   0.4010950   0.2096330  )
        27           Si  tau(  27) = (   0.9462420   0.0324937   0.9680370  )
        28           Si  tau(  28) = (   0.8640250   0.0151820   0.2282210  )
        29           Si  tau(  29) = (   0.5917470   0.8263800   0.0960708  )
        30           Si  tau(  30) = (   0.6175510   0.0998770   0.6850330  )
        31           Si  tau(  31) = (   0.2636480   0.5167930   0.9175640  )
        32           Si  tau(  32) = (   0.1350080   0.3902920   0.4077830  )
        33           Si  tau(  33) = (   0.4567880   0.7286380   0.6545630  )
        34           Si  tau(  34) = (   0.6627270   0.2160450   0.0069766  )
        35           Si  tau(  35) = (   0.9172080   0.6129750   0.9700700  )
        36           Si  tau(  36) = (   0.5827590   0.3593000   0.8419160  )
        37           Si  tau(  37) = (   0.4106030   0.9151240   0.9651370  )
        38           Si  tau(  38) = (   0.7696860   0.9062150   0.0189524  )
        39           Si  tau(  39) = (   0.3696170   0.4721110   0.5285220  )
        40           Si  tau(  40) = (   0.0430147   0.1547050   0.4964110  )
        41           Si  tau(  41) = (   0.1395520   0.9954570   0.5347960  )
        42           Si  tau(  42) = (   0.9825400   0.4203790   0.8807030  )
        43           Si  tau(  43) = (   0.0670162   0.0435077   0.1532210  )
        44           Si  tau(  44) = (   0.0466031   0.6407710   0.2267330  )
        45           Si  tau(  45) = (   0.2746650   0.6981950   0.2055290  )
        46           Si  tau(  46) = (   0.2429230   0.6883970   0.5955840  )
        47           Si  tau(  47) = (   0.5000340   0.6174120   0.0370417  )
        48           Si  tau(  48) = (   0.1419260   0.4217090   0.6660870  )
        49           Si  tau(  49) = (   0.8585800   0.1977040   0.1035780  )
        50           Si  tau(  50) = (   0.5735940   0.8769240   0.3203010  )
        51           Si  tau(  51) = (   0.1109440   0.6671690   0.7929450  )
        52           Si  tau(  52) = (   0.0934311   0.2157180   0.2978160  )
        53           Si  tau(  53) = (   0.4962370   0.2096650   0.2784340  )
        54           Si  tau(  54) = (   0.2864020   0.9366080   0.1892250  )
        55           Si  tau(  55) = (   0.5244950   0.3017110   0.6293500  )
        56           Si  tau(  56) = (   0.0739489   0.2683730   0.7983490  )
        57           Si  tau(  57) = (   0.5409370   0.6218030   0.2615100  )
        58           Si  tau(  58) = (   0.8228210   0.4891290   0.6055880  )
        59           Si  tau(  59) = (   0.4730460   0.5607220   0.8038730  )
        60           Si  tau(  60) = (   0.8565400   0.6662420   0.4555020  )
        61           Si  tau(  61) = (   0.6100090   0.7628660   0.8565470  )
        62           Si  tau(  62) = (   0.0168343   0.5793220   0.6123280  )
        63           Si  tau(  63) = (   0.7253940   0.6143990   0.0850089  )
        64           Si  tau(  64) = (   0.4890480   0.4241210   0.1738150  )

     number of k points=     1  Fermi-Dirac smearing, width (Ry)=  0.0100
                       cart. coord. in units 2pi/alat
        k(    1) = (   0.0000000   0.0000000   0.0000000), wk =   2.0000000

     Dense  grid:   100299 G-vectors     FFT dimensions: (  75,  75,  75)

     Estimated max dynamical RAM per process >     161.23 MB

     Estimated total dynamical RAM >     620.42 MB

     Initial potential from superposition of free atoms

     starting charge     255.9608, renormalised to     256.0000
     Starting wfcs are  256 randomized atomic wfcs

     total cpu time spent up to now is        4.4 secs

     Self-consistent Calculation

     iteration #  1     ecut=    30.00 Ry     beta= 0.50
     Davidson diagonalization with overlap
     ethr =  1.00E-02,  avg # of iterations =  3.0

     Threshold (ethr) on eigenvalues was too large:
     Diagonalizing with lowered threshold

     Davidson diagonalization with overlap
     ethr =  6.87E-04,  avg # of iterations =  4.0

     total cpu time spent up to now is        4.6 secs

     total energy              =    -499.93180436 Ry
     estimated scf accuracy    <       2.23252413 Ry

     iteration #  2     ecut=    30.00 Ry     beta= 0.50
     Davidson diagonalization with overlap
     ethr =  8.72E-04,  avg # of iterations =  5.0

     total cpu time spent up to now is        4.8 secs

     total energy              =    -498.53765997 Ry
     estimated scf accuracy    <      22.44043165 Ry

     iteration #  3     ecut=    30.00 Ry     beta= 0.50
     Davidson diagonalization with overlap
     ethr =  8.72E-04,  avg # of iterations =  4.0

     total cpu time spent up to now is        4.9 secs

     total energy              =    -500.38246436 Ry
     estimated scf accuracy    <       2.81372610 Ry

     iteration #  4     ecut=    30.00 Ry     beta= 0.50
     Davidson diagonalization with overlap
     ethr =  8.72E-04,  avg # of iterations =  2.0

     total cpu time spent up to now is        5.0 secs

     total energy              =    -500.60689790 Ry
     estimated scf accuracy    <       0.87604896 Ry

     iteration #  5     ecut=    30.00 Ry     beta= 0.50
     Davidson diagonalization with overlap
     ethr =  3.42E-04,  avg # of iterations =  2.0

     total cpu time spent up to now is        5.1 secs

     total energy              =    -500.63809756 Ry
     estimated scf accuracy    <       1.02634750 Ry

     iteration #  6     ecut=    30.00 Ry     beta= 0.50
     Davidson diagonalization with overlap
     ethr =  3.42E-04,  avg # of iterations =  1.0

     total cpu time spent up to now is        5.2 secs

     total energy              =    -500.71472444 Ry
     estimated scf accuracy    <       0.06744492 Ry

     iteration #  7     ecut=    30.00 Ry     beta= 0.50
     Davidson diagonalization with overlap
     ethr =  2.63E-05,  avg # of iterations =  7.0

     total cpu time spent up to now is        5.3 secs

     total energy              =    -500.72226410 Ry
     estimated scf accuracy    <       0.09816960 Ry

     iteration #  8     ecut=    30.00 Ry     beta= 0.50
     Davidson diagonalization with overlap
     ethr =  2.63E-05,  avg # of iterations =  2.0

     total cpu time spent up to now is        5.4 secs

     total energy              =    -500.73080557 Ry
     estimated scf accuracy    <       0.02922253 Ry

     iteration #  9     ecut=    30.00 Ry     beta= 0.50
     Davidson diagonalization with overlap
     ethr =  1.14E-05,  avg # of iterations =  2.0

     total cpu time spent up to now is        5.5 secs

     total energy              =    -500.73289588 Ry
     estimated scf accuracy    <       0.00741955 Ry

     iteration # 10     ecut=    30.00 Ry     beta= 0.50
     Davidson diagonalization with overlap
     ethr =  2.90E-06,  avg # of iterations =  8.0

     total cpu time spent up to now is        5.7 secs

     total energy              =    -500.73341513 Ry
     estimated scf accuracy    <       0.00733866 Ry

     iteration # 11     ecut=    30.00 Ry     beta= 0.50
     Davidson diagonalization with overlap
     ethr =  2.87E-06,  avg # of iterations =  2.0

     total cpu time spent up to now is        5.8 secs

     total energy              =    -500.73385301 Ry
     estimated scf accuracy    <       0.00117108 Ry

     iteration # 12     ecut=    30.00 Ry     beta= 0.50
     Davidson diagonalization with overlap
     ethr =  4.57E-07,  avg # of iterations =  5.0

     total cpu time spent up to now is        5.9 secs

     total energy              =    -500.73394110 Ry
     estimated scf accuracy    <       0.00184566 Ry

     iteration # 13     ecut=    30.00 Ry     beta= 0.50
     Davidson diagonalization with overlap
     ethr =  4.57E-07,  avg # of iterations =  2.0

     total cpu time spent up to now is        6.0 secs

     total energy              =    -500.73408777 Ry
     estimated scf accuracy    <       0.00036294 Ry

     iteration # 14     ecut=    30.00 Ry     beta= 0.50
     Davidson diagonalization with overlap
     ethr =  1.42E-07,  avg # of iterations =  2.0

     total cpu time spent up to now is        6.1 secs

     total energy              =    -500.73411058 Ry
     estimated scf accuracy    <       0.00006028 Ry

     iteration # 15     ecut=    30.00 Ry     beta= 0.50
     Davidson diagonalization with overlap
     ethr =  2.35E-08,  avg # of iterations =  4.0

     total cpu time spent up to now is        6.2 secs

     total energy              =    -500.73411696 Ry
     estimated scf accuracy    <       0.00009106 Ry

     iteration # 16     ecut=    30.00 Ry     beta= 0.50
     Davidson diagonalization with overlap
     ethr =  2.35E-08,  avg # of iterations =  3.0

     total cpu time spent up to now is        6.3 secs

     total energy              =    -500.73412274 Ry
     estimated scf accuracy    <       0.00005263 Ry

     iteration # 17     ecut=    30.00 Ry     beta= 0.50
     Davidson diagonalization with overlap
     ethr =  2.06E-08,  avg # of iterations =  2.0

     total cpu time spent up to now is        6.4 secs

     total energy              =    -500.73412624 Ry
     estimated scf accuracy    <       0.00001102 Ry

     iteration # 18     ecut=    30.00 Ry     beta= 0.50
     Davidson diagonalization with overlap
     ethr =  4.31E-09,  avg # of iterations =  2.0

     total cpu time spent up to now is        6.5 secs

     total energy              =    -500.73412741 Ry
     estimated scf accuracy    <       0.00000324 Ry

     iteration # 19     ecut=    30.00 Ry     beta= 0.50
     Davidson diagonalization with overlap
     ethr =  1.27E-09,  avg # of iterations =  3.0

     total cpu time spent up to now is        6.6 secs

     total energy              =    -500.73412740 Ry
     estimated scf accuracy    <       0.00000363 Ry

     iteration # 20     ecut=    30.00 Ry     beta= 0.50
     Davidson diagonalization with overlap
     ethr =  1.27E-09,  avg # of iterations =  2.0

     total cpu time spent up to now is        6.7 secs

     total energy              =    -500.73412770 Ry
     estimated scf accuracy    <       0.00000225 Ry

     iteration # 21     ecut=    30.00 Ry     beta= 0.50
     Davidson diagonalization with overlap
     ethr =  8.81E-10,  avg # of iterations =  2.0

     total cpu time spent up to now is        6.8 secs

     End of self-consistent calculation

          k = 0.0000 0.0000 0.0000 ( 12587 PWs)   bands (ev):

    -6.6884  -5.8727  -5.7167  -5.6304  -5.3815  -5.1825  -5.0786  -4.8813
    -4.7528  -4.6113  -4.5008  -4.3128  -4.2700  -4.0628  -4.0210  -3.8994
    -3.7869  -3.7074  -3.2717  -3.2046  -3.1143  -2.9889  -2.8420  -2.7646
    -2.5197  -2.4117  -2.2588  -2.1546  -2.1168  -1.9809  -1.8106  -1.7441
    -1.6103  -1.4011  -1.3555  -1.2617  -1.1942  -1.0998  -1.0530  -1.0360
    -0.7738  -0.7218  -0.6811  -0.5376  -0.4845  -0.2483  -0.2132  -0.0506
     0.0311   0.0675   0.1773   0.3287   0.3453   0.4987   0.6166   0.6538
     0.7475   0.8667   0.9286   1.1078   1.2624   1.3187   1.3760   1.5621
     1.6397   1.7038   1.7834   1.8337   1.9144   2.0366   2.1203   2.1653
     2.2419   2.3234   2.3968   2.5088   2.5461   2.5859   2.7721   2.8596
     2.9110   2.9774   3.0479   3.1381   3.1838   3.2350   3.3491   3.3935
     3.4661   3.5905   3.6138   3.7113   3.7507   3.8075   3.9031   3.9845
     4.0236   4.1075   4.1478   4.1746   4.2323   4.3444   4.4450   4.4775
     4.5142   4.5475   4.6654   4.7458   4.7729   4.8468   4.9566   5.0244
     5.1150   5.1550   5.2044   5.3474   5.3729   5.3986   5.4360   5.4876
     5.5887   5.6421   5.6962   5.7237   5.8115   5.8377   5.9051   5.9906
     6.0063   6.0585   6.1631   6.2190   6.2223   6.2937   6.3775   6.4358
     6.5382   6.5591   6.5687   6.6050   6.6706   6.7576   6.8841   6.9065
     6.9391   6.9524   6.9955   7.0608   7.1187   7.1763   7.2364   7.3779
     7.4343   7.4884

     the Fermi energy is     5.9958 ev

!    total energy              =    -500.73412710 Ry
     estimated scf accuracy    <       0.00000099 Ry
     smearing contrib. (-TS)   =      -0.15718635 Ry
     internal energy E=F+TS    =    -500.57694075 Ry

     The total energy is F=E-TS. E is the sum of the following terms:
     one-electron contribution =      97.81636185 Ry
     hartree contribution      =      58.05830036 Ry
     xc contribution           =    -149.87229497 Ry
     ewald contribution        =    -506.57930799 Ry

     convergence has been achieved in  21 iterations

     Forces acting on atoms (cartesian axes, Ry/au):

     atom    1 type  1   force =     0.02188928    0.02173848   -0.02144951
     atom    2 type  1   force =    -0.02245930   -0.01160762    0.02233435
     atom    3 type  1   force =    -0.04096045   -0.00413103    0.00756760
     atom    4 type  1   force =    -0.06286689   -0.06485602   -0.13143863
     atom    5 type  1   force =    -0.03080262    0.05125085   -0.04834474
     atom    6 type  1   force =    -0.00791630   -0.03153846    0.02449396
     atom    7 type  1   force =     0.06603916   -0.01808364    0.06187475
     atom    8 type  1   force =    -0.00621747   -0.00166505    0.00742063
     atom    9 type  1   force =     0.03122211    0.02582125    0.00832154
     atom   10 type  1   force =    -0.00145911   -0.01304808    0.00474058
     atom   11 type  1   force =    -0.01686984    0.00649363    0.00495104
     atom   12 type  1   force =     0.01200702    0.03844105    0.03323363
     atom   13 type  1   force =     0.01038126   -0.05961774    0.01950877
     atom   14 type  1   force =    -0.01403480   -0.01273848   -0.01943012
     atom   15 type  1   force =     0.00907309   -0.07975127    0.11873452
     atom   16 type  1   force =    -0.06326070   -0.06311438    0.03403092
     atom   17 type  1   force =    -0.05209190    0.02376926   -0.00164073
     atom   18 type  1   force =     0.03132486   -0.02412855   -0.03867057
     atom   19 type  1   force =    -0.02991618    0.03688258    0.05693457
     atom   20 type  1   force =     0.00644425    0.00182578   -0.00863948
     atom   21 type  1   force =     0.07808121    0.01540589    0.02374732
     atom   22 type  1   force =     0.01808479   -0.01702323   -0.02260178
     atom   23 type  1   force =     0.06037871   -0.03086761    0.08131646
     atom   24 type  1   force =     0.00115688   -0.00814731   -0.01271626
     atom   25 type  1   force =     0.00698982   -0.04294737    0.01662152
     atom   26 type  1   force =    -0.01387005    0.00051435   -0.00050542
     atom   27 type  1   force =     0.02271839    0.03577174    0.00270317
     atom   28 type  1   force =     0.03552524   -0.03809878    0.02404122
     atom   29 type  1   force =    -0.04240240   -0.00969982    0.02817821
     atom   30 type  1   force =     0.02552671   -0.03601111   -0.02273616
     atom   31 type  1   force =    -0.01550952    0.01571372   -0.01836259
     atom   32 type  1   force =     0.03708183    0.05298085    0.02598080
     atom   33 type  1   force =    -0.01423375    0.00916022    0.00049946
     atom   34 type  1   force =    -0.01500601   -0.00010891   -0.00564087
     atom   35 type  1   force =     0.00625555   -0.03675664   -0.04531195
     atom   36 type  1   force =    -0.02117823   -0.01581216   -0.02092359
     atom   37 type  1   force =    -0.01588629    0.01802392    0.05271912
     atom   38 type  1   force =    -0.00297261   -0.00487700   -0.01335996
     atom   39 type  1   force =    -0.03228969   -0.01295047   -0.00074491
     atom   40 type  1   force =    -0.08040482    0.11052555   -0.00004713
     atom   41 type  1   force =     0.09239269   -0.13497267    0.03705621
     atom   42 type  1   force =    -0.06686008    0.06776405    0.03083612
     atom   43 type  1   force =     0.04587367   -0.01019462    0.00315396
     atom   44 type  1   force =    -0.00358434    0.00676351   -0.00537267
     atom   45 type  1   force =    -0.04008397    0.00870906   -0.02695620
     atom   46 type  1   force =    -0.00685231   -0.00915372    0.00823210
     atom   47 type  1   force =    -0.01150653   -0.00190748   -0.01162886
     atom   48 type  1   force =     0.04437408   -0.00936687   -0.01594700
     atom   49 type  1   force =     0.00954684    0.04266505    0.00140798
     atom   50 type  1   force =    -0.04153160   -0.01730658   -0.07671132
     atom   51 type  1   force =     0.01226179    0.01260094    0.00082261
     atom   52 type  1   force =    -0.00203046   -0.02023374   -0.02990175
     atom   53 type  1   force =    -0.01649104    0.02580076    0.00018577
     atom   54 type  1   force =    -0.05682116    0.05217957   -0.13472958
     atom   55 type  1   force =    -0.00603941    0.02356613   -0.01127480
     atom   56 type  1   force =     0.03252947   -0.10205773   -0.02282523
     atom   57 type  1   force =     0.02780158    0.02852546    0.00582755
     atom   58 type  1   force =     0.01323571    0.07332705   -0.09317457
     atom   59 type  1   force =     0.02414526    0.00713571    0.01273263
     atom   60 type  1   force =     0.06522446    0.07072181    0.09154324
     atom   61 type  1   force =     0.01044201   -0.01037663   -0.00335297
     atom   62 type  1   force =     0.00301051    0.03502207   -0.00698952
     atom   63 type  1   force =     0.00114196    0.06351640    0.02763907
     atom   64 type  1   force =    -0.00775036   -0.02946591   -0.00796253

     Total force =     0.547798     Total SCF correction =     0.001854


     Computing stress (Cartesian axis) and pressure

          total   stress  (Ry/bohr**3)                   (kbar)     P=      -20.77
  -0.00023636   0.00000365   0.00001940          -34.77        0.54        2.85
   0.00000365  -0.00004924   0.00000588            0.54       -7.24        0.86
   0.00001940   0.00000588  -0.00013807            2.85        0.86      -20.31

 
     init_run     :      0.65s CPU      4.31s WALL (       1 calls)
     electrons    :      2.28s CPU      2.44s WALL (       1 calls)
     forces       :      0.03s CPU      0.04s WALL (       1 calls)
     stress       :      0.15s CPU      0.16s WALL (       1 calls)

     Called by init_run:
     wfcinit      :      0.47s CPU      3.95s WALL (       1 calls)
                                        3.95s GPU  (       1 calls)
     potinit      :      0.03s CPU      0.13s WALL (       1 calls)
     hinit0       :      0.13s CPU      0.16s WALL (       1 calls)

     Called by electrons:
     c_bands      :      1.46s CPU      1.53s WALL (      22 calls)
     sum_band     :      0.43s CPU      0.48s WALL (      22 calls)
     v_of_rho     :      0.15s CPU      0.26s WALL (      22 calls)
     mix_rho      :      0.20s CPU      0.21s WALL (      22 calls)

     Called by c_bands:
     init_us_2    :      0.06s CPU      0.06s WALL (      45 calls)
     init_us_2:gp :      0.06s CPU      0.06s WALL (      45 calls)
     regterg      :      1.30s CPU      1.37s WALL (      22 calls)

     Called by *egterg:
     rdiaghg      :      0.40s CPU      1.11s WALL (      90 calls)
                                        1.10s GPU  (      90 calls)
     h_psi        :      1.17s CPU      4.00s WALL (      92 calls)
                                        3.99s GPU  (      92 calls)
     g_psi        :      0.00s CPU      0.00s WALL (      69 calls)
                                        0.00s GPU  (      69 calls)

     Called by h_psi:
     h_psi:calbec :      0.45s CPU      3.19s WALL (      92 calls)
                                        3.19s GPU  (      92 calls)
     vloc_psi     :      0.66s CPU      0.74s WALL (      92 calls)
                                        0.74s GPU  (      92 calls)
     add_vuspsi   :      0.03s CPU      0.05s WALL (      92 calls)
                                        0.05s GPU  (      92 calls)

     General routines
     calbec       :      0.46s CPU      3.20s WALL (      97 calls)
     fft          :      0.28s CPU      0.42s WALL (     183 calls)
                                        0.13s GPU  (     116 calls)
     ffts         :      0.05s CPU      0.06s WALL (      22 calls)
     fftw         :      0.74s CPU      0.95s WALL (    2300 calls)
                                        0.86s GPU  (    2300 calls)
 
     Parallel routines
 
     PWSCF        :      3.16s CPU      7.03s WALL

 
   This run was terminated on:  10:10:26  11May2023            

=------------------------------------------------------------------------------=
   JOB DONE.
=------------------------------------------------------------------------------=
