An instance of this daemon is already running

     Program PWSCF v.7.1 starts on 11May2023 at 10: 8:40 

     This program is part of the open-source Quantum ESPRESSO suite
     for quantum simulation of materials; please cite
         "P. Giannozzi et al., J. Phys.:Condens. Matter 21 395502 (2009);
         "P. Giannozzi et al., J. Phys.:Condens. Matter 29 465901 (2017);
         "P. Giannozzi et al., J. Chem. Phys. 152 154105 (2020);
          URL http://www.quantum-espresso.org", 
     in publications or presentations arising from this work. More details at
     http://www.quantum-espresso.org/quote

     Parallel version (MPI & OpenMP), running on       4 processor cores
     Number of MPI processes:                 4
     Threads/MPI process:                     1

     MPI processes distributed on     1 nodes
     259150 MiB available memory on the printing compute node when the environment starts
 
     Reading input from pw-si-63.in
Warning: card &CELL ignored
Warning: card / ignored

     Current dimensions of program PWSCF are:
     Max number of different atomic species (ntypx) = 10
     Max number of k-points (npk) =  40000
     Max angular momentum in pseudopotentials (lmaxx) =  4

     IMPORTANT: XC functional enforced from input :
     Exchange-correlation= PBE
                           (   1   4   3   4   0   0   0)
     Any further DFT definition will be discarded
     Please, verify this is what you really want


     gamma-point specific algorithms are used
 
     K-points division:     npool     =       2
     R & G space division:  proc/nbgrp/npool/nimage =       2
     Subspace diagonalization in iterative solution of the eigenvalue problem:
     a serial algorithm will be used

     Message from routine divide_et_impera:
     suboptimal parallelization: some nodes have no k-points
 
     Parallelization info
     --------------------
     sticks:   dense  smooth     PW     G-vecs:    dense   smooth      PW
     Min        2082    2082    546               100742   100742   13598
     Max        2083    2083    547               100743   100743   13603
     Sum        4165    4165   1093               201485   201485   27201
 
     Using Slab Decomposition
 


     bravais-lattice index     =            0
     lattice parameter (alat)  =      20.8564  a.u.
     unit-cell volume          =    9072.2744 (a.u.)^3
     number of atoms/cell      =           64
     number of atomic types    =            1
     number of electrons       =       256.00
     number of Kohn-Sham states=          154
     kinetic-energy cutoff     =      30.0000  Ry
     charge density cutoff     =     120.0000  Ry
     scf convergence threshold =      1.0E-06
     mixing beta               =       0.5000
     number of iterations used =            8  plain     mixing
     Exchange-correlation= PBE
                           (   1   4   3   4   0   0   0)

     GPU acceleration is ACTIVE.
     GPU-aware MPI enabled

     Message from routine print_cuda_info:
     High GPU oversubscription detected. Are you sure this is what you want?

     celldm(1)=  20.856370  celldm(2)=   0.000000  celldm(3)=   0.000000
     celldm(4)=   0.000000  celldm(5)=   0.000000  celldm(6)=   0.000000

     crystal axes: (cart. coord. in units of alat)
               a(1) = (   1.000000   0.000000   0.000000 )  
               a(2) = (   0.000000   1.000000   0.000000 )  
               a(3) = (   0.000000   0.000000   1.000000 )  

     reciprocal axes: (cart. coord. in units 2 pi/alat)
               b(1) = (  1.000000  0.000000  0.000000 )  
               b(2) = (  0.000000  1.000000  0.000000 )  
               b(3) = (  0.000000  0.000000  1.000000 )  


     PseudoPot. # 1 for Si read from file:
     /home/ppiaggi/pseudos/Si_ONCV_PBE_sr.upf
     MD5 check sum: 8553c464762ac42b85b1eed164b4d029
     Pseudo is Norm-conserving, Zval =  4.0
     Generated using ONCVPSP code by D. R. Hamann
     Using radial grid of 1510 points,  4 beta functions with: 
                l(1) =   0
                l(2) =   0
                l(3) =   1
                l(4) =   1

     atomic species   valence    mass     pseudopotential
        Si             4.00    28.08500     Si( 1.00)

     No symmetry found



   Cartesian axes

     site n.     atom                  positions (alat units)
         1           Si  tau(   1) = (   0.6299940   0.8135110   0.7016190  )
         2           Si  tau(   2) = (   0.6711670   0.1292170   0.4555360  )
         3           Si  tau(   3) = (   0.9375820   0.9249650   0.4075390  )
         4           Si  tau(   4) = (   0.7496660   0.5637270   0.3512570  )
         5           Si  tau(   5) = (   0.2369440   0.2035030   0.3277060  )
         6           Si  tau(   6) = (   0.3383630   0.6717980   0.0320746  )
         7           Si  tau(   7) = (   0.7354570   0.8262750   0.4995930  )
         8           Si  tau(   8) = (   0.2736350   0.1294540   0.8135590  )
         9           Si  tau(   9) = (   0.6099880   0.0035815   0.8678910  )
        10           Si  tau(  10) = (   0.1809040   0.9350720   0.7043620  )
        11           Si  tau(  11) = (   0.8613550   0.7735770   0.6837600  )
        12           Si  tau(  12) = (   0.9520580   0.8040690   0.1095780  )
        13           Si  tau(  13) = (   0.6746090   0.3357240   0.1993270  )
        14           Si  tau(  14) = (   0.9063130   0.1351970   0.6312320  )
        15           Si  tau(  15) = (   0.7719900   0.2686840   0.7772580  )
        16           Si  tau(  16) = (   0.3808620   0.9823340   0.6055150  )
        17           Si  tau(  17) = (   0.6549590   0.0177867   0.2548120  )
        18           Si  tau(  18) = (   0.7842840   0.5084370   0.0440789  )
        19           Si  tau(  19) = (   0.6551800   0.5373310   0.7387400  )
        20           Si  tau(  20) = (   0.4428060   0.2202890   0.9707510  )
        21           Si  tau(  21) = (   0.4639640   0.1528990   0.5213540  )
        22           Si  tau(  22) = (   0.9995830   0.8828320   0.8598810  )
        23           Si  tau(  23) = (   0.3592960   0.8271090   0.3528060  )
        24           Si  tau(  24) = (   0.3468700   0.3052910   0.7126140  )
        25           Si  tau(  25) = (   0.3520820   0.5669150   0.3662120  )
        26           Si  tau(  26) = (   0.9788100   0.5120180   0.3551260  )
        27           Si  tau(  27) = (   0.9526310   0.0150177   0.9866010  )
        28           Si  tau(  28) = (   0.8878490   0.0206952   0.2224320  )
        29           Si  tau(  29) = (   0.5567610   0.9247180   0.0684370  )
        30           Si  tau(  30) = (   0.6722440   0.0981261   0.6985660  )
        31           Si  tau(  31) = (   0.1876680   0.5482990   0.8145880  )
        32           Si  tau(  32) = (   0.1396290   0.3860560   0.4114470  )
        33           Si  tau(  33) = (   0.4290520   0.7692740   0.7022940  )
        34           Si  tau(  34) = (   0.6761480   0.2577350   0.9973920  )
        35           Si  tau(  35) = (   0.0025535   0.6158790   0.9200380  )
        36           Si  tau(  36) = (   0.5525420   0.3594710   0.8453630  )
        37           Si  tau(  37) = (   0.3707410   0.0284180   0.9728390  )
        38           Si  tau(  38) = (   0.7919290   0.8896840   0.8929170  )
        39           Si  tau(  39) = (   0.3841940   0.4703760   0.5668380  )
        40           Si  tau(  40) = (   0.9913990   0.1339640   0.4213000  )
        41           Si  tau(  41) = (   0.1357120   0.0075403   0.4994320  )
        42           Si  tau(  42) = (   0.9348110   0.3413380   0.9187880  )
        43           Si  tau(  43) = (   0.0897784   0.0858425   0.1679010  )
        44           Si  tau(  44) = (   0.0533853   0.5809370   0.1183750  )
        45           Si  tau(  45) = (   0.2017200   0.6793320   0.2116450  )
        46           Si  tau(  46) = (   0.2207540   0.7651750   0.5461550  )
        47           Si  tau(  47) = (   0.5505250   0.5614110   0.0302435  )
        48           Si  tau(  48) = (   0.1373550   0.3840120   0.6415590  )
        49           Si  tau(  49) = (   0.8730910   0.1891070   0.0973260  )
        50           Si  tau(  50) = (   0.6045050   0.8107720   0.3265640  )
        51           Si  tau(  51) = (   0.1268180   0.7563950   0.7647810  )
        52           Si  tau(  52) = (   0.0281873   0.2811690   0.2497960  )
        53           Si  tau(  53) = (   0.4864070   0.1837720   0.3240460  )
        54           Si  tau(  54) = (   0.2715400   0.9132920   0.1458720  )
        55           Si  tau(  55) = (   0.6451980   0.3660050   0.6040260  )
        56           Si  tau(  56) = (   0.0790233   0.1831640   0.7112420  )
        57           Si  tau(  57) = (   0.5235460   0.6086900   0.2417110  )
        58           Si  tau(  58) = (   0.7981670   0.5751660   0.5734740  )
        59           Si  tau(  59) = (   0.4145570   0.5031640   0.7920890  )
        60           Si  tau(  60) = (   0.9314150   0.6720940   0.4285900  )
        61           Si  tau(  61) = (   0.4698570   0.7676940   0.9091890  )
        62           Si  tau(  62) = (   0.0927778   0.5809440   0.5923540  )
        63           Si  tau(  63) = (   0.7543060   0.7227240   0.0469197  )
        64           Si  tau(  64) = (   0.4647320   0.3898680   0.2105860  )

     number of k points=     1  Fermi-Dirac smearing, width (Ry)=  0.0100
                       cart. coord. in units 2pi/alat
        k(    1) = (   0.0000000   0.0000000   0.0000000), wk =   2.0000000

     Dense  grid:   100743 G-vectors     FFT dimensions: (  75,  75,  75)

     Estimated max dynamical RAM per process >     161.75 MB

     Estimated total dynamical RAM >     622.40 MB

     Initial potential from superposition of free atoms

     starting charge     255.9608, renormalised to     256.0000
     Starting wfcs are  256 randomized atomic wfcs

     total cpu time spent up to now is        4.2 secs

     Self-consistent Calculation

     iteration #  1     ecut=    30.00 Ry     beta= 0.50
     Davidson diagonalization with overlap
     ethr =  1.00E-02,  avg # of iterations =  3.0

     Threshold (ethr) on eigenvalues was too large:
     Diagonalizing with lowered threshold

     Davidson diagonalization with overlap
     ethr =  5.17E-04,  avg # of iterations =  5.0

     total cpu time spent up to now is        4.4 secs

     total energy              =    -500.18353540 Ry
     estimated scf accuracy    <       1.75344992 Ry

     iteration #  2     ecut=    30.00 Ry     beta= 0.50
     Davidson diagonalization with overlap
     ethr =  6.85E-04,  avg # of iterations =  5.0

     total cpu time spent up to now is        4.5 secs

     total energy              =    -499.58887669 Ry
     estimated scf accuracy    <       7.10020527 Ry

     iteration #  3     ecut=    30.00 Ry     beta= 0.50
     Davidson diagonalization with overlap
     ethr =  6.85E-04,  avg # of iterations =  5.0

     total cpu time spent up to now is        4.7 secs

     total energy              =    -500.27049149 Ry
     estimated scf accuracy    <       3.79370989 Ry

     iteration #  4     ecut=    30.00 Ry     beta= 0.50
     Davidson diagonalization with overlap
     ethr =  6.85E-04,  avg # of iterations =  3.0

     total cpu time spent up to now is        4.8 secs

     total energy              =    -500.53887873 Ry
     estimated scf accuracy    <       0.65838247 Ry

     iteration #  5     ecut=    30.00 Ry     beta= 0.50
     Davidson diagonalization with overlap
     ethr =  2.57E-04,  avg # of iterations =  2.0

     total cpu time spent up to now is        4.9 secs

     total energy              =    -500.57971363 Ry
     estimated scf accuracy    <       0.42309014 Ry

     iteration #  6     ecut=    30.00 Ry     beta= 0.50
     Davidson diagonalization with overlap
     ethr =  1.65E-04,  avg # of iterations =  2.0

     total cpu time spent up to now is        5.0 secs

     total energy              =    -500.61932326 Ry
     estimated scf accuracy    <       0.15724224 Ry

     iteration #  7     ecut=    30.00 Ry     beta= 0.50
     Davidson diagonalization with overlap
     ethr =  6.14E-05,  avg # of iterations =  2.0

     total cpu time spent up to now is        5.1 secs

     total energy              =    -500.63207195 Ry
     estimated scf accuracy    <       0.02544870 Ry

     iteration #  8     ecut=    30.00 Ry     beta= 0.50
     Davidson diagonalization with overlap
     ethr =  9.94E-06,  avg # of iterations = 12.0

     total cpu time spent up to now is        5.2 secs

     total energy              =    -500.63452961 Ry
     estimated scf accuracy    <       0.02431093 Ry

     iteration #  9     ecut=    30.00 Ry     beta= 0.50
     Davidson diagonalization with overlap
     ethr =  9.50E-06,  avg # of iterations =  2.0

     total cpu time spent up to now is        5.3 secs

     total energy              =    -500.63665924 Ry
     estimated scf accuracy    <       0.00687539 Ry

     iteration # 10     ecut=    30.00 Ry     beta= 0.50
     Davidson diagonalization with overlap
     ethr =  2.69E-06,  avg # of iterations = 20.0

     total cpu time spent up to now is        5.5 secs

     total energy              =    -500.63734980 Ry
     estimated scf accuracy    <       0.00116292 Ry

     iteration # 11     ecut=    30.00 Ry     beta= 0.50
     Davidson diagonalization with overlap
     ethr =  4.54E-07,  avg # of iterations =  4.0

     total cpu time spent up to now is        5.6 secs

     total energy              =    -500.63739179 Ry
     estimated scf accuracy    <       0.00157748 Ry

     iteration # 12     ecut=    30.00 Ry     beta= 0.50
     Davidson diagonalization with overlap
     ethr =  4.54E-07,  avg # of iterations =  2.0

     total cpu time spent up to now is        5.7 secs

     total energy              =    -500.63752619 Ry
     estimated scf accuracy    <       0.00059493 Ry

     iteration # 13     ecut=    30.00 Ry     beta= 0.50
     Davidson diagonalization with overlap
     ethr =  2.32E-07,  avg # of iterations =  2.0

     total cpu time spent up to now is        5.8 secs

     total energy              =    -500.63758029 Ry
     estimated scf accuracy    <       0.00009922 Ry

     iteration # 14     ecut=    30.00 Ry     beta= 0.50
     Davidson diagonalization with overlap
     ethr =  3.88E-08,  avg # of iterations =  3.0

     total cpu time spent up to now is        5.9 secs

     total energy              =    -500.63759076 Ry
     estimated scf accuracy    <       0.00005021 Ry

     iteration # 15     ecut=    30.00 Ry     beta= 0.50
     Davidson diagonalization with overlap
     ethr =  1.96E-08,  avg # of iterations =  2.0

     total cpu time spent up to now is        6.0 secs

     total energy              =    -500.63759354 Ry
     estimated scf accuracy    <       0.00003692 Ry

     iteration # 16     ecut=    30.00 Ry     beta= 0.50
     Davidson diagonalization with overlap
     ethr =  1.44E-08,  avg # of iterations =  2.0

     total cpu time spent up to now is        6.1 secs

     total energy              =    -500.63759672 Ry
     estimated scf accuracy    <       0.00002879 Ry

     iteration # 17     ecut=    30.00 Ry     beta= 0.50
     Davidson diagonalization with overlap
     ethr =  1.12E-08,  avg # of iterations =  1.0

     total cpu time spent up to now is        6.2 secs

     total energy              =    -500.63759836 Ry
     estimated scf accuracy    <       0.00000423 Ry

     iteration # 18     ecut=    30.00 Ry     beta= 0.50
     Davidson diagonalization with overlap
     ethr =  1.65E-09,  avg # of iterations =  4.0

     total cpu time spent up to now is        6.3 secs

     total energy              =    -500.63759876 Ry
     estimated scf accuracy    <       0.00000401 Ry

     iteration # 19     ecut=    30.00 Ry     beta= 0.50
     Davidson diagonalization with overlap
     ethr =  1.57E-09,  avg # of iterations =  2.0

     total cpu time spent up to now is        6.4 secs

     total energy              =    -500.63759901 Ry
     estimated scf accuracy    <       0.00000164 Ry

     iteration # 20     ecut=    30.00 Ry     beta= 0.50
     Davidson diagonalization with overlap
     ethr =  6.42E-10,  avg # of iterations =  2.0

     total cpu time spent up to now is        6.5 secs

     End of self-consistent calculation

          k = 0.0000 0.0000 0.0000 ( 12635 PWs)   bands (ev):

    -6.5988  -6.0392  -5.8569  -5.7871  -5.5719  -5.2376  -5.1262  -4.8562
    -4.7598  -4.7143  -4.6049  -4.4952  -4.2968  -4.2482  -4.1112  -3.9585
    -3.8074  -3.6991  -3.4548  -3.3048  -3.2272  -2.9971  -2.8941  -2.7500
    -2.5488  -2.4654  -2.3268  -2.1753  -2.0483  -1.9341  -1.8978  -1.6856
    -1.5398  -1.4271  -1.3229  -1.3156  -1.2383  -1.1709  -1.0145  -0.9468
    -0.7824  -0.7233  -0.6644  -0.6126  -0.3935  -0.3828  -0.1816  -0.1155
    -0.0478  -0.0027   0.1679   0.2720   0.3088   0.4408   0.5036   0.6510
     0.7751   0.8460   0.9991   1.0872   1.2244   1.4160   1.4693   1.5207
     1.5575   1.5768   1.7655   1.8218   1.9434   2.0115   2.0688   2.1337
     2.2342   2.3628   2.3871   2.4729   2.5222   2.6764   2.7041   2.7975
     2.8758   2.9218   2.9645   3.0698   3.1535   3.2536   3.3695   3.3996
     3.4346   3.5751   3.6105   3.6895   3.7857   3.8358   3.8784   3.9696
     3.9847   4.0263   4.1989   4.2235   4.2840   4.3502   4.4018   4.4724
     4.5592   4.6009   4.6870   4.7039   4.7466   4.8053   4.8824   4.9128
     5.0002   5.0469   5.1689   5.2028   5.2840   5.3463   5.3988   5.4333
     5.5340   5.5681   5.6078   5.6333   5.7528   5.8275   5.8978   5.9496
     5.9947   6.0717   6.1097   6.1783   6.1992   6.2496   6.3243   6.4269
     6.4832   6.5447   6.5950   6.6546   6.6845   6.7088   6.7826   6.8589
     6.9192   6.9382   6.9814   7.0497   7.0844   7.1528   7.2169   7.2506
     7.3739   7.4029

     the Fermi energy is     5.9636 ev

!    total energy              =    -500.63759889 Ry
     estimated scf accuracy    <       0.00000044 Ry
     smearing contrib. (-TS)   =      -0.15047199 Ry
     internal energy E=F+TS    =    -500.48712689 Ry

     The total energy is F=E-TS. E is the sum of the following terms:
     one-electron contribution =     111.68182341 Ry
     hartree contribution      =      50.75230543 Ry
     xc contribution           =    -149.78013121 Ry
     ewald contribution        =    -513.14112453 Ry

     convergence has been achieved in  20 iterations

     Forces acting on atoms (cartesian axes, Ry/au):

     atom    1 type  1   force =     0.03606941    0.02094103   -0.00122336
     atom    2 type  1   force =     0.01211590    0.00660471    0.02924937
     atom    3 type  1   force =    -0.01944683   -0.05459418    0.02298750
     atom    4 type  1   force =    -0.00651375   -0.01451110   -0.00164169
     atom    5 type  1   force =     0.01078502   -0.00487759    0.00940062
     atom    6 type  1   force =    -0.03221809   -0.01629559    0.03583042
     atom    7 type  1   force =     0.01016889    0.00504607    0.01162459
     atom    8 type  1   force =    -0.02252377   -0.01077176   -0.02912105
     atom    9 type  1   force =    -0.01818817   -0.02249905    0.01955941
     atom   10 type  1   force =     0.03224684    0.10517106   -0.03961759
     atom   11 type  1   force =    -0.00809841   -0.02600682   -0.00004924
     atom   12 type  1   force =    -0.01603104    0.00710924    0.00110041
     atom   13 type  1   force =     0.02640976    0.02955431    0.00182517
     atom   14 type  1   force =    -0.08480663   -0.02458156   -0.03651071
     atom   15 type  1   force =     0.01255748    0.02759109    0.00684856
     atom   16 type  1   force =    -0.02626794   -0.05555907    0.02563670
     atom   17 type  1   force =    -0.01938852   -0.02055031   -0.00170477
     atom   18 type  1   force =    -0.00062974   -0.03044296   -0.00868115
     atom   19 type  1   force =    -0.01355484    0.02453276    0.01288227
     atom   20 type  1   force =     0.01296953    0.03528582    0.01490587
     atom   21 type  1   force =     0.00115591    0.03755401    0.06608812
     atom   22 type  1   force =     0.02046885   -0.06294628   -0.07284750
     atom   23 type  1   force =    -0.00754112   -0.01122160    0.01059464
     atom   24 type  1   force =     0.01098450   -0.00259021   -0.01413037
     atom   25 type  1   force =    -0.02895189    0.00284420   -0.01157550
     atom   26 type  1   force =     0.04458120   -0.17237501   -0.13428083
     atom   27 type  1   force =    -0.00436148    0.08082820    0.09774255
     atom   28 type  1   force =    -0.02193388   -0.05723029    0.02815983
     atom   29 type  1   force =     0.00066567   -0.01219736    0.00194058
     atom   30 type  1   force =     0.02783837    0.00357025   -0.06035792
     atom   31 type  1   force =     0.02638827    0.00542958    0.00152648
     atom   32 type  1   force =     0.04216555   -0.00106588    0.02410746
     atom   33 type  1   force =    -0.02683048    0.00321581   -0.03459236
     atom   34 type  1   force =    -0.00127418   -0.01125741   -0.01558965
     atom   35 type  1   force =    -0.01811927   -0.01294900   -0.02473158
     atom   36 type  1   force =     0.02352865   -0.03124911   -0.00556616
     atom   37 type  1   force =    -0.00927376   -0.05690289    0.02692842
     atom   38 type  1   force =    -0.03675025   -0.03367445   -0.00078363
     atom   39 type  1   force =    -0.00884499   -0.01190924   -0.00677590
     atom   40 type  1   force =    -0.03451001    0.05481544   -0.00999321
     atom   41 type  1   force =     0.04080091   -0.03280052    0.01727717
     atom   42 type  1   force =    -0.02570492    0.01425586    0.00882452
     atom   43 type  1   force =     0.04556491   -0.04071146   -0.01323215
     atom   44 type  1   force =    -0.05283393   -0.02162685    0.04533305
     atom   45 type  1   force =     0.08327526    0.04873347    0.00730064
     atom   46 type  1   force =     0.03035553   -0.00201966   -0.01401436
     atom   47 type  1   force =     0.00133382    0.00384688   -0.00853045
     atom   48 type  1   force =     0.03748302   -0.03350742   -0.00106137
     atom   49 type  1   force =    -0.00692983    0.07260154   -0.02432386
     atom   50 type  1   force =    -0.01823581    0.00709205   -0.01472998
     atom   51 type  1   force =     0.00059722   -0.12556645   -0.00685457
     atom   52 type  1   force =    -0.02703248    0.00775528   -0.00025795
     atom   53 type  1   force =     0.00166186    0.01179288   -0.07378637
     atom   54 type  1   force =    -0.01683640   -0.01162320    0.01033406
     atom   55 type  1   force =    -0.01138405   -0.01293215    0.00432392
     atom   56 type  1   force =     0.07253181    0.02027060    0.04303380
     atom   57 type  1   force =     0.02728108    0.02615449   -0.00009612
     atom   58 type  1   force =    -0.02615188    0.01540232    0.00635177
     atom   59 type  1   force =    -0.03983095    0.06921995   -0.00374087
     atom   60 type  1   force =    -0.02379543    0.20814485    0.08141088
     atom   61 type  1   force =     0.03408379    0.01428091    0.01904562
     atom   62 type  1   force =     0.00580718    0.05504685   -0.01193688
     atom   63 type  1   force =     0.00708289    0.04044445   -0.00662519
     atom   64 type  1   force =    -0.02416435   -0.02608951   -0.00321010

     Total force =     0.538257     Total SCF correction =     0.001205


     Computing stress (Cartesian axis) and pressure

          total   stress  (Ry/bohr**3)                   (kbar)     P=      -17.26
  -0.00015346   0.00003009  -0.00003467          -22.57        4.43       -5.10
   0.00003009  -0.00001092   0.00000794            4.43       -1.61        1.17
  -0.00003467   0.00000794  -0.00018769           -5.10        1.17      -27.61

 
     init_run     :      0.63s CPU      4.11s WALL (       1 calls)
     electrons    :      2.19s CPU      2.35s WALL (       1 calls)
     forces       :      0.03s CPU      0.04s WALL (       1 calls)
     stress       :      0.15s CPU      0.15s WALL (       1 calls)

     Called by init_run:
     wfcinit      :      0.44s CPU      3.77s WALL (       1 calls)
                                        3.77s GPU  (       1 calls)
     potinit      :      0.04s CPU      0.11s WALL (       1 calls)
     hinit0       :      0.13s CPU      0.16s WALL (       1 calls)

     Called by electrons:
     c_bands      :      1.45s CPU      1.54s WALL (      21 calls)
     sum_band     :      0.39s CPU      0.44s WALL (      21 calls)
     v_of_rho     :      0.14s CPU      0.22s WALL (      21 calls)
     mix_rho      :      0.18s CPU      0.19s WALL (      21 calls)

     Called by c_bands:
     init_us_2    :      0.05s CPU      0.06s WALL (      43 calls)
     init_us_2:gp :      0.05s CPU      0.06s WALL (      43 calls)
     regterg      :      1.30s CPU      1.38s WALL (      21 calls)

     Called by *egterg:
     rdiaghg      :      0.45s CPU      1.14s WALL (     105 calls)
                                        1.12s GPU  (     105 calls)
     h_psi        :      1.10s CPU      3.80s WALL (     107 calls)
                                        3.80s GPU  (     107 calls)
     g_psi        :      0.00s CPU      0.00s WALL (      85 calls)
                                        0.00s GPU  (      85 calls)

     Called by h_psi:
     h_psi:calbec :      0.41s CPU      3.03s WALL (     107 calls)
                                        3.03s GPU  (     107 calls)
     vloc_psi     :      0.63s CPU      0.70s WALL (     107 calls)
                                        0.70s GPU  (     107 calls)
     add_vuspsi   :      0.04s CPU      0.06s WALL (     107 calls)
                                        0.06s GPU  (     107 calls)

     General routines
     calbec       :      0.42s CPU      3.04s WALL (     112 calls)
     fft          :      0.27s CPU      0.38s WALL (     175 calls)
                                        0.11s GPU  (     111 calls)
     ffts         :      0.04s CPU      0.05s WALL (      21 calls)
     fftw         :      0.71s CPU      0.90s WALL (    2225 calls)
                                        0.81s GPU  (    2225 calls)
 
     Parallel routines
 
     PWSCF        :      3.04s CPU      6.76s WALL

 
   This run was terminated on:  10: 8:47  11May2023            

=------------------------------------------------------------------------------=
   JOB DONE.
=------------------------------------------------------------------------------=
