An instance of this daemon is already running

     Program PWSCF v.7.1 starts on 11May2023 at 10: 2:55 

     This program is part of the open-source Quantum ESPRESSO suite
     for quantum simulation of materials; please cite
         "P. Giannozzi et al., J. Phys.:Condens. Matter 21 395502 (2009);
         "P. Giannozzi et al., J. Phys.:Condens. Matter 29 465901 (2017);
         "P. Giannozzi et al., J. Chem. Phys. 152 154105 (2020);
          URL http://www.quantum-espresso.org", 
     in publications or presentations arising from this work. More details at
     http://www.quantum-espresso.org/quote

     Parallel version (MPI & OpenMP), running on       4 processor cores
     Number of MPI processes:                 4
     Threads/MPI process:                     1

     MPI processes distributed on     1 nodes
     259158 MiB available memory on the printing compute node when the environment starts
 
     Reading input from pw-si-24.in
Warning: card &CELL ignored
Warning: card / ignored

     Current dimensions of program PWSCF are:
     Max number of different atomic species (ntypx) = 10
     Max number of k-points (npk) =  40000
     Max angular momentum in pseudopotentials (lmaxx) =  4

     IMPORTANT: XC functional enforced from input :
     Exchange-correlation= PBE
                           (   1   4   3   4   0   0   0)
     Any further DFT definition will be discarded
     Please, verify this is what you really want


     gamma-point specific algorithms are used
 
     K-points division:     npool     =       2
     R & G space division:  proc/nbgrp/npool/nimage =       2
     Subspace diagonalization in iterative solution of the eigenvalue problem:
     a serial algorithm will be used

     Message from routine divide_et_impera:
     suboptimal parallelization: some nodes have no k-points
 
     Parallelization info
     --------------------
     sticks:   dense  smooth     PW     G-vecs:    dense   smooth      PW
     Min        2023    2023    542                97221    97221   13262
     Max        2026    2026    543                97226    97226   13267
     Sum        4049    4049   1085               194447   194447   26529
 
     Using Slab Decomposition
 


     bravais-lattice index     =            0
     lattice parameter (alat)  =      20.6153  a.u.
     unit-cell volume          =    8761.2564 (a.u.)^3
     number of atoms/cell      =           64
     number of atomic types    =            1
     number of electrons       =       256.00
     number of Kohn-Sham states=          154
     kinetic-energy cutoff     =      30.0000  Ry
     charge density cutoff     =     120.0000  Ry
     scf convergence threshold =      1.0E-06
     mixing beta               =       0.5000
     number of iterations used =            8  plain     mixing
     Exchange-correlation= PBE
                           (   1   4   3   4   0   0   0)

     GPU acceleration is ACTIVE.
     GPU-aware MPI enabled

     Message from routine print_cuda_info:
     High GPU oversubscription detected. Are you sure this is what you want?

     celldm(1)=  20.615259  celldm(2)=   0.000000  celldm(3)=   0.000000
     celldm(4)=   0.000000  celldm(5)=   0.000000  celldm(6)=   0.000000

     crystal axes: (cart. coord. in units of alat)
               a(1) = (   1.000000   0.000000   0.000000 )  
               a(2) = (   0.000000   1.000000   0.000000 )  
               a(3) = (   0.000000   0.000000   1.000000 )  

     reciprocal axes: (cart. coord. in units 2 pi/alat)
               b(1) = (  1.000000  0.000000  0.000000 )  
               b(2) = (  0.000000  1.000000  0.000000 )  
               b(3) = (  0.000000  0.000000  1.000000 )  


     PseudoPot. # 1 for Si read from file:
     /home/ppiaggi/pseudos/Si_ONCV_PBE_sr.upf
     MD5 check sum: 8553c464762ac42b85b1eed164b4d029
     Pseudo is Norm-conserving, Zval =  4.0
     Generated using ONCVPSP code by D. R. Hamann
     Using radial grid of 1510 points,  4 beta functions with: 
                l(1) =   0
                l(2) =   0
                l(3) =   1
                l(4) =   1

     atomic species   valence    mass     pseudopotential
        Si             4.00    28.08500     Si( 1.00)

     No symmetry found



   Cartesian axes

     site n.     atom                  positions (alat units)
         1           Si  tau(   1) = (   0.6301890   0.0282759   0.6853510  )
         2           Si  tau(   2) = (   0.8469650   0.9553510   0.4665030  )
         3           Si  tau(   3) = (   0.9779380   0.8029020   0.3596190  )
         4           Si  tau(   4) = (   0.9443670   0.5103730   0.3614340  )
         5           Si  tau(   5) = (   0.2055700   0.1486930   0.2108080  )
         6           Si  tau(   6) = (   0.5579790   0.7465010   0.9980030  )
         7           Si  tau(   7) = (   0.4820900   0.8640320   0.5122020  )
         8           Si  tau(   8) = (   0.4366500   0.3699970   0.9853490  )
         9           Si  tau(   9) = (   0.3979200   0.9294670   0.8779770  )
        10           Si  tau(  10) = (   0.0301218   0.8576550   0.7137940  )
        11           Si  tau(  11) = (   0.9269370   0.6950350   0.8016890  )
        12           Si  tau(  12) = (   0.8472270   0.6661940   0.2286610  )
        13           Si  tau(  13) = (   0.7185560   0.1758170   0.1071470  )
        14           Si  tau(  14) = (   0.8204630   0.2552710   0.5477720  )
        15           Si  tau(  15) = (   0.7526240   0.2613000   0.7751390  )
        16           Si  tau(  16) = (   0.2962660   0.0299859   0.5422500  )
        17           Si  tau(  17) = (   0.4632870   0.0173509   0.2818250  )
        18           Si  tau(  18) = (   0.7526780   0.4503250   0.2738500  )
        19           Si  tau(  19) = (   0.5981120   0.7749170   0.7785780  )
        20           Si  tau(  20) = (   0.5998590   0.3770020   0.1226630  )
        21           Si  tau(  21) = (   0.5340480   0.0729760   0.4791340  )
        22           Si  tau(  22) = (   0.0209723   0.0622024   0.8114910  )
        23           Si  tau(  23) = (   0.3265350   0.8025890   0.2610690  )
        24           Si  tau(  24) = (   0.2315560   0.2343340   0.6318680  )
        25           Si  tau(  25) = (   0.3527820   0.4447530   0.3557420  )
        26           Si  tau(  26) = (   0.0311662   0.5873530   0.5969730  )
        27           Si  tau(  27) = (   0.0144031   0.0354456   0.0264366  )
        28           Si  tau(  28) = (   0.6419910   0.8634110   0.3306870  )
        29           Si  tau(  29) = (   0.5612700   0.0037351   0.0486370  )
        30           Si  tau(  30) = (   0.8420610   0.0477382   0.6613930  )
        31           Si  tau(  31) = (   0.3788320   0.4312830   0.7960330  )
        32           Si  tau(  32) = (   0.1898540   0.2831090   0.3812960  )
        33           Si  tau(  33) = (   0.2689770   0.8868680   0.7096740  )
        34           Si  tau(  34) = (   0.7043250   0.0925667   0.8974000  )
        35           Si  tau(  35) = (   0.9944360   0.4952070   0.9548890  )
        36           Si  tau(  36) = (   0.6238130   0.5862020   0.8387730  )
        37           Si  tau(  37) = (   0.4068900   0.1433110   0.8879890  )
        38           Si  tau(  38) = (   0.7484430   0.9177620   0.8274510  )
        39           Si  tau(  39) = (   0.6823260   0.4682770   0.4898750  )
        40           Si  tau(  40) = (   0.0101921   0.1315640   0.3596130  )
        41           Si  tau(  41) = (   0.1639840   0.9541430   0.3503690  )
        42           Si  tau(  42) = (   0.8196740   0.4108390   0.0364002  )
        43           Si  tau(  43) = (   0.2188970   0.2953100   0.0393734  )
        44           Si  tau(  44) = (   0.0961183   0.4594270   0.1550340  )
        45           Si  tau(  45) = (   0.2559010   0.6228000   0.1501320  )
        46           Si  tau(  46) = (   0.3208690   0.6175600   0.5177000  )
        47           Si  tau(  47) = (   0.7404100   0.5985200   0.0260365  )
        48           Si  tau(  48) = (   0.0422921   0.3406810   0.5142710  )
        49           Si  tau(  49) = (   0.8349600   0.0526040   0.2516030  )
        50           Si  tau(  50) = (   0.5302690   0.6012060   0.4415260  )
        51           Si  tau(  51) = (   0.1370540   0.5122750   0.8025980  )
        52           Si  tau(  52) = (   0.9839090   0.3301330   0.2712180  )
        53           Si  tau(  53) = (   0.4309520   0.2405520   0.2990580  )
        54           Si  tau(  54) = (   0.1528590   0.8564520   0.1088590  )
        55           Si  tau(  55) = (   0.6239370   0.2582480   0.4207280  )
        56           Si  tau(  56) = (   0.1667290   0.2072800   0.8224340  )
        57           Si  tau(  57) = (   0.5155030   0.6900580   0.2203200  )
        58           Si  tau(  58) = (   0.7140930   0.6490070   0.6076240  )
        59           Si  tau(  59) = (   0.3118510   0.6619230   0.7238650  )
        60           Si  tau(  60) = (   0.8646830   0.7616310   0.5488900  )
        61           Si  tau(  61) = (   0.2847160   0.6757070   0.9551350  )
        62           Si  tau(  62) = (   0.1337360   0.7722540   0.5299510  )
        63           Si  tau(  63) = (   0.8015150   0.8768820   0.0989339  )
        64           Si  tau(  64) = (   0.4366440   0.5062960   0.1488000  )

     number of k points=     1  Fermi-Dirac smearing, width (Ry)=  0.0100
                       cart. coord. in units 2pi/alat
        k(    1) = (   0.0000000   0.0000000   0.0000000), wk =   2.0000000

     Dense  grid:    97224 G-vectors     FFT dimensions: (  72,  72,  72)

     Estimated max dynamical RAM per process >     154.93 MB

     Estimated total dynamical RAM >     595.98 MB

     Initial potential from superposition of free atoms

     starting charge     255.9608, renormalised to     256.0000
     Starting wfcs are  256 randomized atomic wfcs

     total cpu time spent up to now is        4.5 secs

     Self-consistent Calculation

     iteration #  1     ecut=    30.00 Ry     beta= 0.50
     Davidson diagonalization with overlap
     ethr =  1.00E-02,  avg # of iterations =  3.0

     Threshold (ethr) on eigenvalues was too large:
     Diagonalizing with lowered threshold

     Davidson diagonalization with overlap
     ethr =  5.94E-04,  avg # of iterations =  4.0

     total cpu time spent up to now is        4.7 secs

     total energy              =    -500.22004695 Ry
     estimated scf accuracy    <       1.97090318 Ry

     iteration #  2     ecut=    30.00 Ry     beta= 0.50
     Davidson diagonalization with overlap
     ethr =  7.70E-04,  avg # of iterations =  3.0

     total cpu time spent up to now is        4.8 secs

     total energy              =    -499.54047464 Ry
     estimated scf accuracy    <      10.01896431 Ry

     iteration #  3     ecut=    30.00 Ry     beta= 0.50
     Davidson diagonalization with overlap
     ethr =  7.70E-04,  avg # of iterations =  4.0

     total cpu time spent up to now is        4.9 secs

     total energy              =    -500.40266900 Ry
     estimated scf accuracy    <       4.12033808 Ry

     iteration #  4     ecut=    30.00 Ry     beta= 0.50
     Davidson diagonalization with overlap
     ethr =  7.70E-04,  avg # of iterations =  2.0

     total cpu time spent up to now is        5.0 secs

     total energy              =    -500.73711679 Ry
     estimated scf accuracy    <       0.74795259 Ry

     iteration #  5     ecut=    30.00 Ry     beta= 0.50
     Davidson diagonalization with overlap
     ethr =  2.92E-04,  avg # of iterations =  2.0

     total cpu time spent up to now is        5.0 secs

     total energy              =    -500.76307635 Ry
     estimated scf accuracy    <       0.58264830 Ry

     iteration #  6     ecut=    30.00 Ry     beta= 0.50
     Davidson diagonalization with overlap
     ethr =  2.28E-04,  avg # of iterations =  2.0

     total cpu time spent up to now is        5.1 secs

     total energy              =    -500.81848700 Ry
     estimated scf accuracy    <       0.11783278 Ry

     iteration #  7     ecut=    30.00 Ry     beta= 0.50
     Davidson diagonalization with overlap
     ethr =  4.60E-05,  avg # of iterations =  2.0

     total cpu time spent up to now is        5.2 secs

     total energy              =    -500.82837570 Ry
     estimated scf accuracy    <       0.04401652 Ry

     iteration #  8     ecut=    30.00 Ry     beta= 0.50
     Davidson diagonalization with overlap
     ethr =  1.72E-05,  avg # of iterations =  3.0

     total cpu time spent up to now is        5.3 secs

     total energy              =    -500.83232854 Ry
     estimated scf accuracy    <       0.03081432 Ry

     iteration #  9     ecut=    30.00 Ry     beta= 0.50
     Davidson diagonalization with overlap
     ethr =  1.20E-05,  avg # of iterations =  3.0

     total cpu time spent up to now is        5.4 secs

     total energy              =    -500.83494460 Ry
     estimated scf accuracy    <       0.00304143 Ry

     iteration # 10     ecut=    30.00 Ry     beta= 0.50
     Davidson diagonalization with overlap
     ethr =  1.19E-06,  avg # of iterations = 15.0

     total cpu time spent up to now is        5.6 secs

     total energy              =    -500.83523279 Ry
     estimated scf accuracy    <       0.00264824 Ry

     iteration # 11     ecut=    30.00 Ry     beta= 0.50
     Davidson diagonalization with overlap
     ethr =  1.03E-06,  avg # of iterations =  3.0

     total cpu time spent up to now is        5.7 secs

     total energy              =    -500.83543330 Ry
     estimated scf accuracy    <       0.00161216 Ry

     iteration # 12     ecut=    30.00 Ry     beta= 0.50
     Davidson diagonalization with overlap
     ethr =  6.30E-07,  avg # of iterations =  2.0

     total cpu time spent up to now is        5.7 secs

     total energy              =    -500.83554676 Ry
     estimated scf accuracy    <       0.00034775 Ry

     iteration # 13     ecut=    30.00 Ry     beta= 0.50
     Davidson diagonalization with overlap
     ethr =  1.36E-07,  avg # of iterations =  4.0

     total cpu time spent up to now is        5.8 secs

     total energy              =    -500.83557190 Ry
     estimated scf accuracy    <       0.00060265 Ry

     iteration # 14     ecut=    30.00 Ry     beta= 0.50
     Davidson diagonalization with overlap
     ethr =  1.36E-07,  avg # of iterations =  2.0

     total cpu time spent up to now is        5.9 secs

     total energy              =    -500.83561059 Ry
     estimated scf accuracy    <       0.00002231 Ry

     iteration # 15     ecut=    30.00 Ry     beta= 0.50
     Davidson diagonalization with overlap
     ethr =  8.72E-09,  avg # of iterations =  5.0

     total cpu time spent up to now is        6.0 secs

     total energy              =    -500.83560931 Ry
     estimated scf accuracy    <       0.00013726 Ry

     iteration # 16     ecut=    30.00 Ry     beta= 0.50
     Davidson diagonalization with overlap
     ethr =  8.72E-09,  avg # of iterations =  3.0

     total cpu time spent up to now is        6.1 secs

     total energy              =    -500.83561924 Ry
     estimated scf accuracy    <       0.00001507 Ry

     iteration # 17     ecut=    30.00 Ry     beta= 0.50
     Davidson diagonalization with overlap
     ethr =  5.89E-09,  avg # of iterations =  2.0

     total cpu time spent up to now is        6.2 secs

     total energy              =    -500.83561982 Ry
     estimated scf accuracy    <       0.00000968 Ry

     iteration # 18     ecut=    30.00 Ry     beta= 0.50
     Davidson diagonalization with overlap
     ethr =  3.78E-09,  avg # of iterations =  2.0

     total cpu time spent up to now is        6.3 secs

     total energy              =    -500.83562047 Ry
     estimated scf accuracy    <       0.00000635 Ry

     iteration # 19     ecut=    30.00 Ry     beta= 0.50
     Davidson diagonalization with overlap
     ethr =  2.48E-09,  avg # of iterations =  1.0

     total cpu time spent up to now is        6.4 secs

     total energy              =    -500.83562088 Ry
     estimated scf accuracy    <       0.00000112 Ry

     iteration # 20     ecut=    30.00 Ry     beta= 0.50
     Davidson diagonalization with overlap
     ethr =  4.37E-10,  avg # of iterations =  2.0

     total cpu time spent up to now is        6.4 secs

     End of self-consistent calculation

          k = 0.0000 0.0000 0.0000 ( 12104 PWs)   bands (ev):

    -6.3579  -5.9616  -5.5571  -5.3989  -5.1915  -4.9327  -4.7174  -4.5822
    -4.5096  -4.3781  -4.1190  -3.9516  -3.8581  -3.7686  -3.7354  -3.5512
    -3.4977  -3.2806  -3.2479  -3.1029  -2.8698  -2.7784  -2.5933  -2.4340
    -2.2218  -2.1096  -2.0457  -1.9076  -1.8357  -1.6034  -1.5101  -1.4579
    -1.2949  -1.2258  -1.0735  -0.9571  -0.8442  -0.6749  -0.6318  -0.5730
    -0.4566  -0.3808  -0.3762  -0.3233  -0.1387  -0.0644   0.0236   0.1189
     0.2482   0.2705   0.3609   0.3938   0.5180   0.6818   0.8010   0.8675
     0.9821   1.0485   1.2407   1.5055   1.6522   1.6826   1.7832   1.8324
     1.8891   1.9946   2.0612   2.1505   2.1787   2.2828   2.3178   2.4461
     2.5184   2.6284   2.6821   2.7910   2.8303   2.9304   2.9857   3.0575
     3.1499   3.2339   3.3102   3.4218   3.5899   3.5995   3.6953   3.7372
     3.7828   3.8599   3.8815   3.9622   4.0084   4.2240   4.2623   4.2853
     4.3747   4.4049   4.4713   4.5320   4.6256   4.7024   4.7430   4.7580
     4.9214   4.9692   5.0139   5.0305   5.1630   5.2145   5.2582   5.3136
     5.3644   5.4253   5.5634   5.5893   5.6337   5.7099   5.7520   5.8289
     5.8788   5.9122   5.9551   5.9776   6.1271   6.1447   6.1918   6.2417
     6.3288   6.3707   6.4055   6.5404   6.5671   6.6142   6.6445   6.7215
     6.7617   6.8023   6.9031   6.9541   6.9918   7.1188   7.1578   7.2043
     7.2736   7.2928   7.3461   7.4220   7.5018   7.6027   7.6660   7.7293
     7.7843   7.8330

     the Fermi energy is     6.2886 ev

!    total energy              =    -500.83562066 Ry
     estimated scf accuracy    <       0.00000054 Ry
     smearing contrib. (-TS)   =      -0.15457285 Ry
     internal energy E=F+TS    =    -500.68104782 Ry

     The total energy is F=E-TS. E is the sum of the following terms:
     one-electron contribution =     124.06630533 Ry
     hartree contribution      =      47.99819183 Ry
     xc contribution           =    -150.43032032 Ry
     ewald contribution        =    -522.31522465 Ry

     convergence has been achieved in  20 iterations

     Forces acting on atoms (cartesian axes, Ry/au):

     atom    1 type  1   force =    -0.05310548    0.02879652   -0.02509353
     atom    2 type  1   force =    -0.02852857    0.03257956   -0.05637813
     atom    3 type  1   force =     0.03151555    0.00951639    0.00229096
     atom    4 type  1   force =    -0.00072706    0.06536899    0.04550350
     atom    5 type  1   force =     0.00558084   -0.02879989   -0.00842614
     atom    6 type  1   force =    -0.01356124    0.01414799    0.01369444
     atom    7 type  1   force =    -0.00409126   -0.04175473    0.00652711
     atom    8 type  1   force =    -0.04426107   -0.05959436    0.00307961
     atom    9 type  1   force =     0.03370393   -0.04209581    0.01294997
     atom   10 type  1   force =     0.03217951    0.01625866   -0.01252911
     atom   11 type  1   force =    -0.02369225   -0.03141708   -0.01970894
     atom   12 type  1   force =    -0.01616456    0.01290335   -0.00347185
     atom   13 type  1   force =    -0.01962456    0.03118070   -0.00106136
     atom   14 type  1   force =     0.00746242    0.00267155    0.01038333
     atom   15 type  1   force =     0.01649232    0.00061519   -0.02000171
     atom   16 type  1   force =     0.00257827    0.00231510   -0.01547723
     atom   17 type  1   force =    -0.00728732   -0.01537800   -0.05019200
     atom   18 type  1   force =    -0.01664763   -0.00315515    0.00798074
     atom   19 type  1   force =    -0.04184605    0.08290511   -0.04648087
     atom   20 type  1   force =     0.06191762   -0.06765891    0.01813842
     atom   21 type  1   force =    -0.01760523    0.02390487    0.03668708
     atom   22 type  1   force =    -0.03366456   -0.03891703   -0.01160551
     atom   23 type  1   force =    -0.00458026    0.04529402    0.01524311
     atom   24 type  1   force =     0.03280896    0.01848167   -0.06199664
     atom   25 type  1   force =    -0.00413658    0.00332430    0.00950199
     atom   26 type  1   force =    -0.00135491   -0.02406752    0.02112244
     atom   27 type  1   force =    -0.01855824   -0.03403903    0.03885403
     atom   28 type  1   force =     0.01748151    0.00248315    0.00747806
     atom   29 type  1   force =    -0.00968828   -0.00888372    0.02069664
     atom   30 type  1   force =     0.03953743    0.04296673    0.00878948
     atom   31 type  1   force =    -0.03281087    0.03485685   -0.05359271
     atom   32 type  1   force =     0.04967793    0.01977171   -0.00674333
     atom   33 type  1   force =    -0.01800897   -0.03878741   -0.02860832
     atom   34 type  1   force =    -0.04487796    0.10312054    0.06470302
     atom   35 type  1   force =     0.00449553    0.02103720    0.02585103
     atom   36 type  1   force =    -0.00718711   -0.08391647    0.01426845
     atom   37 type  1   force =    -0.00609941    0.02523132    0.01462946
     atom   38 type  1   force =     0.06137254   -0.13818428   -0.00684628
     atom   39 type  1   force =     0.02249389   -0.05091982   -0.01471597
     atom   40 type  1   force =     0.00143060   -0.01404811    0.00211578
     atom   41 type  1   force =     0.01509996    0.00056711    0.00929346
     atom   42 type  1   force =     0.00001702   -0.08669429    0.00436225
     atom   43 type  1   force =     0.01623225   -0.00323006   -0.02235476
     atom   44 type  1   force =     0.02789369    0.03339779   -0.06312952
     atom   45 type  1   force =    -0.04754506   -0.03144772    0.05231572
     atom   46 type  1   force =     0.01222593    0.00232530   -0.04805303
     atom   47 type  1   force =    -0.01576497    0.05384432   -0.00314158
     atom   48 type  1   force =    -0.04237253    0.01463606    0.04518764
     atom   49 type  1   force =    -0.00903003   -0.02408340   -0.00256190
     atom   50 type  1   force =    -0.03468619    0.03914444   -0.03278810
     atom   51 type  1   force =     0.04645018    0.02012520   -0.04526263
     atom   52 type  1   force =    -0.03555411   -0.04701316   -0.01751415
     atom   53 type  1   force =     0.01875538    0.00193641   -0.01240713
     atom   54 type  1   force =     0.01384880    0.00462016   -0.00224117
     atom   55 type  1   force =     0.03089220    0.02841881   -0.00583009
     atom   56 type  1   force =     0.03660859    0.02028751    0.08235210
     atom   57 type  1   force =     0.02184188    0.02499845    0.04148260
     atom   58 type  1   force =    -0.08114697   -0.03720637    0.05475883
     atom   59 type  1   force =    -0.00769233   -0.00508661    0.05187823
     atom   60 type  1   force =     0.08724254    0.01403230    0.00875790
     atom   61 type  1   force =     0.01211491    0.03656490   -0.07318631
     atom   62 type  1   force =     0.00629405   -0.00234149   -0.01959147
     atom   63 type  1   force =     0.00488592    0.01259918   -0.00377208
     atom   64 type  1   force =    -0.02923049    0.01149098    0.04388619

     Total force =     0.480669     Total SCF correction =     0.001366


     Computing stress (Cartesian axis) and pressure

          total   stress  (Ry/bohr**3)                   (kbar)     P=      -13.54
  -0.00009830   0.00000542  -0.00005963          -14.46        0.80       -8.77
   0.00000542   0.00000743  -0.00004152            0.80        1.09       -6.11
  -0.00005963  -0.00004152  -0.00018530           -8.77       -6.11      -27.26

 
     init_run     :      0.96s CPU      4.43s WALL (       1 calls)
     electrons    :      1.80s CPU      1.96s WALL (       1 calls)
     forces       :      0.03s CPU      0.03s WALL (       1 calls)
     stress       :      0.15s CPU      0.15s WALL (       1 calls)

     Called by init_run:
     wfcinit      :      0.45s CPU      3.76s WALL (       1 calls)
                                        3.76s GPU  (       1 calls)
     potinit      :      0.04s CPU      0.13s WALL (       1 calls)
     hinit0       :      0.45s CPU      0.48s WALL (       1 calls)

     Called by electrons:
     c_bands      :      1.15s CPU      1.23s WALL (      21 calls)
     sum_band     :      0.34s CPU      0.39s WALL (      21 calls)
     v_of_rho     :      0.13s CPU      0.23s WALL (      21 calls)
     mix_rho      :      0.16s CPU      0.18s WALL (      21 calls)

     Called by c_bands:
     init_us_2    :      0.05s CPU      0.06s WALL (      43 calls)
     init_us_2:gp :      0.05s CPU      0.06s WALL (      43 calls)
     regterg      :      1.00s CPU      1.06s WALL (      21 calls)

     Called by *egterg:
     rdiaghg      :      0.41s CPU      1.08s WALL (      89 calls)
                                        1.06s GPU  (      89 calls)
     h_psi        :      0.87s CPU      3.55s WALL (      91 calls)
                                        3.55s GPU  (      91 calls)
     g_psi        :      0.00s CPU      0.00s WALL (      69 calls)
                                        0.00s GPU  (      69 calls)

     Called by h_psi:
     h_psi:calbec :      0.43s CPU      3.04s WALL (      91 calls)
                                        3.04s GPU  (      91 calls)
     vloc_psi     :      0.38s CPU      0.45s WALL (      91 calls)
                                        0.45s GPU  (      91 calls)
     add_vuspsi   :      0.03s CPU      0.05s WALL (      91 calls)
                                        0.05s GPU  (      91 calls)

     General routines
     calbec       :      0.44s CPU      3.04s WALL (      96 calls)
     fft          :      0.57s CPU      0.69s WALL (     175 calls)
                                        0.12s GPU  (     111 calls)
     ffts         :      0.03s CPU      0.04s WALL (      21 calls)
     fftw         :      0.48s CPU      0.62s WALL (    2205 calls)
                                        0.54s GPU  (    2205 calls)
 
     Parallel routines
 
     PWSCF        :      2.99s CPU      6.65s WALL

 
   This run was terminated on:  10: 3: 1  11May2023            

=------------------------------------------------------------------------------=
   JOB DONE.
=------------------------------------------------------------------------------=
