10.777356377984727 0.0 0.0 0.0 10.777356377984727 0.0 0.0 0.0 10.777356377984727
10.765828252500746 0.0 0.0 0.0 10.765828252500746 0.0 0.0 0.0 10.765828252500746
10.778431136894895 0.0 0.0 0.0 10.778431136894895 0.0 0.0 0.0 10.778431136894895
10.726229392822441 0.0 0.0 0.0 10.726229392822441 0.0 0.0 0.0 10.726229392822441
10.630839380067425 0.0 0.0 0.0 10.630839380067425 0.0 0.0 0.0 10.630839380067425
10.716578788073697 0.0 0.0 0.0 10.716578788073697 0.0 0.0 0.0 10.716578788073697
10.56897697687927 0.0 0.0 0.0 10.56897697687927 0.0 0.0 0.0 10.56897697687927
10.698966712225275 0.0 0.0 0.0 10.698966712225275 0.0 0.0 0.0 10.698966712225275
10.617939098082182 0.0 0.0 0.0 10.617939098082182 0.0 0.0 0.0 10.617939098082182
10.603957707060273 0.0 0.0 0.0 10.603957707060273 0.0 0.0 0.0 10.603957707060273
10.711166892763867 0.0 0.0 0.0 10.711166892763867 0.0 0.0 0.0 10.711166892763867
10.64400848407451 0.0 0.0 0.0 10.64400848407451 0.0 0.0 0.0 10.64400848407451
10.686592432385137 0.0 0.0 0.0 10.686592432385137 0.0 0.0 0.0 10.686592432385137
10.7148875377158 0.0 0.0 0.0 10.7148875377158 0.0 0.0 0.0 10.7148875377158
10.746305846930166 0.0 0.0 0.0 10.746305846930166 0.0 0.0 0.0 10.746305846930166
10.632122105620475 0.0 0.0 0.0 10.632122105620475 0.0 0.0 0.0 10.632122105620475
10.747813472796766 0.0 0.0 0.0 10.747813472796766 0.0 0.0 0.0 10.747813472796766
10.685795491509356 0.0 0.0 0.0 10.685795491509356 0.0 0.0 0.0 10.685795491509356
10.779418581565682 0.0 0.0 0.0 10.779418581565682 0.0 0.0 0.0 10.779418581565682
10.651906453909188 0.0 0.0 0.0 10.651906453909188 0.0 0.0 0.0 10.651906453909188
10.73575617010443 0.0 0.0 0.0 10.73575617010443 0.0 0.0 0.0 10.73575617010443
10.727929639192881 0.0 0.0 0.0 10.727929639192881 0.0 0.0 0.0 10.727929639192881
10.671203959166215 0.0 0.0 0.0 10.671203959166215 0.0 0.0 0.0 10.671203959166215
10.67402394450953 0.0 0.0 0.0 10.67402394450953 0.0 0.0 0.0 10.67402394450953
10.601330342220798 0.0 0.0 0.0 10.601330342220798 0.0 0.0 0.0 10.601330342220798
10.6849810877857 0.0 0.0 0.0 10.6849810877857 0.0 0.0 0.0 10.6849810877857
10.69093697726572 0.0 0.0 0.0 10.69093697726572 0.0 0.0 0.0 10.69093697726572
10.61029037071264 0.0 0.0 0.0 10.61029037071264 0.0 0.0 0.0 10.61029037071264
10.666427605683616 0.0 0.0 0.0 10.666427605683616 0.0 0.0 0.0 10.666427605683616
10.59197290164548 0.0 0.0 0.0 10.59197290164548 0.0 0.0 0.0 10.59197290164548
10.61937316831682 0.0 0.0 0.0 10.61937316831682 0.0 0.0 0.0 10.61937316831682
10.671625184224064 0.0 0.0 0.0 10.671625184224064 0.0 0.0 0.0 10.671625184224064
10.605853219820595 0.0 0.0 0.0 10.605853219820595 0.0 0.0 0.0 10.605853219820595
10.697443740219635 0.0 0.0 0.0 10.697443740219635 0.0 0.0 0.0 10.697443740219635
10.64591775544225 0.0 0.0 0.0 10.64591775544225 0.0 0.0 0.0 10.64591775544225
10.714620303225582 0.0 0.0 0.0 10.714620303225582 0.0 0.0 0.0 10.714620303225582
10.633185222632054 0.0 0.0 0.0 10.633185222632054 0.0 0.0 0.0 10.633185222632054
10.676720102386092 0.0 0.0 0.0 10.676720102386092 0.0 0.0 0.0 10.676720102386092
10.661996804918074 0.0 0.0 0.0 10.661996804918074 0.0 0.0 0.0 10.661996804918074
10.805670533694894 0.0 0.0 0.0 10.805670533694894 0.0 0.0 0.0 10.805670533694894
10.655767330821336 0.0 0.0 0.0 10.655767330821336 0.0 0.0 0.0 10.655767330821336
10.71196277528523 0.0 0.0 0.0 10.71196277528523 0.0 0.0 0.0 10.71196277528523
10.6882307650222 0.0 0.0 0.0 10.6882307650222 0.0 0.0 0.0 10.6882307650222
10.867477902453377 0.0 0.0 0.0 10.867477902453377 0.0 0.0 0.0 10.867477902453377
10.718081651345422 0.0 0.0 0.0 10.718081651345422 0.0 0.0 0.0 10.718081651345422
10.624463853061181 0.0 0.0 0.0 10.624463853061181 0.0 0.0 0.0 10.624463853061181
10.709531206012846 0.0 0.0 0.0 10.709531206012846 0.0 0.0 0.0 10.709531206012846
10.642139430174606 0.0 0.0 0.0 10.642139430174606 0.0 0.0 0.0 10.642139430174606
10.776958436724046 0.0 0.0 0.0 10.776958436724046 0.0 0.0 0.0 10.776958436724046
10.67700109548373 0.0 0.0 0.0 10.67700109548373 0.0 0.0 0.0 10.67700109548373
10.605850573934553 0.0 0.0 0.0 10.605850573934553 0.0 0.0 0.0 10.605850573934553
10.685996049671322 0.0 0.0 0.0 10.685996049671322 0.0 0.0 0.0 10.685996049671322
10.842937838593189 0.0 0.0 0.0 10.842937838593189 0.0 0.0 0.0 10.842937838593189
10.635589274689606 0.0 0.0 0.0 10.635589274689606 0.0 0.0 0.0 10.635589274689606
10.755569093962395 0.0 0.0 0.0 10.755569093962395 0.0 0.0 0.0 10.755569093962395
10.6321744941641 0.0 0.0 0.0 10.6321744941641 0.0 0.0 0.0 10.6321744941641
10.775921249395672 0.0 0.0 0.0 10.775921249395672 0.0 0.0 0.0 10.775921249395672
10.813357361823437 0.0 0.0 0.0 10.813357361823437 0.0 0.0 0.0 10.813357361823437
10.634506048944106 0.0 0.0 0.0 10.634506048944106 0.0 0.0 0.0 10.634506048944106
10.671215071887591 0.0 0.0 0.0 10.671215071887591 0.0 0.0 0.0 10.671215071887591
10.580278614518077 0.0 0.0 0.0 10.580278614518077 0.0 0.0 0.0 10.580278614518077
10.647259748842636 0.0 0.0 0.0 10.647259748842636 0.0 0.0 0.0 10.647259748842636
10.793392034929465 0.0 0.0 0.0 10.793392034929465 0.0 0.0 0.0 10.793392034929465
10.638629926928804 0.0 0.0 0.0 10.638629926928804 0.0 0.0 0.0 10.638629926928804
10.62417809736867 0.0 0.0 0.0 10.62417809736867 0.0 0.0 0.0 10.62417809736867
10.70997677322228 0.0 0.0 0.0 10.70997677322228 0.0 0.0 0.0 10.70997677322228
10.771431180782793 0.0 0.0 0.0 10.771431180782793 0.0 0.0 0.0 10.771431180782793
10.714268929559235 0.0 0.0 0.0 10.714268929559235 0.0 0.0 0.0 10.714268929559235
10.799478102002738 0.0 0.0 0.0 10.799478102002738 0.0 0.0 0.0 10.799478102002738
10.749032167907604 0.0 0.0 0.0 10.749032167907604 0.0 0.0 0.0 10.749032167907604
10.637736146623896 0.0 0.0 0.0 10.637736146623896 0.0 0.0 0.0 10.637736146623896
10.691138593782101 0.0 0.0 0.0 10.691138593782101 0.0 0.0 0.0 10.691138593782101
10.679879290319963 0.0 0.0 0.0 10.679879290319963 0.0 0.0 0.0 10.679879290319963
10.57864821953914 0.0 0.0 0.0 10.57864821953914 0.0 0.0 0.0 10.57864821953914
10.771638618248469 0.0 0.0 0.0 10.771638618248469 0.0 0.0 0.0 10.771638618248469
10.833969343266014 0.0 0.0 0.0 10.833969343266014 0.0 0.0 0.0 10.833969343266014
10.663406003823917 0.0 0.0 0.0 10.663406003823917 0.0 0.0 0.0 10.663406003823917
10.840735403052024 0.0 0.0 0.0 10.840735403052024 0.0 0.0 0.0 10.840735403052024
10.65515771867731 0.0 0.0 0.0 10.65515771867731 0.0 0.0 0.0 10.65515771867731
10.646951238530164 0.0 0.0 0.0 10.646951238530164 0.0 0.0 0.0 10.646951238530164
10.742083541984714 0.0 0.0 0.0 10.742083541984714 0.0 0.0 0.0 10.742083541984714
10.706792184782408 0.0 0.0 0.0 10.706792184782408 0.0 0.0 0.0 10.706792184782408
10.65136563480225 0.0 0.0 0.0 10.65136563480225 0.0 0.0 0.0 10.65136563480225
10.667431984025072 0.0 0.0 0.0 10.667431984025072 0.0 0.0 0.0 10.667431984025072
10.699378412093374 0.0 0.0 0.0 10.699378412093374 0.0 0.0 0.0 10.699378412093374
10.59584277457017 0.0 0.0 0.0 10.59584277457017 0.0 0.0 0.0 10.59584277457017
10.675001334813361 0.0 0.0 0.0 10.675001334813361 0.0 0.0 0.0 10.675001334813361
10.626123881963785 0.0 0.0 0.0 10.626123881963785 0.0 0.0 0.0 10.626123881963785
10.707828313756364 0.0 0.0 0.0 10.707828313756364 0.0 0.0 0.0 10.707828313756364
10.706974221742081 0.0 0.0 0.0 10.706974221742081 0.0 0.0 0.0 10.706974221742081
10.622668354793237 0.0 0.0 0.0 10.622668354793237 0.0 0.0 0.0 10.622668354793237
10.631771790308543 0.0 0.0 0.0 10.631771790308543 0.0 0.0 0.0 10.631771790308543
10.653591883317793 0.0 0.0 0.0 10.653591883317793 0.0 0.0 0.0 10.653591883317793
10.701402514915326 0.0 0.0 0.0 10.701402514915326 0.0 0.0 0.0 10.701402514915326
10.868088572951818 0.0 0.0 0.0 10.868088572951818 0.0 0.0 0.0 10.868088572951818
10.657495623583818 0.0 0.0 0.0 10.657495623583818 0.0 0.0 0.0 10.657495623583818
10.661288236636087 0.0 0.0 0.0 10.661288236636087 0.0 0.0 0.0 10.661288236636087
10.74752877545867 0.0 0.0 0.0 10.74752877545867 0.0 0.0 0.0 10.74752877545867
10.672824299778194 0.0 0.0 0.0 10.672824299778194 0.0 0.0 0.0 10.672824299778194
10.678110780089646 0.0 0.0 0.0 10.678110780089646 0.0 0.0 0.0 10.678110780089646
10.711291778585037 0.0 0.0 0.0 10.711291778585037 0.0 0.0 0.0 10.711291778585037
