1.6771937542547393 10.707292784171448 7.38386862053592 2.9410543367010082 2.130855793629628 7.84249902120106 9.064349468485945 1.1870934729658837 9.767043881686927 2.5619284940362617 6.647613519573893 10.354560687276386 0.6538341903257506 3.50449452814205 2.2034305114789774 2.4797619290105057 1.1169005508760692 3.0107838324665694 1.0391408468732717 7.3255738998874005 1.5949517477343378 4.586088459523841 10.228196183744515 9.830457846614989 6.618331442294909 4.978804548581227 1.0054217319734708 4.980582812383594 7.172675544952932 1.1219766857301001 2.262867631903563 4.145305361020644 0.7955348719834938 4.825507431460772 9.129477033078107 5.915669361163061 7.788094926204994 10.661844672325486 7.32423750769653 4.948520177159089 4.577369578214052 2.768433419594827 7.100316374231142 9.59653532643083 5.170458277050929 6.867988902790925 3.2515823060198823 10.083822717705031 4.628626685147747 3.523936879047934 9.499991767996843 5.055690208981769 10.669701365125038 2.7064205109959025 5.050635628840495 1.4685764668460888 4.936902186983622 8.890801698731257 3.7035954098689396 4.455025028611169 0.8244656074445561 10.049108852811544 2.301094914976275 1.1164586792645719 2.2252438807880184 4.365034102854996 7.817452444978623 7.67255088847662 0.486215044314592 7.193572838969844 6.274005683374675 6.433639886045385 10.082087563328177 0.7264821941984702 6.885803872883733 1.820705031783984 2.582308474947031 9.942165145472801 4.783184752964425 0.27290637367460485 7.581557668577293 1.9102217538595252 3.589614088815373 6.213372276392132 8.317026022523727 5.375184938807127 2.6216566030830526 10.48273578667976 4.462375185660954 6.4475857851984975 2.6859650885904878 5.813618573619924 3.241354594817175 3.7973476330010287 7.67473869182135 3.7630001982243915 7.24006635438447 1.0484848148529844 4.1634436518047915 7.052551130763914 3.8080064384588552 6.071844032436438 3.23608446754834 8.972558724214649 1.562188584345264 6.9465234987173 8.519123009323698 2.6830336476556758 3.34758699663497 5.142501814606437 5.675269649795733 7.70313702587734 1.2922050297203689 1.6513604310167098 7.03005878800306 2.1125666198561883 7.973476233262709 2.170613461308014 10.10912795048054 10.13548936418109 8.298747626106666 9.684898871373928 9.45284083384316 0.23838650119591975 5.377318855369968 3.872185595689755 9.614630507789467 9.728353172289962 4.041163766340177 0.6067845633220205 0.9232249903498569 0.33836372537193293 5.661409969493645 1.2379410403572155 0.6777911758183729 6.058684880298918 8.15935329871381 9.553910881955902 10.669572036848502 2.9339951682734284 8.368638782217896 9.02025930354361 10.081182265392426 1.3010640166630723 9.776689615645223 6.96593351755405 6.412063618576659 9.455804606847106 4.256387573208532 10.17565657140184 5.128555915453324 3.7549926224355485 4.897457062640198 6.273014166587901 6.580653804397475 4.173660585651121 9.835738751240202 7.881717821060547 8.78810426980544 9.677591823749653 7.4190997985355525 3.091463122312163 3.010482066487986 0.007604502660306023 5.3053907789032975 3.962370513860731 2.6280799074843317 1.8016829977768407 4.897661832411379 6.713355393479601 7.144816078715841 2.630731137153316 7.788687680805783 6.518781001431464 9.096498322561473 3.2300383706202904 1.4865530972845673 0.08935290625859577 8.989651611430132 5.9474841171908714 4.820248081548315 5.757727203443695 9.343989534425514 1.4647936147574163 8.302670583828252 8.692013360339327 10.00105262072211 6.538288016475617 0.19242862039327951 9.665478075180799 1.4300258630820375 4.74331931172226
3.0987498775737947 10.343463278498637 5.706513391864041 2.285294660643091 6.064326459664155 3.4687929262687502 1.5926643341902031 4.371669112664725 8.82400657642544 9.362201096596204 10.240940296050073 0.7576785373373228 8.490448919678208 5.564307566476758 3.778073640306592 5.150189216916065 0.6743714817366467 7.192596026354487 7.72062760465489 10.413376567170376 7.874988050139247 1.8530143588204284 10.285629249126204 2.7885217706497336 7.782229673915699 3.4900554370674395 2.6211992679493665 10.521756160188302 8.13795417103483 1.5532721686143025 3.687640682985586 8.085298505051847 9.814764218846578 7.176328859864957 6.411901224796142 0.558605453954681 3.533915421368128 2.3039303093481696 1.197762988060223 5.574707356568674 4.713527222994634 1.6273948961327702 5.900804294336921 0.7376788581926521 4.568317731524904 0.3439402215139424 0.7137248903308381 4.552427369024213 8.872948031661307 2.0553042716849177 7.995123927608902 6.16878729119817 0.8497037606568739 2.05863091261494 9.549095875059617 10.245343519805346 6.1808019555279605 10.655360088801837 2.856346488640488 3.974022480330358 6.407078133739021 8.338822994569988 6.819032551820962 3.625188113292829 1.0024568679831312 3.468222337371368 9.02678095156129 8.816513559961699 9.357539492962871 5.809563899896978 7.5253893092957895 3.2929546534206557 3.2622612770727764 7.737422296728791 5.247942937448771 0.4848250797746429 3.5576540726648913 1.4841663170615005 5.280014339812971 2.752402416862594 10.642990152139713 4.500794456725219 2.933203736535091 6.514295017305677 9.865320548320321 4.910025120259278 5.604087301869749 0.8348264625947431 6.6857515980550035 9.026813249046048 5.368283365655225 9.238361774207688 4.809461518552669 2.541952006182709 4.774817083236122 0.753055690685699 8.170434674872624 2.057177525800853 10.37314466699078 0.1397490633800617 8.69386924450921 3.81801486312337 1.5213622536738904 4.9956134548666595 6.401253820654419 6.945821711150664 10.134746166167405 0.33357703523808513 2.5903121066929424 2.853052145195223 4.830702497694853 5.494426575289776 0.41654173750033163 9.564577136086713 5.727409864502144 5.285181937374172 4.448343341479036 3.287916245798485 8.150001132849377 2.2885997699166087 9.033520360047357 7.6420908875528974 5.730725739603915 3.912097436221974 4.419630877529617 3.4619350936719075 8.265550767483468 10.17308328057456 4.047025561710566 8.115819628147689 7.862596581820617 2.6978089017941618 2.274421174108065 0.5088113451212145 0.6280956455760975 5.072298449509222 6.865045701772151 8.379141021375604 0.7257266356667259 2.0877201805531973 8.643775845650325 2.013091459106862 7.120098938902146 0.2789609119303236 0.22420913918658056 8.983362366218955 7.846254054533321 9.532258119672706 6.534039546320764 10.47546309870255 1.006463909258712 7.482821224385401 6.115098105702949 5.556932974123795 8.366835679682996 0.47909442939583674 8.38843193115751 6.652409827957008 8.062528778297809 7.90182725997273 4.022834745627197 7.135203395940405 1.8837185009965605 0.10996109318821737 7.864738981642865 8.845656657041218 1.2880559896139467 2.467872341977251 6.5622029530293045 5.143148365238929 9.307015460973886 0.12199621259168796 5.7840488869385505 2.6546917596428967 6.791988791250681 3.2368539223968744 4.9972390949327865 4.215349286438415 5.745862494126931 6.421353622001838 4.204680350640187 3.9297103312430646 8.872754246752763 3.395811376545048 10.303543587338364 9.547416405852227 9.303753415013377 4.195981561412165 0.8532801688023547 0.07530373887776698 1.5707128103833539 0.027730620412791424
1.1931831052854016 5.344388073349101 5.1869151944390675 10.751032364944908 4.285579669047368 7.310244571545088 7.471899481736238 9.23091788641521 1.836148857894593 0.25955647805067966 0.08110984999136146 7.920487007222666 9.487627780802637 3.7912700386782316 3.158285113301805 6.732240423397962 6.412498263721974 8.981677444805653 5.251596559691573 9.735758044005093 9.306226784768695 5.606616524478618 3.9350111963198624 6.5431112922388674 7.531924564737604 0.3823831679142791 10.660256417909979 8.40841580635876 8.05772877088875 10.6507390632161 4.522565034454277 7.905030736972358 4.079108042189009 6.090449519782692 5.339570114630909 0.01665914316518475 3.6294642304511653 5.1948804550492325 4.371128076980903 7.491095867591047 5.895974286779698 2.0483653885489166 3.4487638324411227 7.5634406973818855 6.3827605722152825 1.0391086657128303 6.740151791852443 7.567719734543233 9.807962754191152 6.404651565854316 1.459906162199003 6.836575636803105 7.6244142823233005 3.3744681066145064 3.6778486078246866 10.094895369486432 6.558384329159848 0.8420272080609345 2.4233577862326268 8.308424300701788 8.946518202437101 8.687825076720488 6.40942641084796 0.3213352117980201 0.12395411376051868 0.7888291833416761 3.3909159925294077 9.574695947526473 2.5138103803334486 6.16873326512996 9.443694895488653 5.579034519199304 4.2111977157716565 5.777519328585223 8.069164686324994 8.000850989779355 3.0347750709041263 9.069500101709073 5.919589829400635 3.1459869233746085 10.357102263753674 7.767832087030823 3.919705824105471 4.702564834440421 2.9867032680335757 0.8288354861924888 0.36374833832170156 7.720202199836885 4.7618462056933435 7.54162515276081 10.340740605287866 6.642305193991711 4.082664924464185 0.7619941233401488 1.378787689462732 5.678336205263515 6.2145523758929 8.437388229254735 7.831026028786439 4.760337225334178 1.5745671126332907 4.868380219050413 0.5686527812927555 9.621786913163566 4.080627800979312 4.296897021741108 3.3450861033353307 3.448591377542932 5.046224332809178 1.690004110109435 7.312130796994044 3.9607069761502194 6.521209520168697 0.017595788830980917 6.36187197267198 3.498344615670839 2.53699478570891 2.1673053761445518 4.586761370305623 9.355926130740917 8.800481238963313 9.730552061765973 8.709608286048152 1.5958437356975212 7.6500022778422885 2.5345588602719715 6.4782466936570335 0.5043723736785418 3.5776846472695225 8.133878386870911 6.371798907749059 5.187820582654566 2.2186646005118558 7.652955567973798 9.47931761039609 9.732858646029268 5.465688537363716 9.325520176503737 2.7452771889982666 0.4555223680799068 4.098056524127672 2.709341899587859 9.838347151566058 8.997629522888257 0.7192705779997248 3.152238413434007 3.8647681606007183 0.8632229928916384 8.788883647060013 6.327941471453034 0.36824617763512774 8.635916152365201 0.3217340137500852 9.496282861005563 10.614760660081146 2.6134893114874527 10.280370612490119 4.048012268359068 0.4756672558747634 5.4912010838647465 1.2546417196279764 1.216830983199749 7.111975330781906 0.8478540279335399 7.983142027421436 8.440416968404202 1.8248746189254008 2.163877835043019 1.6238137644977635 4.239728222991018 0.8990839111272014 9.25400528591044 2.135261100374563 6.509288575331291 8.378193085450908 0.0656309450356667 5.339473108750678 3.688400691907707 2.410908698269513 9.28322561272256 2.9953799050987757 5.894831773079187 2.006986991414377 5.048477024916789 9.034707325999175 0.7142790865402289 2.501479855112841 2.5022559021546975 2.099293475670745 10.121658213999341 2.1414694767094145 10.266886795137864
4.277577376940018 5.459618582258445 4.462733548718919 7.084545799206508 2.2189994318695354 0.47069376133053076 6.038180669477894 6.575049903047442 9.43897460338982 1.6315882054010071 8.254487817769832 8.866086691519174 0.7423784256213304 7.23918584836283 0.39791844014610905 9.868249029919967 10.20269286238817 7.958443886527931 4.654304005674728 2.107157037990576 8.55193688506219 7.499843948837808 3.821573186762958 7.452219490333676 4.532872362718585 7.674799476464134 8.000844671317758 2.3022671506460157 3.0652345735868693 9.033169166771168 2.6726438515801747 6.28648215369234 7.591660472440368 10.242465720976757 7.645270166945694 7.566292939926342 1.246066068564183 1.0665122063971533 9.547491866157005 7.527732145259146 8.886091109336787 6.631898918829401 3.4779906068520696 8.937577010422336 10.63840302655401 2.218109154829931 10.300805682644318 7.838900059944925 7.047508129113093 7.899042028150482 3.5876341237055005 5.729898110498784 8.182225210350385 0.34761135167083257 9.109475562671708 7.1191700676865395 10.479011257776671 1.7119169373238543 9.886000939565088 5.406866986104544 10.05447782463815 4.022024961656023 0.26087477030871314 4.300231173417659 9.53542485809008 5.067392552051106 9.75235212133052 9.772807040782633 2.1506197194902925 1.5719503699769142 4.980767523474672 0.4589635568665401 5.479451380405773 7.477211604818953 5.732665477682132 6.046922546433044 3.975108434291818 2.1526577030749285 0.030162157052616705 7.508435658581459 2.9197654505614112 4.589699926041758 0.6241024393525559 2.465852875115951 0.9860805026721349 9.739652265729418 0.5950021790098285 9.55047375792821 4.886194358918157 8.421859901215432 7.902592410079505 5.3938346173922636 1.1824058971177818 0.38364075620132315 8.000458527059617 5.507489744038611 7.769158116432794 1.604472297495952 2.7090379479100215 4.930697484668976 1.142407787711947 6.065178588859628 9.058397258303087 9.38220067121361 4.65446489911562 8.362243518250125 0.2833365672802226 10.013803962780568 2.7800777651786843 9.836177604035427 2.440603331125247 5.380812974909378 6.648846361270061 2.2461796971509473 3.7368681532478387 3.054551249111618 0.7527313822312826 4.473255979753278 10.094958614366663 8.478494392409534 10.17525516760133 1.7455758451585313 2.989303595715079 6.971598603700088 2.4394127196626436 5.68617799949364 1.5514096406896594 5.660660299768115 5.402297612383201 9.14224419346678 1.0377380234279678 5.413871213898056 3.818248055651183 5.1696671493116675 9.576753019940625 6.157209637050045 4.006761537230037 9.628356909549494 3.060472127736456 7.38565251072182 2.0878069201659244 8.113781140594785 5.652894509687712 5.5401403863103615 8.702565324425596 6.171025020507999 3.155034566063579 6.285634781570308 4.331895002585271 4.519957982529627 7.947245703041825 9.198578350237883 0.729851262313453 0.9359235814083579 3.6520236787506137 7.1642953147421435 0.3331942267439399 1.4516664335658036 6.814931297188524 3.258596310851279 2.3662598352035946 3.975505304779353 9.826309472994032 3.8545134372283156 5.271641412149231 6.490259059697181 10.188126642872719 3.2650749534045436 6.913119201050421 10.713808419185552 7.624472008153012 7.954110489853231 6.9897902887503145 7.929172006514919 10.058221278696246 1.5306758392733337 0.555978011232862 2.5784246525936223 4.667229112093079 2.928700399645632 3.678410203056957 3.6294556921081154 6.368216021665648 1.5794480043224972 1.0314331457908668 3.9051305137330443 0.019158118318520163 4.390760549493081 2.89669333113745 4.84330016757626 0.8314973025315957 0.004626222737124319
9.990618340081625 4.671616057176829 10.580034598670082 8.245874350185579 0.7362196457556853 2.2194109682160565 5.541484489450846 5.170978475376736 4.734295486161707 3.9659090466098137 7.7230177769557224 2.889993685471329 8.78836608375042 8.004022754289045 1.1402850935847921 6.990010770860693 2.6602825081468326 9.99140502219575 6.064489894432024 7.657701899804588 7.855212264646861 0.46477604536079575 1.3220086619476645 10.063067510456783 8.342466156792872 7.364471457184187 7.233010497410274 4.598847961620268 1.629229289192233 10.193763049795333 2.6594426718358073 5.248370986063627 4.239536221413369 1.4193765198297021 2.264751498172044 1.4149328289688339 3.11081748107409 1.3378911359814853 8.322512071276485 1.04031693239039 10.561749554936366 6.223846176739234 1.460804900893825 4.755174454704159 9.281466937555466 4.918294054151914 7.790778747164272 5.472043846620245 9.010040346503585 2.7915308511331447 8.142712684841404 8.088176478821659 6.420867522970023 3.390833790345066 1.3176819103199773 2.836244161565708 5.425693386923151 2.14274135460701 8.403391497280037 1.0692498248471816 9.261236450215199 5.066668679379514 7.612499570760541 5.6203227942934255 9.457811301192024 2.9801432034143014 1.1227229469289206 2.539898883006949 7.85996424984975 0.007725430977494998 7.008646632293952 3.761339804419176 2.21524367917907 5.730787846291706 1.5738319851827018 8.450890087630178 4.060980643185756 3.9135521626629814 6.8543187370135135 1.432909578360528 4.903453402377339 3.187593403076937 3.4662383340678837 0.25621917531869504 10.551543949131501 4.834608086552023 5.5424306341556715 9.472524382894038 0.6360133537591698 7.350949029492742 0.00017434576583310574 8.99034140113232 2.222366341563715 2.2534509159110323 10.227696689096508 3.794656855036307 5.030842750668688 7.700788691812001 0.28743982441007704 7.212174052225342 9.679634395696512 1.2167101978880968 2.165023593947631 7.9334765041629165 4.857389975343508 1.920737535833062 8.867916654831465 7.930542392494019 5.08010606035592 9.71408894612731 9.867864037759986 6.380055730589945 5.116761194538392 10.372137903753483 3.1476001853291233 0.2959115403120528 1.0312063030416723 6.196418611138659 1.0501961714262869 7.563757172202932 7.126415070946338 8.346484614078538 4.744660554557273 7.45937296033005 0.04417645304387019 9.749489641262935 7.0506490786845974 2.9698312892156356 2.479228682664904 8.511698488884164 10.413226097957445 5.008443572094885 8.978881356280608 8.92440893529714 8.975107408300683 3.7134053496544515 2.8174700992205093 5.116782456217153 4.15148097882827 9.757643495067446 7.543728670810885 4.940576293492534 3.123000423003647 7.35518010356601 4.891600016468565 5.52943974843323 8.578364482636568 7.305969948075678 3.4963236095134747 5.944265731882841 9.091483206994281 2.432771914574009 0.36114130766420843 4.346439942219327 0.4469885249100669 5.150365277818786 0.1950046760003908 5.417050514507157 2.107638322974027 10.142862590843569 8.710675909560887 5.856986540572486 8.347143726120102 6.46612300621097 9.968484932492323 10.27381327032724 0.23357761360702745 3.501192533949546 2.90746015457278 7.0163539908445 9.800305053499658 3.361141855956537 5.669256547959876 6.579883618417072 10.509807273725357 2.79085047741282 3.192175294849746 5.775075923149068 5.7535165808862905 2.0918302648158673 4.178377002459841 3.7801351284431353 2.2621363116845474 1.2322312233829953 6.37771694592633 7.4155101170478925 0.6293233665372934 9.661466291195977 9.869873266402818 4.73954712081546 1.0945405917323618 2.5734072887329216
2.9365354863503783 1.9859642312694534 4.5087647603486705 10.615060637214276 5.302734649599475 3.455539397056788 5.59049622321683 7.239659816334703 2.796748432638745 9.233104219598232 1.212902387234181 7.792185185490206 6.882776309534273 5.5452508275735815 7.212868369364519 5.301234328569144 1.5540110900585669 10.168382916748575 6.603877346574655 4.0147733445336256 1.1854893786942886 6.919137661362206 0.2800349203111538 3.2996453254266793 10.41119915892875 4.160422366842335 5.754309846571324 5.274860828171695 10.525877268539926 4.837377932306162 2.19404804159748 10.572569402319564 5.318852384096737 1.8031822634600683 2.7303806602042044 9.007530952688068 7.4110179111560015 10.275688020153558 7.818119306157345 8.01436129692455 7.026828561603558 2.426662100771408 1.1858108760579307 5.2554316708289175 8.993910181048426 5.540449800276525 7.0365592151431295 5.5913642660986635 4.873900032815917 0.210765098340803 7.923281093804712 10.309070163078406 10.266782543180668 4.737102904586157 8.75812401455323 2.522050368564052 5.923921139050166 3.546244519919043 8.201312013882495 4.0200137515609935 6.400251633022466 6.508617677727467 9.82471295159384 5.327950759487813 2.169978605639467 2.2164564078433426 3.3392109343122476 5.037595773803743 5.727486249864776 10.042870345982656 8.617994030320379 9.502840507694046 9.493860014669641 5.198215856679392 9.818786683524035 4.8907143449344055 5.644036250842046 0.8978156810229958 6.957095783429564 8.816197155005801 5.681887207121522 2.745630351819633 2.635024542147925 2.057604560467726 9.657491456184738 7.8718307990431695 3.7714105568352596 10.296296001163023 2.0846746384864003 9.853819179582247 7.99072052411806 9.624816607459902 10.520658294670133 6.086448772950092 3.3966410800375346 8.005423670215297 2.2296806660678254 10.584314772671291 10.355387216600462 8.286401649459801 4.661047344927198 2.677269295730511 1.7800880361717695 6.739913597710462 5.263104741241178 3.3884000309495055 8.76017088110175 6.589002735216808 3.2475306027802766 7.5480293709615225 8.889273505761675 8.242377943798395 7.124478027520486 0.2304503819166156 3.3856994530949116 10.317632709530077 2.8052573961964757 7.42426360253806 4.394451014416289 4.87516458911291 7.745364452765112 1.1251764732750098 0.5917041095468223 3.6675776249576133 3.5620514736314517 10.16039906555146 6.421063229028905 1.7597586862107937 6.487838231457392 2.2402793624892303 0.38117906257087214 8.058406435743533 4.283298659226388 5.377332754543255 8.379785917019076 0.45219461522580007 3.7452728211711483 1.3243762397877237 5.54543300941298 8.93459391745644 9.538473132164391 7.9601889911508374 3.1638234058666335 9.606716305886845 5.189278229970139 3.2539176837379693 4.716323458316082 8.945803458868763 1.4003782165527425 4.013605237445725 4.427811724183561 10.449382329150655 0.39302195378957233 0.7314300787593636 7.427885806168429 7.535565989830994 1.9128021478832744 2.9849851390512594 6.354856205276186 1.364263346036934 7.485541000048266 2.7453088544559914 10.606980336808068 10.689283661900474 0.44578288613689565 9.317647309657346 2.421743191107682 1.7880075878961559 2.024168834648936 5.568055707234603 0.5578943751283286 1.7119734613947732 8.151672820936138 0.014702074439358304 9.32791379213632 5.6894852614822655 7.2993511601842735 9.065400478143665 7.898472213910321 6.176092954512329 6.322727902069541 9.338341023297115 1.7365251433982498 10.67695959629419 10.105262267686822 7.158503165172621 0.9123848698853819 10.10804857817172 2.47872324052387 3.525240025494419 4.60439950945344 3.224447092070766
4.228351757094043 0.8694125012996702 5.513116598403487 5.180310082378536 0.8304108624595904 1.8306630711422354 4.68136981725402 6.022689254366744 6.308590650568306 1.789887957965435 7.782962938842964 5.744429228519467 8.29812658362699 0.8333067621512553 4.956691667501724 3.3522258416186594 0.8347547119970877 9.900573734907471 2.9430690359127323 3.5469275354867293 3.8368240049855507 10.08735926501986 7.687229145386391 6.384571026055091 7.153305566468404 0.6572244350233536 10.16067625830847 1.5735938441336006 7.414348728820346 9.896811179103702 0.053671378883988305 2.7709215389133224 6.299068002312137 5.328381449824614 2.206432478578201 9.748834932450416 7.049032039614513 5.274870719390675 3.0230339157198003 6.040286601033248 0.4366615113905578 4.0266639694442565 5.567166346663249 5.84249876588793 0.9929448180008306 6.556073815458911 7.372231355567481 9.666671705432156 9.982303633869678 10.548134954280865 9.12695632713084 1.5973423354006484 1.6139144913003953 3.9628907623657663 4.593383083921499 9.944847179463618 7.752756802643043 5.309272739450417 8.48466902726891 4.729374110683005 6.7754857774989246 9.410395151696788 8.345317065828755 1.9380967221122132 2.1078767682688015 0.934021714457031 5.845563769211225 7.898397305384439 2.545728346466956 1.7247407838799511 0.5408536571217267 8.104217563032186 0.24842380384154725 5.424971330416314 0.7870410654349662 2.9544623930938076 6.144898335150399 4.044578385420067 1.1557704773066324 0.3034395565969946 5.708293896235517 5.504967917154314 9.186237718994155 0.5985782386763482 3.0564741588746465 9.26337011297142 4.388545741132603 3.2700097697155153 8.853705996370602 1.1244440295471625 8.649492223223342 7.08348690455914 4.237842698419281 6.655527888811345 4.213301533878967 10.008049661785357 0.6075660966974863 9.860496174211145 1.6665691345992075 9.885449528853558 2.3069223116743687 3.607170704254941 3.2706227703801742 6.484743789841953 1.6260371078928755 4.261760293317959 6.724976636526419 8.570108637150001 2.5713475466589113 4.4582270063411675 0.7504237878008704 3.816320189650405 4.363328162065769 9.279403251045347 8.328174185172259 8.425176255866056 2.1523404544105325 7.957319352030541 5.43253871793176 8.133102577109998 8.623281160320682 6.886650277341741 0.2531809003788406 8.52913271341064 1.866227678669434 7.1254880190652585 5.742526812663629 1.7875627830305216 7.324766079964316 8.431063176042178 4.197648878976209 4.82076405460208 0.2698925667746821 5.131069218643256 5.638549217165091 6.889662435780151 7.58969862584375 6.479765801685843 8.677225218810673 2.6912948663695144 9.417856849442465 3.762376131160413 3.810729200829636 6.32239373450011 2.7263944389097303 8.557838054879845 8.182565389361791 1.9391747577638547 2.880648657887283 8.02522502910699 5.609167461169366 3.2438409827207626 4.178857237911318 4.54864460437837 3.2131698115338585 1.798374846477869 8.554160050891891 4.162538737459016 1.2679178920082985 8.100497283136326 0.3609855224407068 1.894415140266771 2.8854469734347865 0.33861733956683954 2.3552965192975455 6.7298066590048515 3.9920188629140463 6.5240920911268745 0.5047658852341724 7.127538400598772 3.2367703371232306 10.158382790304486 8.657260421301347 10.294542920697623 0.6159895713480591 4.51068083907742 3.1537615919468203 10.041521611871133 6.160868059362464 8.31285973753276 10.058548233780886 1.710155595651858 0.7973616714528889 0.20425287836207573 4.128200131261135 9.302084275637728 8.77447037597494 9.698082705007442 7.070603321624325 9.988010881437193 9.754468197179092 4.1449413907925114
5.132240837020903 2.4645283800945164 3.9266598699539346 5.484183347019553 9.276153925033285 9.725478430046609 1.5997522986787718 0.674494958438818 5.130218732312293 1.5578230481335613 7.966910669491566 2.2297823514615818 2.859577026976723 4.890315801724065 9.904568433842547 0.5700741132241706 2.0636060004872987 8.993059265827803 3.5174350921780304 3.1496688104119985 2.2022860070111627 8.190850741745152 1.0668303473628036 3.0509708424917203 9.192295423942863 5.435577941245914 8.746073619276084 9.266396467391735 2.8978151340062155 4.269711538614726 3.9179188141500467 7.939681799208953 1.8053650409543174 6.146823850341225 4.917726554440787 5.764079015178079 4.811229039787296 0.18200868191503394 4.135525098109997 6.588059936520109 1.4075132647935082 9.66605636892691 5.430485233090895 8.397126819956856 6.072380439957563 4.866178932821285 6.971018751017501 3.9264030947528417 0.5785616035169788 5.648583669519607 10.696570143681736 3.2049289734806425 6.858112555303387 7.646433820593569 8.215030406514781 10.038294818778652 7.05847210492323 7.785006837450311 7.664247600169425 4.5141401321222245 4.481155217748434 10.116001414009544 2.018135391960341 0.9052855790782431 9.307801468568046 3.8477656894179852 7.945191767065747 8.326128476854528 2.111483876524507 10.472523081761027 2.5785579673134134 0.48087147826099236 0.665614816067671 5.904674136743432 7.297412128507356 0.08930641494028682 0.5445763357555953 7.236181942013291 1.0743260434413888 1.121315905241482 2.1838730852994233 7.113593181424614 10.089211201362131 4.685794354053167 5.896853192076795 2.4907943433730293 6.147080625542319 10.658332036652244 7.8901562822980615 0.6775441639518022 5.322693143465226 5.293035607738937 1.1073644526487403 4.261045375577823 2.8701690040218257 10.539509312346269 7.574600958087689 8.128507862713015 8.981140616910384 7.652007982250639 6.854934962189856 0.36979266606132705 1.974526403641311 3.688436677139527 7.959453489693145 8.154517050790435 1.8544412012632947 6.446127444115729 3.4236051541118147 5.293377974673728 5.549543334664538 0.8598331587946965 2.7359076707501107 3.7450984048474716 2.527470401262538 8.319195546425007 5.5812443730328605 1.9894942580717143 0.1342335159582632 9.696580520956887 9.080566114567093 0.5784021889129667 10.23815151696302 8.638912768686435 2.990917542336 8.822539134368357 6.701169412601754 10.169967002106008 0.998352680817877 8.523021561259611 4.260542524142349 0.7064987775650975 2.960478982039719 1.0645557470397846 1.1765011755431403 10.307652004725636 6.103493035156713 4.955932564570143 4.538105817557609 7.115561791299664 10.33652851588193 3.808981935086169 10.312701917013806 6.445164537111628 9.805934659722544 10.314948700023374 2.240898577875584 9.80966859910511 9.151211391767918 9.351421155853789 2.280056796042328 8.332997213483777 9.687379409584375 8.573221113073371 5.152697261374678 3.1483207406062585 6.220454139254761 4.8361790301602054 3.329015589409031 9.974978333775702 8.629829345947755 5.381376975881781 8.532597136467052 4.873967780587785 6.225557546376491 4.162422300424531 0.25188684320259086 8.637340020579737 6.927709333766412 2.602801825883316 1.5629799500888537 1.64431349503519 6.32045738111393 3.8278121164996852 6.255439760403737 4.328834028666483 9.443517861312625 2.8086713433599546 3.21953306304283 5.39796037428573 4.3450322642687915 2.6571418778147082 7.807100203711056 0.8570225402393948 8.741344675989279 7.603477469243985 5.944185420811679 6.273082356512196 7.807431871679135 1.6349305012285686 4.843176154390001 1.9998722557825728