An instance of this daemon is already running

     Program PWSCF v.7.1 starts on 10May2023 at 11: 3:43 

     This program is part of the open-source Quantum ESPRESSO suite
     for quantum simulation of materials; please cite
         "P. Giannozzi et al., J. Phys.:Condens. Matter 21 395502 (2009);
         "P. Giannozzi et al., J. Phys.:Condens. Matter 29 465901 (2017);
         "P. Giannozzi et al., J. Chem. Phys. 152 154105 (2020);
          URL http://www.quantum-espresso.org", 
     in publications or presentations arising from this work. More details at
     http://www.quantum-espresso.org/quote

     Parallel version (MPI & OpenMP), running on       4 processor cores
     Number of MPI processes:                 4
     Threads/MPI process:                     1

     MPI processes distributed on     1 nodes
     753552 MiB available memory on the printing compute node when the environment starts
 
     Reading input from pw-si-60.in
Warning: card &CELL ignored
Warning: card / ignored

     Current dimensions of program PWSCF are:
     Max number of different atomic species (ntypx) = 10
     Max number of k-points (npk) =  40000
     Max angular momentum in pseudopotentials (lmaxx) =  4

     IMPORTANT: XC functional enforced from input :
     Exchange-correlation= PBE
                           (   1   4   3   4   0   0   0)
     Any further DFT definition will be discarded
     Please, verify this is what you really want


     gamma-point specific algorithms are used
 
     K-points division:     npool     =       2
     R & G space division:  proc/nbgrp/npool/nimage =       2
     Subspace diagonalization in iterative solution of the eigenvalue problem:
     a serial algorithm will be used

     Message from routine divide_et_impera:
     suboptimal parallelization: some nodes have no k-points
 
     Parallelization info
     --------------------
     sticks:   dense  smooth     PW     G-vecs:    dense   smooth      PW
     Min        1904    1904    502                88752    88752   12054
     Max        1905    1905    503                88757    88757   12057
     Sum        3809    3809   1005               177509   177509   24111
 
     Using Slab Decomposition
 


     bravais-lattice index     =            0
     lattice parameter (alat)  =      19.9938  a.u.
     unit-cell volume          =    7992.5975 (a.u.)^3
     number of atoms/cell      =           64
     number of atomic types    =            1
     number of electrons       =       256.00
     number of Kohn-Sham states=          154
     kinetic-energy cutoff     =      30.0000  Ry
     charge density cutoff     =     120.0000  Ry
     scf convergence threshold =      1.0E-06
     mixing beta               =       0.5000
     number of iterations used =            8  plain     mixing
     Exchange-correlation= PBE
                           (   1   4   3   4   0   0   0)

     GPU acceleration is ACTIVE.
     GPU-aware MPI enabled

     Message from routine print_cuda_info:
     High GPU oversubscription detected. Are you sure this is what you want?

     celldm(1)=  19.993829  celldm(2)=   0.000000  celldm(3)=   0.000000
     celldm(4)=   0.000000  celldm(5)=   0.000000  celldm(6)=   0.000000

     crystal axes: (cart. coord. in units of alat)
               a(1) = (   1.000000   0.000000   0.000000 )  
               a(2) = (   0.000000   1.000000   0.000000 )  
               a(3) = (   0.000000   0.000000   1.000000 )  

     reciprocal axes: (cart. coord. in units 2 pi/alat)
               b(1) = (  1.000000  0.000000  0.000000 )  
               b(2) = (  0.000000  1.000000  0.000000 )  
               b(3) = (  0.000000  0.000000  1.000000 )  


     PseudoPot. # 1 for Si read from file:
     /home/ppiaggi/pseudos/Si_ONCV_PBE_sr.upf
     MD5 check sum: 8553c464762ac42b85b1eed164b4d029
     Pseudo is Norm-conserving, Zval =  4.0
     Generated using ONCVPSP code by D. R. Hamann
     Using radial grid of 1510 points,  4 beta functions with: 
                l(1) =   0
                l(2) =   0
                l(3) =   1
                l(4) =   1

     atomic species   valence    mass     pseudopotential
        Si             4.00    28.08500     Si( 1.00)

     No symmetry found



   Cartesian axes

     site n.     atom                  positions (alat units)
         1           Si  tau(   1) = (   0.3831950   0.3814960   0.1072430  )
         2           Si  tau(   2) = (   0.9131390   0.9131800   0.0920289  )
         3           Si  tau(   3) = (   0.1466280   0.9569710   0.0602164  )
         4           Si  tau(   4) = (   0.0424216   0.3496460   0.3654930  )
         5           Si  tau(   5) = (   0.7079590   0.9739420   0.1768760  )
         6           Si  tau(   6) = (   0.4639340   0.5869320   0.8869700  )
         7           Si  tau(   7) = (   0.7740570   0.3672320   0.1720400  )
         8           Si  tau(   8) = (   0.8852820   0.7282740   0.8282530  )
         9           Si  tau(   9) = (   0.8489380   0.3657150   0.7190010  )
        10           Si  tau(  10) = (   0.1249550   0.0938545   0.8847020  )
        11           Si  tau(  11) = (   0.8775230   0.2928870   0.4761900  )
        12           Si  tau(  12) = (   0.0921291   0.1632610   0.2400860  )
        13           Si  tau(  13) = (   0.2984940   0.1775250   0.5565830  )
        14           Si  tau(  14) = (   0.1512130   0.0279773   0.4250950  )
        15           Si  tau(  15) = (   0.4670880   0.3854150   0.3701780  )
        16           Si  tau(  16) = (   0.2789840   0.1667380   0.1236640  )
        17           Si  tau(  17) = (   0.3567090   0.6863130   0.5371140  )
        18           Si  tau(  18) = (   0.0544642   0.6971680   0.0502532  )
        19           Si  tau(  19) = (   0.7799150   0.9708670   0.6872410  )
        20           Si  tau(  20) = (   0.5366520   0.8317470   0.8415020  )
        21           Si  tau(  21) = (   0.5963700   0.4345040   0.7692320  )
        22           Si  tau(  22) = (   0.2725120   0.9406200   0.7164670  )
        23           Si  tau(  23) = (   0.6852170   0.3987510   0.3960520  )
        24           Si  tau(  24) = (   0.3242710   0.7030650   0.7521160  )
        25           Si  tau(  25) = (   0.5920070   0.3607730   0.0067546  )
        26           Si  tau(  26) = (   0.0694135   0.9011980   0.6149630  )
        27           Si  tau(  27) = (   0.6969090   0.7881050   0.9770450  )
        28           Si  tau(  28) = (   0.1382750   0.8669050   0.2750410  )
        29           Si  tau(  29) = (   0.3778200   0.4813800   0.5626670  )
        30           Si  tau(  30) = (   0.5258130   0.7975590   0.2194780  )
        31           Si  tau(  31) = (   0.8869550   0.0503315   0.4924380  )
        32           Si  tau(  32) = (   0.1891560   0.3638510   0.5336660  )
        33           Si  tau(  33) = (   0.0481305   0.4931150   0.2087720  )
        34           Si  tau(  34) = (   0.6155230   0.8385820   0.6314670  )
        35           Si  tau(  35) = (   0.7235050   0.1555770   0.7709080  )
        36           Si  tau(  36) = (   0.9301950   0.2271920   0.9052100  )
        37           Si  tau(  37) = (   0.6169480   0.1067580   0.4873680  )
        38           Si  tau(  38) = (   0.6145210   0.6601480   0.4342040  )
        39           Si  tau(  39) = (   0.5231230   0.2660740   0.6483960  )
        40           Si  tau(  40) = (   0.0831388   0.4220450   0.7362920  )
        41           Si  tau(  41) = (   0.4584580   0.0182639   0.9452420  )
        42           Si  tau(  42) = (   0.3801790   0.1930880   0.7926140  )
        43           Si  tau(  43) = (   0.3496150   0.8591830   0.0723471  )
        44           Si  tau(  44) = (   0.4408400   0.9347340   0.5450450  )
        45           Si  tau(  45) = (   0.9052170   0.4888220   0.9861220  )
        46           Si  tau(  46) = (   0.8518730   0.5874910   0.4887350  )
        47           Si  tau(  47) = (   0.1065400   0.6200540   0.8099360  )
        48           Si  tau(  48) = (   0.6389580   0.1764150   0.2747730  )
        49           Si  tau(  49) = (   0.8904510   0.1783660   0.1137270  )
        50           Si  tau(  50) = (   0.6518760   0.1392490   0.9838370  )
        51           Si  tau(  51) = (   0.8399520   0.6288430   0.2421610  )
        52           Si  tau(  52) = (   0.0799035   0.6679280   0.5513370  )
        53           Si  tau(  53) = (   0.7347430   0.9022500   0.3749980  )
        54           Si  tau(  54) = (   0.2866750   0.4046700   0.8811190  )
        55           Si  tau(  55) = (   0.3927370   0.9411440   0.3306160  )
        56           Si  tau(  56) = (   0.2942380   0.6514150   0.0426252  )
        57           Si  tau(  57) = (   0.4136910   0.6106650   0.2485090  )
        58           Si  tau(  58) = (   0.7381690   0.5995110   0.6778100  )
        59           Si  tau(  59) = (   0.9890250   0.9442710   0.8144270  )
        60           Si  tau(  60) = (   0.6520410   0.6049050   0.1112020  )
        61           Si  tau(  61) = (   0.4029650   0.1603790   0.3091460  )
        62           Si  tau(  62) = (   0.9333440   0.8076480   0.3204400  )
        63           Si  tau(  63) = (   0.1909180   0.6257850   0.3464090  )
        64           Si  tau(  64) = (   0.1163360   0.3401660   0.0154519  )

     number of k points=     1  Fermi-Dirac smearing, width (Ry)=  0.0100
                       cart. coord. in units 2pi/alat
        k(    1) = (   0.0000000   0.0000000   0.0000000), wk =   2.0000000

     Dense  grid:    88755 G-vectors     FFT dimensions: (  72,  72,  72)

     Estimated max dynamical RAM per process >     142.74 MB

     Estimated total dynamical RAM >     549.30 MB

     Initial potential from superposition of free atoms

     starting charge     255.9608, renormalised to     256.0000
     Starting wfcs are  256 randomized atomic wfcs

     total cpu time spent up to now is        5.0 secs

     Self-consistent Calculation

     iteration #  1     ecut=    30.00 Ry     beta= 0.50
     Davidson diagonalization with overlap
     ethr =  1.00E-02,  avg # of iterations =  3.0

     Threshold (ethr) on eigenvalues was too large:
     Diagonalizing with lowered threshold

     Davidson diagonalization with overlap
     ethr =  4.55E-04,  avg # of iterations =  4.0

     total cpu time spent up to now is        5.3 secs

     total energy              =    -501.22705907 Ry
     estimated scf accuracy    <       1.38245268 Ry

     iteration #  2     ecut=    30.00 Ry     beta= 0.50
     Davidson diagonalization with overlap
     ethr =  5.40E-04,  avg # of iterations =  4.0

     total cpu time spent up to now is        5.4 secs

     total energy              =    -500.59601291 Ry
     estimated scf accuracy    <       7.63733765 Ry

     iteration #  3     ecut=    30.00 Ry     beta= 0.50
     Davidson diagonalization with overlap
     ethr =  5.40E-04,  avg # of iterations =  4.0

     total cpu time spent up to now is        5.5 secs

     total energy              =    -501.35156708 Ry
     estimated scf accuracy    <       1.92330156 Ry

     iteration #  4     ecut=    30.00 Ry     beta= 0.50
     Davidson diagonalization with overlap
     ethr =  5.40E-04,  avg # of iterations =  2.0

     total cpu time spent up to now is        5.6 secs

     total energy              =    -501.46184048 Ry
     estimated scf accuracy    <       0.44255587 Ry

     iteration #  5     ecut=    30.00 Ry     beta= 0.50
     Davidson diagonalization with overlap
     ethr =  1.73E-04,  avg # of iterations =  2.0

     total cpu time spent up to now is        5.7 secs

     total energy              =    -501.48604035 Ry
     estimated scf accuracy    <       0.42950783 Ry

     iteration #  6     ecut=    30.00 Ry     beta= 0.50
     Davidson diagonalization with overlap
     ethr =  1.68E-04,  avg # of iterations =  2.0

     total cpu time spent up to now is        5.8 secs

     total energy              =    -501.52400194 Ry
     estimated scf accuracy    <       0.08477166 Ry

     iteration #  7     ecut=    30.00 Ry     beta= 0.50
     Davidson diagonalization with overlap
     ethr =  3.31E-05,  avg # of iterations =  2.0

     total cpu time spent up to now is        5.9 secs

     total energy              =    -501.53438754 Ry
     estimated scf accuracy    <       0.00928885 Ry

     iteration #  8     ecut=    30.00 Ry     beta= 0.50
     Davidson diagonalization with overlap
     ethr =  3.63E-06,  avg # of iterations = 11.0

     total cpu time spent up to now is        6.0 secs

     total energy              =    -501.53448420 Ry
     estimated scf accuracy    <       0.02141562 Ry

     iteration #  9     ecut=    30.00 Ry     beta= 0.50
     Davidson diagonalization with overlap
     ethr =  3.63E-06,  avg # of iterations =  3.0

     total cpu time spent up to now is        6.2 secs

     total energy              =    -501.53644342 Ry
     estimated scf accuracy    <       0.00214166 Ry

     iteration # 10     ecut=    30.00 Ry     beta= 0.50
     Davidson diagonalization with overlap
     ethr =  8.37E-07,  avg # of iterations =  2.0

     total cpu time spent up to now is        6.2 secs

     total energy              =    -501.53662156 Ry
     estimated scf accuracy    <       0.00057460 Ry

     iteration # 11     ecut=    30.00 Ry     beta= 0.50
     Davidson diagonalization with overlap
     ethr =  2.24E-07,  avg # of iterations =  3.0

     total cpu time spent up to now is        6.4 secs

     total energy              =    -501.53666169 Ry
     estimated scf accuracy    <       0.00043342 Ry

     iteration # 12     ecut=    30.00 Ry     beta= 0.50
     Davidson diagonalization with overlap
     ethr =  1.69E-07,  avg # of iterations =  2.0

     total cpu time spent up to now is        6.4 secs

     total energy              =    -501.53670180 Ry
     estimated scf accuracy    <       0.00024467 Ry

     iteration # 13     ecut=    30.00 Ry     beta= 0.50
     Davidson diagonalization with overlap
     ethr =  9.56E-08,  avg # of iterations =  2.0

     total cpu time spent up to now is        6.5 secs

     total energy              =    -501.53672173 Ry
     estimated scf accuracy    <       0.00002781 Ry

     iteration # 14     ecut=    30.00 Ry     beta= 0.50
     Davidson diagonalization with overlap
     ethr =  1.09E-08,  avg # of iterations =  4.0

     total cpu time spent up to now is        6.6 secs

     total energy              =    -501.53672525 Ry
     estimated scf accuracy    <       0.00002790 Ry

     iteration # 15     ecut=    30.00 Ry     beta= 0.50
     Davidson diagonalization with overlap
     ethr =  1.09E-08,  avg # of iterations =  2.0

     total cpu time spent up to now is        6.7 secs

     total energy              =    -501.53672676 Ry
     estimated scf accuracy    <       0.00001008 Ry

     iteration # 16     ecut=    30.00 Ry     beta= 0.50
     Davidson diagonalization with overlap
     ethr =  3.94E-09,  avg # of iterations =  3.0

     total cpu time spent up to now is        6.8 secs

     total energy              =    -501.53672776 Ry
     estimated scf accuracy    <       0.00000860 Ry

     iteration # 17     ecut=    30.00 Ry     beta= 0.50
     Davidson diagonalization with overlap
     ethr =  3.36E-09,  avg # of iterations =  2.0

     total cpu time spent up to now is        6.9 secs

     total energy              =    -501.53672825 Ry
     estimated scf accuracy    <       0.00000189 Ry

     iteration # 18     ecut=    30.00 Ry     beta= 0.50
     Davidson diagonalization with overlap
     ethr =  7.38E-10,  avg # of iterations =  3.0

     total cpu time spent up to now is        7.0 secs

     total energy              =    -501.53672843 Ry
     estimated scf accuracy    <       0.00000175 Ry

     iteration # 19     ecut=    30.00 Ry     beta= 0.50
     Davidson diagonalization with overlap
     ethr =  6.83E-10,  avg # of iterations =  1.0

     total cpu time spent up to now is        7.1 secs

     End of self-consistent calculation

          k = 0.0000 0.0000 0.0000 ( 11060 PWs)   bands (ev):

    -5.2648  -4.2374  -4.1885  -4.1364  -4.0013  -3.9701  -3.8787  -3.2384
    -3.1569  -3.0735  -3.0104  -2.9474  -2.8723  -2.8098  -2.7984  -2.7375
    -2.6567  -2.5108  -2.3875  -2.0809  -1.8252  -1.7593  -1.7084  -1.5618
    -1.5125  -1.3530  -1.1899  -0.8814  -0.7360  -0.6869  -0.4639  -0.1818
    -0.1235  -0.0476  -0.0370   0.1604   0.2970   0.3138   0.3980   0.5416
     0.5746   0.6366   0.6621   0.7057   0.7636   0.9630   1.0085   1.0871
     1.1556   1.3687   1.3964   1.5041   1.5888   1.6936   1.7706   1.8869
     1.9288   1.9892   2.0549   2.1866   2.3587   2.3802   2.5798   2.6173
     2.6881   2.7928   2.8389   2.9331   3.0087   3.0497   3.0723   3.1258
     3.2368   3.2552   3.3820   3.4562   3.5160   3.5827   3.6350   3.7859
     3.9424   4.2217   4.3395   4.4139   4.5640   4.6289   4.7532   4.7959
     4.8594   4.9638   5.0127   5.2030   5.2659   5.3090   5.3721   5.4177
     5.4818   5.5296   5.5911   5.6398   5.7021   5.7464   5.7935   5.8814
     5.9393   5.9492   6.0563   6.0845   6.1239   6.2277   6.2386   6.2928
     6.3410   6.4598   6.4702   6.5410   6.6104   6.6416   6.7302   6.7456
     6.8567   6.8714   6.9704   7.0405   7.0934   7.1613   7.2663   7.3210
     7.3449   7.3804   7.4668   7.5342   7.5702   7.6904   7.6949   7.8057
     7.8861   7.9318   7.9548   8.0329   8.1089   8.2188   8.2671   8.3460
     8.4176   8.4700   8.5272   8.5513   8.6640   8.7610   8.7755   8.8502
     9.0110   9.0828

     the Fermi energy is     7.3199 ev

!    total energy              =    -501.53672853 Ry
     estimated scf accuracy    <       0.00000006 Ry
     smearing contrib. (-TS)   =      -0.14387124 Ry
     internal energy E=F+TS    =    -501.39285729 Ry

     The total energy is F=E-TS. E is the sum of the following terms:
     one-electron contribution =     195.15708283 Ry
     hartree contribution      =      22.49280059 Ry
     xc contribution           =    -151.60422711 Ry
     ewald contribution        =    -567.43851360 Ry

     convergence has been achieved in  19 iterations

     Forces acting on atoms (cartesian axes, Ry/au):

     atom    1 type  1   force =     0.00200547   -0.00184429   -0.01041420
     atom    2 type  1   force =     0.00597969   -0.01733618   -0.00414859
     atom    3 type  1   force =    -0.00866856    0.00148066    0.03302745
     atom    4 type  1   force =     0.04978187   -0.02931702   -0.01706286
     atom    5 type  1   force =    -0.00415890    0.03608021   -0.06326281
     atom    6 type  1   force =    -0.02220272    0.01466851    0.01428382
     atom    7 type  1   force =    -0.00901791   -0.00385642    0.02150554
     atom    8 type  1   force =    -0.01241003    0.00460673    0.02195414
     atom    9 type  1   force =     0.01563819   -0.01557843   -0.02363052
     atom   10 type  1   force =     0.03389042    0.03361375   -0.01061953
     atom   11 type  1   force =    -0.07874557   -0.02318774    0.07875298
     atom   12 type  1   force =    -0.03145898    0.01569157    0.01829135
     atom   13 type  1   force =     0.01340565   -0.03996611   -0.01888418
     atom   14 type  1   force =     0.00162236    0.01507675    0.03973570
     atom   15 type  1   force =    -0.01781005    0.01279841   -0.01140514
     atom   16 type  1   force =    -0.00607546    0.02270029   -0.01725401
     atom   17 type  1   force =     0.00182692    0.06821075   -0.02414839
     atom   18 type  1   force =    -0.00102152   -0.00835859   -0.00684468
     atom   19 type  1   force =     0.06568102    0.00876463   -0.03121020
     atom   20 type  1   force =    -0.03615633   -0.00184101   -0.01261841
     atom   21 type  1   force =     0.01312519    0.02693888    0.03057507
     atom   22 type  1   force =     0.01429018   -0.00684088   -0.00370768
     atom   23 type  1   force =     0.04889536    0.00747508   -0.03474915
     atom   24 type  1   force =    -0.03453975    0.03759018    0.01176743
     atom   25 type  1   force =     0.00967921    0.00503237    0.00452720
     atom   26 type  1   force =     0.02941276   -0.02803964   -0.05555692
     atom   27 type  1   force =     0.06751986   -0.00727398    0.02225721
     atom   28 type  1   force =     0.04093931   -0.04342812   -0.00548080
     atom   29 type  1   force =     0.00737448   -0.09313324   -0.01057056
     atom   30 type  1   force =     0.03358818    0.00543113   -0.00741015
     atom   31 type  1   force =    -0.01479574   -0.00034497    0.02231305
     atom   32 type  1   force =    -0.00501955    0.03463984    0.03007015
     atom   33 type  1   force =    -0.02714490    0.03911104   -0.05401087
     atom   34 type  1   force =    -0.00147999   -0.06046361   -0.01908126
     atom   35 type  1   force =    -0.00763839    0.06142338    0.01220568
     atom   36 type  1   force =     0.02152487    0.02055651   -0.01447498
     atom   37 type  1   force =    -0.02208395   -0.00572184    0.03180410
     atom   38 type  1   force =     0.00891124    0.02629673    0.01407734
     atom   39 type  1   force =     0.03196042   -0.00788405   -0.05245194
     atom   40 type  1   force =     0.00385007   -0.03604082   -0.02109376
     atom   41 type  1   force =     0.01160307    0.00909856   -0.03089349
     atom   42 type  1   force =    -0.05619906   -0.03297927    0.03189721
     atom   43 type  1   force =     0.01688126    0.02914175    0.00216798
     atom   44 type  1   force =    -0.01339728    0.01402828    0.01068749
     atom   45 type  1   force =     0.01930513    0.00860713    0.00968009
     atom   46 type  1   force =     0.00279900   -0.01621530   -0.02505749
     atom   47 type  1   force =     0.00355334    0.04468355    0.00437179
     atom   48 type  1   force =    -0.02408615    0.01291402   -0.00273339
     atom   49 type  1   force =     0.00055302   -0.03601315    0.03883870
     atom   50 type  1   force =    -0.01717980   -0.00575903    0.01115528
     atom   51 type  1   force =     0.01121259   -0.05219352    0.00913806
     atom   52 type  1   force =    -0.01219908    0.03159281    0.00970131
     atom   53 type  1   force =     0.01287854   -0.01730697    0.05728176
     atom   54 type  1   force =    -0.00767079   -0.01360601   -0.00728709
     atom   55 type  1   force =    -0.03299144   -0.00179042   -0.00175253
     atom   56 type  1   force =     0.01362545   -0.03990241   -0.01709014
     atom   57 type  1   force =    -0.01419220   -0.05561910    0.00472975
     atom   58 type  1   force =    -0.00993588    0.01327963    0.01324052
     atom   59 type  1   force =    -0.07466350   -0.04554198   -0.02038439
     atom   60 type  1   force =    -0.02609735    0.01469108   -0.00324348
     atom   61 type  1   force =     0.02341003    0.01959276    0.02308678
     atom   62 type  1   force =    -0.02071778    0.01186715   -0.00793080
     atom   63 type  1   force =     0.03087233    0.04472432    0.00292006
     atom   64 type  1   force =    -0.01783787   -0.00502434    0.01041944

     Total force =     0.388311     Total SCF correction =     0.000450


     Computing stress (Cartesian axis) and pressure

          total   stress  (Ry/bohr**3)                   (kbar)     P=      -14.81
  -0.00012228  -0.00001574  -0.00000281          -17.99       -2.32       -0.41
  -0.00001574  -0.00008528  -0.00004524           -2.32      -12.55       -6.65
  -0.00000281  -0.00004524  -0.00009453           -0.41       -6.65      -13.91

 
     init_run     :      1.07s CPU      4.94s WALL (       1 calls)
     electrons    :      1.93s CPU      2.11s WALL (       1 calls)
     forces       :      0.04s CPU      0.04s WALL (       1 calls)
     stress       :      0.15s CPU      0.15s WALL (       1 calls)

     Called by init_run:
     wfcinit      :      0.53s CPU      4.22s WALL (       1 calls)
                                        4.22s GPU  (       1 calls)
     potinit      :      0.05s CPU      0.14s WALL (       1 calls)
     hinit0       :      0.47s CPU      0.50s WALL (       1 calls)

     Called by electrons:
     c_bands      :      1.13s CPU      1.22s WALL (      20 calls)
     sum_band     :      0.40s CPU      0.44s WALL (      20 calls)
     v_of_rho     :      0.18s CPU      0.29s WALL (      20 calls)
     mix_rho      :      0.19s CPU      0.20s WALL (      20 calls)

     Called by c_bands:
     init_us_2    :      0.07s CPU      0.08s WALL (      41 calls)
     init_us_2:gp :      0.07s CPU      0.07s WALL (      41 calls)
     regterg      :      0.96s CPU      1.04s WALL (      20 calls)

     Called by *egterg:
     rdiaghg      :      0.39s CPU      1.15s WALL (      80 calls)
                                        1.14s GPU  (      80 calls)
     h_psi        :      0.92s CPU      3.91s WALL (      82 calls)
                                        3.91s GPU  (      82 calls)
     g_psi        :      0.00s CPU      0.00s WALL (      61 calls)
                                        0.00s GPU  (      61 calls)

     Called by h_psi:
     h_psi:calbec :      0.49s CPU      3.39s WALL (      82 calls)
                                        3.39s GPU  (      82 calls)
     vloc_psi     :      0.39s CPU      0.46s WALL (      82 calls)
                                        0.46s GPU  (      82 calls)
     add_vuspsi   :      0.03s CPU      0.05s WALL (      82 calls)
                                        0.05s GPU  (      82 calls)

     General routines
     calbec       :      0.50s CPU      3.40s WALL (      87 calls)
     fft          :      0.63s CPU      0.76s WALL (     167 calls)
                                        0.13s GPU  (     106 calls)
     ffts         :      0.05s CPU      0.05s WALL (      20 calls)
     fftw         :      0.47s CPU      0.62s WALL (    2084 calls)
                                        0.54s GPU  (    2084 calls)
 
     Parallel routines
 
     PWSCF        :      3.24s CPU      7.33s WALL

 
   This run was terminated on:  11: 3:50  10May2023            

=------------------------------------------------------------------------------=
   JOB DONE.
=------------------------------------------------------------------------------=
