An instance of this daemon is already running
An instance of this daemon is already running

     Program PWSCF v.7.1 starts on 10May2023 at 11:10: 2 

     This program is part of the open-source Quantum ESPRESSO suite
     for quantum simulation of materials; please cite
         "P. Giannozzi et al., J. Phys.:Condens. Matter 21 395502 (2009);
         "P. Giannozzi et al., J. Phys.:Condens. Matter 29 465901 (2017);
         "P. Giannozzi et al., J. Chem. Phys. 152 154105 (2020);
          URL http://www.quantum-espresso.org", 
     in publications or presentations arising from this work. More details at
     http://www.quantum-espresso.org/quote

     Parallel version (MPI & OpenMP), running on       4 processor cores
     Number of MPI processes:                 4
     Threads/MPI process:                     1

     MPI processes distributed on     1 nodes
     753566 MiB available memory on the printing compute node when the environment starts
 
     Reading input from pw-si-99.in
Warning: card &CELL ignored
Warning: card / ignored

     Current dimensions of program PWSCF are:
     Max number of different atomic species (ntypx) = 10
     Max number of k-points (npk) =  40000
     Max angular momentum in pseudopotentials (lmaxx) =  4

     IMPORTANT: XC functional enforced from input :
     Exchange-correlation= PBE
                           (   1   4   3   4   0   0   0)
     Any further DFT definition will be discarded
     Please, verify this is what you really want


     gamma-point specific algorithms are used
 
     K-points division:     npool     =       2
     R & G space division:  proc/nbgrp/npool/nimage =       2
     Subspace diagonalization in iterative solution of the eigenvalue problem:
     a serial algorithm will be used

     Message from routine divide_et_impera:
     suboptimal parallelization: some nodes have no k-points
 
     Parallelization info
     --------------------
     sticks:   dense  smooth     PW     G-vecs:    dense   smooth      PW
     Min        1946    1946    516                91133    91133   12416
     Max        1947    1947    517                91134    91134   12421
     Sum        3893    3893   1033               182267   182267   24837
 
     Using Slab Decomposition
 


     bravais-lattice index     =            0
     lattice parameter (alat)  =      20.1787  a.u.
     unit-cell volume          =    8216.3680 (a.u.)^3
     number of atoms/cell      =           64
     number of atomic types    =            1
     number of electrons       =       256.00
     number of Kohn-Sham states=          154
     kinetic-energy cutoff     =      30.0000  Ry
     charge density cutoff     =     120.0000  Ry
     scf convergence threshold =      1.0E-06
     mixing beta               =       0.5000
     number of iterations used =            8  plain     mixing
     Exchange-correlation= PBE
                           (   1   4   3   4   0   0   0)

     GPU acceleration is ACTIVE.
     GPU-aware MPI enabled

     Message from routine print_cuda_info:
     High GPU oversubscription detected. Are you sure this is what you want?

     celldm(1)=  20.178705  celldm(2)=   0.000000  celldm(3)=   0.000000
     celldm(4)=   0.000000  celldm(5)=   0.000000  celldm(6)=   0.000000

     crystal axes: (cart. coord. in units of alat)
               a(1) = (   1.000000   0.000000   0.000000 )  
               a(2) = (   0.000000   1.000000   0.000000 )  
               a(3) = (   0.000000   0.000000   1.000000 )  

     reciprocal axes: (cart. coord. in units 2 pi/alat)
               b(1) = (  1.000000  0.000000  0.000000 )  
               b(2) = (  0.000000  1.000000  0.000000 )  
               b(3) = (  0.000000  0.000000  1.000000 )  


     PseudoPot. # 1 for Si read from file:
     /home/ppiaggi/pseudos/Si_ONCV_PBE_sr.upf
     MD5 check sum: 8553c464762ac42b85b1eed164b4d029
     Pseudo is Norm-conserving, Zval =  4.0
     Generated using ONCVPSP code by D. R. Hamann
     Using radial grid of 1510 points,  4 beta functions with: 
                l(1) =   0
                l(2) =   0
                l(3) =   1
                l(4) =   1

     atomic species   valence    mass     pseudopotential
        Si             4.00    28.08500     Si( 1.00)

     No symmetry found



   Cartesian axes

     site n.     atom                  positions (alat units)
         1           Si  tau(   1) = (   0.9137380   0.5793030   0.7545740  )
         2           Si  tau(   2) = (   0.8609910   0.9619310   0.6952940  )
         3           Si  tau(   3) = (   0.0258349   0.6965090   0.3862400  )
         4           Si  tau(   4) = (   0.0828929   0.2182250   0.4304230  )
         5           Si  tau(   5) = (   0.2976590   0.1677580   0.9419050  )
         6           Si  tau(   6) = (   0.7931450   0.2432670   0.6878430  )
         7           Si  tau(   7) = (   0.8850470   0.5703580   0.1923940  )
         8           Si  tau(   8) = (   0.2595950   0.5084510   0.8536290  )
         9           Si  tau(   9) = (   0.0550905   0.1160380   0.8790540  )
        10           Si  tau(  10) = (   0.6410150   0.8344900   0.8421200  )
        11           Si  tau(  11) = (   0.2630750   0.3516880   0.0413032  )
        12           Si  tau(  12) = (   0.2551220   0.9301270   0.8523040  )
        13           Si  tau(  13) = (   0.1241020   0.7339240   0.7407620  )
        14           Si  tau(  14) = (   0.2936190   0.3246070   0.4912070  )
        15           Si  tau(  15) = (   0.8799370   0.5520400   0.5022240  )
        16           Si  tau(  16) = (   0.7446710   0.7211490   0.6552250  )
        17           Si  tau(  17) = (   0.4072290   0.1462320   0.2255300  )
        18           Si  tau(  18) = (   0.8044970   0.1161420   0.1022650  )
        19           Si  tau(  19) = (   0.1149240   0.5920940   0.1864210  )
        20           Si  tau(  20) = (   0.5135890   0.2554070   0.4126270  )
        21           Si  tau(  21) = (   0.6138350   0.5795410   0.4025750  )
        22           Si  tau(  22) = (   0.8531970   0.3641730   0.8425420  )
        23           Si  tau(  23) = (   0.4662850   0.8761990   0.9785990  )
        24           Si  tau(  24) = (   0.1931530   0.7019140   0.0027188  )
        25           Si  tau(  25) = (   0.7140540   0.4933890   0.9957750  )
        26           Si  tau(  26) = (   0.0951187   0.3619920   0.1571520  )
        27           Si  tau(  27) = (   0.9673980   0.8671820   0.8629450  )
        28           Si  tau(  28) = (   0.5980750   0.9097110   0.2038790  )
        29           Si  tau(  29) = (   0.2998870   0.5425250   0.3008090  )
        30           Si  tau(  30) = (   0.4767160   0.3030060   0.8274400  )
        31           Si  tau(  31) = (   0.4628330   0.6889040   0.7521070  )
        32           Si  tau(  32) = (   0.9154780   0.3743260   0.3199660  )
        33           Si  tau(  33) = (   0.6897070   0.0638558   0.7962560  )
        34           Si  tau(  34) = (   0.2286810   0.9968780   0.6384110  )
        35           Si  tau(  35) = (   0.9607140   0.2620550   0.0054620  )
        36           Si  tau(  36) = (   0.0239092   0.8650590   0.2332720  )
        37           Si  tau(  37) = (   0.0217757   0.1468590   0.6431100  )
        38           Si  tau(  38) = (   0.4089180   0.9248550   0.5606000  )
        39           Si  tau(  39) = (   0.8422370   0.8596610   0.4688670  )
        40           Si  tau(  40) = (   0.6536850   0.0225694   0.4112330  )
        41           Si  tau(  41) = (   0.1387300   0.9846680   0.4031860  )
        42           Si  tau(  42) = (   0.3636100   0.9245450   0.3238950  )
        43           Si  tau(  43) = (   0.8239950   0.8885550   0.1046270  )
        44           Si  tau(  44) = (   0.6123010   0.4595490   0.2110610  )
        45           Si  tau(  45) = (   0.4505840   0.6936030   0.2939950  )
        46           Si  tau(  46) = (   0.5356820   0.7485060   0.5520840  )
        47           Si  tau(  47) = (   0.7370300   0.7480980   0.3115030  )
        48           Si  tau(  48) = (   0.7319890   0.2459650   0.2886130  )
        49           Si  tau(  49) = (   0.2982180   0.2301540   0.6806060  )
        50           Si  tau(  50) = (   0.2368390   0.7405720   0.5030020  )
        51           Si  tau(  51) = (   0.0946589   0.3539660   0.7523010  )
        52           Si  tau(  52) = (   0.1707600   0.1276420   0.1965970  )
        53           Si  tau(  53) = (   0.4146300   0.3751700   0.1979240  )
        54           Si  tau(  54) = (   0.8219050   0.6986920   0.9509920  )
        55           Si  tau(  55) = (   0.6499380   0.2361910   0.9386950  )
        56           Si  tau(  56) = (   0.5362780   0.1149870   0.6395280  )
        57           Si  tau(  57) = (   0.5048680   0.0932216   0.0292288  )
        58           Si  tau(  58) = (   0.5145230   0.4409110   0.6432300  )
        59           Si  tau(  59) = (   0.7058230   0.3730620   0.5221580  )
        60           Si  tau(  60) = (   0.4768600   0.5208660   0.9398440  )
        61           Si  tau(  61) = (   0.0803715   0.4502350   0.5323380  )
        62           Si  tau(  62) = (   0.2980310   0.5426050   0.5986030  )
        63           Si  tau(  63) = (   0.3988590   0.6975310   0.0666497  )
        64           Si  tau(  64) = (   0.1343130   0.9452280   0.0601741  )

     number of k points=     1  Fermi-Dirac smearing, width (Ry)=  0.0100
                       cart. coord. in units 2pi/alat
        k(    1) = (   0.0000000   0.0000000   0.0000000), wk =   2.0000000

     Dense  grid:    91134 G-vectors     FFT dimensions: (  72,  72,  72)

     Estimated max dynamical RAM per process >     146.27 MB

     Estimated total dynamical RAM >     562.82 MB

     Initial potential from superposition of free atoms

     starting charge     255.9608, renormalised to     256.0000
     Starting wfcs are  256 randomized atomic wfcs

     total cpu time spent up to now is        5.0 secs

     Self-consistent Calculation

     iteration #  1     ecut=    30.00 Ry     beta= 0.50
     Davidson diagonalization with overlap
     ethr =  1.00E-02,  avg # of iterations =  3.0

     Threshold (ethr) on eigenvalues was too large:
     Diagonalizing with lowered threshold

     Davidson diagonalization with overlap
     ethr =  4.10E-04,  avg # of iterations =  4.0

     total cpu time spent up to now is        5.3 secs

     total energy              =    -501.27498213 Ry
     estimated scf accuracy    <       1.27731037 Ry

     iteration #  2     ecut=    30.00 Ry     beta= 0.50
     Davidson diagonalization with overlap
     ethr =  4.99E-04,  avg # of iterations =  4.0

     total cpu time spent up to now is        5.4 secs

     total energy              =    -500.76641059 Ry
     estimated scf accuracy    <       6.06347748 Ry

     iteration #  3     ecut=    30.00 Ry     beta= 0.50
     Davidson diagonalization with overlap
     ethr =  4.99E-04,  avg # of iterations =  4.0

     total cpu time spent up to now is        5.5 secs

     total energy              =    -501.31120433 Ry
     estimated scf accuracy    <       2.49067249 Ry

     iteration #  4     ecut=    30.00 Ry     beta= 0.50
     Davidson diagonalization with overlap
     ethr =  4.99E-04,  avg # of iterations =  2.0

     total cpu time spent up to now is        5.6 secs

     total energy              =    -501.45594815 Ry
     estimated scf accuracy    <       0.86518099 Ry

     iteration #  5     ecut=    30.00 Ry     beta= 0.50
     Davidson diagonalization with overlap
     ethr =  3.38E-04,  avg # of iterations =  2.0

     total cpu time spent up to now is        5.7 secs

     total energy              =    -501.49259804 Ry
     estimated scf accuracy    <       0.76647569 Ry

     iteration #  6     ecut=    30.00 Ry     beta= 0.50
     Davidson diagonalization with overlap
     ethr =  2.99E-04,  avg # of iterations =  1.0

     total cpu time spent up to now is        5.8 secs

     total energy              =    -501.55805528 Ry
     estimated scf accuracy    <       0.04607824 Ry

     iteration #  7     ecut=    30.00 Ry     beta= 0.50
     Davidson diagonalization with overlap
     ethr =  1.80E-05,  avg # of iterations = 11.0

     total cpu time spent up to now is        6.0 secs

     total energy              =    -501.56624061 Ry
     estimated scf accuracy    <       0.01617251 Ry

     iteration #  8     ecut=    30.00 Ry     beta= 0.50
     Davidson diagonalization with overlap
     ethr =  6.32E-06,  avg # of iterations = 19.0

     total cpu time spent up to now is        6.2 secs

     total energy              =    -501.56737839 Ry
     estimated scf accuracy    <       0.02681450 Ry

     iteration #  9     ecut=    30.00 Ry     beta= 0.50
     Davidson diagonalization with overlap
     ethr =  6.32E-06,  avg # of iterations =  2.0

     total cpu time spent up to now is        6.3 secs

     total energy              =    -501.56938868 Ry
     estimated scf accuracy    <       0.00217715 Ry

     iteration # 10     ecut=    30.00 Ry     beta= 0.50
     Davidson diagonalization with overlap
     ethr =  8.50E-07,  avg # of iterations =  4.0

     total cpu time spent up to now is        6.4 secs

     total energy              =    -501.56957312 Ry
     estimated scf accuracy    <       0.00178483 Ry

     iteration # 11     ecut=    30.00 Ry     beta= 0.50
     Davidson diagonalization with overlap
     ethr =  6.97E-07,  avg # of iterations =  2.0

     total cpu time spent up to now is        6.5 secs

     total energy              =    -501.56970803 Ry
     estimated scf accuracy    <       0.00059315 Ry

     iteration # 12     ecut=    30.00 Ry     beta= 0.50
     Davidson diagonalization with overlap
     ethr =  2.32E-07,  avg # of iterations =  2.0

     total cpu time spent up to now is        6.6 secs

     total energy              =    -501.56977391 Ry
     estimated scf accuracy    <       0.00015865 Ry

     iteration # 13     ecut=    30.00 Ry     beta= 0.50
     Davidson diagonalization with overlap
     ethr =  6.20E-08,  avg # of iterations =  3.0

     total cpu time spent up to now is        6.7 secs

     total energy              =    -501.56978048 Ry
     estimated scf accuracy    <       0.00023056 Ry

     iteration # 14     ecut=    30.00 Ry     beta= 0.50
     Davidson diagonalization with overlap
     ethr =  6.20E-08,  avg # of iterations =  2.0

     total cpu time spent up to now is        6.8 secs

     total energy              =    -501.56979540 Ry
     estimated scf accuracy    <       0.00001218 Ry

     iteration # 15     ecut=    30.00 Ry     beta= 0.50
     Davidson diagonalization with overlap
     ethr =  4.76E-09,  avg # of iterations =  4.0

     total cpu time spent up to now is        6.9 secs

     total energy              =    -501.56979777 Ry
     estimated scf accuracy    <       0.00001275 Ry

     iteration # 16     ecut=    30.00 Ry     beta= 0.50
     Davidson diagonalization with overlap
     ethr =  4.76E-09,  avg # of iterations =  2.0

     total cpu time spent up to now is        7.0 secs

     total energy              =    -501.56979857 Ry
     estimated scf accuracy    <       0.00001054 Ry

     iteration # 17     ecut=    30.00 Ry     beta= 0.50
     Davidson diagonalization with overlap
     ethr =  4.12E-09,  avg # of iterations =  2.0

     total cpu time spent up to now is        7.1 secs

     total energy              =    -501.56979920 Ry
     estimated scf accuracy    <       0.00000192 Ry

     iteration # 18     ecut=    30.00 Ry     beta= 0.50
     Davidson diagonalization with overlap
     ethr =  7.51E-10,  avg # of iterations =  2.0

     total cpu time spent up to now is        7.2 secs

     total energy              =    -501.56979940 Ry
     estimated scf accuracy    <       0.00000117 Ry

     iteration # 19     ecut=    30.00 Ry     beta= 0.50
     Davidson diagonalization with overlap
     ethr =  4.56E-10,  avg # of iterations =  2.0

     total cpu time spent up to now is        7.3 secs

     End of self-consistent calculation

          k = 0.0000 0.0000 0.0000 ( 11444 PWs)   bands (ev):

    -5.4765  -4.5881  -4.4574  -4.3149  -4.2640  -4.2347  -3.9194  -3.5661
    -3.4337  -3.4176  -3.2655  -3.1970  -3.1244  -3.0322  -2.9275  -2.8880
    -2.7937  -2.6702  -2.4561  -2.2725  -1.9837  -1.9003  -1.8529  -1.7984
    -1.7506  -1.5513  -1.3553  -0.9519  -0.8976  -0.8344  -0.7652  -0.5958
    -0.4181  -0.3499  -0.2030  -0.0791   0.0140   0.0299   0.1092   0.1769
     0.2141   0.3022   0.4424   0.4486   0.5069   0.5549   0.7351   0.8396
     0.9004   0.9905   1.0737   1.1828   1.2528   1.3580   1.4611   1.6177
     1.6580   1.8127   1.8547   1.9186   2.0754   2.1816   2.3161   2.3244
     2.3813   2.4820   2.5257   2.6147   2.6619   2.7698   2.7840   2.9426
     3.0357   3.1290   3.1781   3.3508   3.3845   3.4501   3.5706   3.6458
     3.8203   4.0914   4.2470   4.3301   4.3747   4.4201   4.5018   4.5571
     4.5779   4.7088   4.7978   4.8613   4.8951   4.9872   5.0332   5.0906
     5.1485   5.1947   5.2373   5.2655   5.3266   5.3986   5.4616   5.4977
     5.5150   5.6464   5.6570   5.7358   5.7795   5.9234   5.9702   6.0076
     6.0416   6.1284   6.1363   6.2631   6.3211   6.4237   6.4548   6.4794
     6.5423   6.6201   6.6751   6.7078   6.7455   6.7968   6.8671   6.9184
     6.9575   7.0928   7.1498   7.2016   7.2431   7.2815   7.3574   7.3974
     7.4542   7.5122   7.5325   7.7349   7.7724   7.8486   7.8893   8.0168
     8.0472   8.1325   8.1648   8.2937   8.3958   8.4476   8.4791   8.5276
     8.5941   8.7177

     the Fermi energy is     6.9688 ev

!    total energy              =    -501.56979934 Ry
     estimated scf accuracy    <       0.00000023 Ry
     smearing contrib. (-TS)   =      -0.15077508 Ry
     internal energy E=F+TS    =    -501.41902427 Ry

     The total energy is F=E-TS. E is the sum of the following terms:
     one-electron contribution =     180.02851776 Ry
     hartree contribution      =      27.12026885 Ry
     xc contribution           =    -150.87957024 Ry
     ewald contribution        =    -557.68824064 Ry

     convergence has been achieved in  19 iterations

     Forces acting on atoms (cartesian axes, Ry/au):

     atom    1 type  1   force =     0.01497737    0.00551485   -0.00738553
     atom    2 type  1   force =     0.01541209    0.01944926   -0.03399768
     atom    3 type  1   force =    -0.00221116    0.00374962    0.01493683
     atom    4 type  1   force =    -0.00027307    0.01000030    0.00074566
     atom    5 type  1   force =     0.01502173   -0.03450746   -0.04030433
     atom    6 type  1   force =     0.00080319   -0.04616653   -0.06932300
     atom    7 type  1   force =    -0.00622498    0.02464016    0.00420881
     atom    8 type  1   force =    -0.01088018    0.00977825   -0.00256834
     atom    9 type  1   force =     0.03285918   -0.03656809   -0.02686095
     atom   10 type  1   force =     0.01696827   -0.02121022   -0.00115066
     atom   11 type  1   force =     0.06318819    0.03215246   -0.04675920
     atom   12 type  1   force =     0.01583667   -0.01066802    0.02545873
     atom   13 type  1   force =    -0.01035349    0.00194797    0.02201740
     atom   14 type  1   force =     0.00952310    0.03577605   -0.05411103
     atom   15 type  1   force =    -0.01037546   -0.01478177   -0.01566831
     atom   16 type  1   force =    -0.00916321    0.02719947   -0.00342995
     atom   17 type  1   force =    -0.01735548   -0.01403051   -0.00175158
     atom   18 type  1   force =    -0.01180926    0.03470770    0.01034817
     atom   19 type  1   force =    -0.02025791   -0.00096302   -0.00767401
     atom   20 type  1   force =     0.00259828   -0.02122222    0.02667193
     atom   21 type  1   force =     0.00746487    0.01606470    0.00859280
     atom   22 type  1   force =     0.01639395    0.08172312    0.06665021
     atom   23 type  1   force =     0.01663701    0.05216603   -0.02982273
     atom   24 type  1   force =    -0.02646736   -0.00627353   -0.02089745
     atom   25 type  1   force =    -0.01210311    0.00537677    0.01420435
     atom   26 type  1   force =    -0.08908425   -0.01983833    0.03579417
     atom   27 type  1   force =     0.03591808   -0.00683203    0.02519323
     atom   28 type  1   force =     0.02165375   -0.00311523    0.01483661
     atom   29 type  1   force =    -0.02554281   -0.03635894    0.02170711
     atom   30 type  1   force =    -0.04970235    0.01444804   -0.03757392
     atom   31 type  1   force =     0.00419540   -0.04780986    0.01817718
     atom   32 type  1   force =     0.02272027    0.00720524    0.01804267
     atom   33 type  1   force =    -0.01560158   -0.02218804   -0.02545216
     atom   34 type  1   force =    -0.04559129    0.05529892    0.02802979
     atom   35 type  1   force =    -0.02251600   -0.00453582    0.03037426
     atom   36 type  1   force =    -0.02649955    0.01774715    0.01746261
     atom   37 type  1   force =    -0.02871171   -0.01207784    0.02077632
     atom   38 type  1   force =     0.04844140    0.00819992   -0.06559417
     atom   39 type  1   force =     0.00554759    0.02220697    0.03683638
     atom   40 type  1   force =    -0.00304297    0.01011799   -0.00829437
     atom   41 type  1   force =     0.00250940    0.00661666   -0.03968562
     atom   42 type  1   force =    -0.00300600    0.00375155    0.04784218
     atom   43 type  1   force =     0.01102899   -0.01116492    0.01986312
     atom   44 type  1   force =     0.04985706   -0.03273584   -0.02497661
     atom   45 type  1   force =     0.00030146    0.05907339   -0.02001648
     atom   46 type  1   force =     0.02312006   -0.02201262   -0.00985643
     atom   47 type  1   force =    -0.00371306   -0.02666504   -0.02898107
     atom   48 type  1   force =    -0.01812237   -0.00755853   -0.01217102
     atom   49 type  1   force =    -0.00167901   -0.04473310    0.06565842
     atom   50 type  1   force =    -0.00060532   -0.00914543    0.00278678
     atom   51 type  1   force =     0.01990559    0.00624390   -0.02628289
     atom   52 type  1   force =     0.03434882    0.01028503    0.02869816
     atom   53 type  1   force =    -0.01369415    0.00198696   -0.00687397
     atom   54 type  1   force =    -0.01282821    0.02821514    0.00837160
     atom   55 type  1   force =     0.04069210   -0.02713152    0.01952324
     atom   56 type  1   force =    -0.01272267   -0.00682669   -0.04028644
     atom   57 type  1   force =    -0.03571248   -0.01149365    0.02564353
     atom   58 type  1   force =    -0.00464913    0.01778678    0.00173456
     atom   59 type  1   force =    -0.02947859    0.01003547    0.00587600
     atom   60 type  1   force =     0.00851988    0.01810392   -0.01662645
     atom   61 type  1   force =     0.01234349   -0.01857978    0.02854680
     atom   62 type  1   force =    -0.00049432   -0.00873560    0.01758996
     atom   63 type  1   force =     0.01939789   -0.05263484    0.04756340
     atom   64 type  1   force =    -0.00771266   -0.01900472   -0.05638667

     Total force =     0.375870     Total SCF correction =     0.000899


     Computing stress (Cartesian axis) and pressure

          total   stress  (Ry/bohr**3)                   (kbar)     P=      -30.65
  -0.00014752   0.00006120  -0.00005801          -21.70        9.00       -8.53
   0.00006120  -0.00027034  -0.00004831            9.00      -39.77       -7.11
  -0.00005801  -0.00004831  -0.00020720           -8.53       -7.11      -30.48

 
     init_run     :      1.10s CPU      4.96s WALL (       1 calls)
     electrons    :      2.07s CPU      2.23s WALL (       1 calls)
     forces       :      0.04s CPU      0.04s WALL (       1 calls)
     stress       :      0.16s CPU      0.16s WALL (       1 calls)

     Called by init_run:
     wfcinit      :      0.55s CPU      4.24s WALL (       1 calls)
                                        4.24s GPU  (       1 calls)
     potinit      :      0.06s CPU      0.15s WALL (       1 calls)
     hinit0       :      0.47s CPU      0.50s WALL (       1 calls)

     Called by electrons:
     c_bands      :      1.26s CPU      1.33s WALL (      20 calls)
     sum_band     :      0.40s CPU      0.45s WALL (      20 calls)
     v_of_rho     :      0.20s CPU      0.30s WALL (      20 calls)
     mix_rho      :      0.19s CPU      0.21s WALL (      20 calls)

     Called by c_bands:
     init_us_2    :      0.07s CPU      0.08s WALL (      41 calls)
     init_us_2:gp :      0.07s CPU      0.07s WALL (      41 calls)
     regterg      :      1.09s CPU      1.15s WALL (      20 calls)

     Called by *egterg:
     rdiaghg      :      0.46s CPU      1.21s WALL (      96 calls)
                                        1.19s GPU  (      96 calls)
     h_psi        :      0.99s CPU      3.96s WALL (      98 calls)
                                        3.96s GPU  (      98 calls)
     g_psi        :      0.00s CPU      0.00s WALL (      77 calls)
                                        0.00s GPU  (      77 calls)

     Called by h_psi:
     h_psi:calbec :      0.52s CPU      3.41s WALL (      98 calls)
                                        3.41s GPU  (      98 calls)
     vloc_psi     :      0.40s CPU      0.48s WALL (      98 calls)
                                        0.47s GPU  (      98 calls)
     add_vuspsi   :      0.04s CPU      0.06s WALL (      98 calls)
                                        0.06s GPU  (      98 calls)

     General routines
     calbec       :      0.52s CPU      3.42s WALL (     103 calls)
     fft          :      0.64s CPU      0.77s WALL (     167 calls)
                                        0.14s GPU  (     106 calls)
     ffts         :      0.05s CPU      0.05s WALL (      20 calls)
     fftw         :      0.49s CPU      0.64s WALL (    2120 calls)
                                        0.56s GPU  (    2120 calls)
 
     Parallel routines
 
     PWSCF        :      3.40s CPU      7.48s WALL

 
   This run was terminated on:  11:10: 9  10May2023            

=------------------------------------------------------------------------------=
   JOB DONE.
=------------------------------------------------------------------------------=
