An instance of this daemon is already running
An instance of this daemon is already running

     Program PWSCF v.7.1 starts on 10May2023 at 11: 9:42 

     This program is part of the open-source Quantum ESPRESSO suite
     for quantum simulation of materials; please cite
         "P. Giannozzi et al., J. Phys.:Condens. Matter 21 395502 (2009);
         "P. Giannozzi et al., J. Phys.:Condens. Matter 29 465901 (2017);
         "P. Giannozzi et al., J. Chem. Phys. 152 154105 (2020);
          URL http://www.quantum-espresso.org", 
     in publications or presentations arising from this work. More details at
     http://www.quantum-espresso.org/quote

     Parallel version (MPI & OpenMP), running on       4 processor cores
     Number of MPI processes:                 4
     Threads/MPI process:                     1

     MPI processes distributed on     1 nodes
     753576 MiB available memory on the printing compute node when the environment starts
 
     Reading input from pw-si-97.in
Warning: card &CELL ignored
Warning: card / ignored

     Current dimensions of program PWSCF are:
     Max number of different atomic species (ntypx) = 10
     Max number of k-points (npk) =  40000
     Max angular momentum in pseudopotentials (lmaxx) =  4

     IMPORTANT: XC functional enforced from input :
     Exchange-correlation= PBE
                           (   1   4   3   4   0   0   0)
     Any further DFT definition will be discarded
     Please, verify this is what you really want


     gamma-point specific algorithms are used
 
     K-points division:     npool     =       2
     R & G space division:  proc/nbgrp/npool/nimage =       2
     Subspace diagonalization in iterative solution of the eigenvalue problem:
     a serial algorithm will be used

     Message from routine divide_et_impera:
     suboptimal parallelization: some nodes have no k-points
 
     Parallelization info
     --------------------
     sticks:   dense  smooth     PW     G-vecs:    dense   smooth      PW
     Min        1971    1971    520                93009    93009   12668
     Max        1974    1974    521                93014    93014   12673
     Sum        3945    3945   1041               186023   186023   25341
 
     Using Slab Decomposition
 


     bravais-lattice index     =            0
     lattice parameter (alat)  =      20.3099  a.u.
     unit-cell volume          =    8377.6547 (a.u.)^3
     number of atoms/cell      =           64
     number of atomic types    =            1
     number of electrons       =       256.00
     number of Kohn-Sham states=          154
     kinetic-energy cutoff     =      30.0000  Ry
     charge density cutoff     =     120.0000  Ry
     scf convergence threshold =      1.0E-06
     mixing beta               =       0.5000
     number of iterations used =            8  plain     mixing
     Exchange-correlation= PBE
                           (   1   4   3   4   0   0   0)

     GPU acceleration is ACTIVE.
     GPU-aware MPI enabled

     Message from routine print_cuda_info:
     High GPU oversubscription detected. Are you sure this is what you want?

     celldm(1)=  20.309886  celldm(2)=   0.000000  celldm(3)=   0.000000
     celldm(4)=   0.000000  celldm(5)=   0.000000  celldm(6)=   0.000000

     crystal axes: (cart. coord. in units of alat)
               a(1) = (   1.000000   0.000000   0.000000 )  
               a(2) = (   0.000000   1.000000   0.000000 )  
               a(3) = (   0.000000   0.000000   1.000000 )  

     reciprocal axes: (cart. coord. in units 2 pi/alat)
               b(1) = (  1.000000  0.000000  0.000000 )  
               b(2) = (  0.000000  1.000000  0.000000 )  
               b(3) = (  0.000000  0.000000  1.000000 )  


     PseudoPot. # 1 for Si read from file:
     /home/ppiaggi/pseudos/Si_ONCV_PBE_sr.upf
     MD5 check sum: 8553c464762ac42b85b1eed164b4d029
     Pseudo is Norm-conserving, Zval =  4.0
     Generated using ONCVPSP code by D. R. Hamann
     Using radial grid of 1510 points,  4 beta functions with: 
                l(1) =   0
                l(2) =   0
                l(3) =   1
                l(4) =   1

     atomic species   valence    mass     pseudopotential
        Si             4.00    28.08500     Si( 1.00)

     No symmetry found



   Cartesian axes

     site n.     atom                  positions (alat units)
         1           Si  tau(   1) = (   0.8468390   0.2802910   0.8483260  )
         2           Si  tau(   2) = (   0.9615540   0.6612180   0.9774770  )
         3           Si  tau(   3) = (   0.8834560   0.4553670   0.6807790  )
         4           Si  tau(   4) = (   0.6680200   0.1257860   0.0127781  )
         5           Si  tau(   5) = (   0.7260820   0.8883650   0.8725160  )
         6           Si  tau(   6) = (   0.9459580   0.4559320   0.9628090  )
         7           Si  tau(   7) = (   0.5146820   0.7342380   0.8322520  )
         8           Si  tau(   8) = (   0.7241960   0.9267410   0.2003970  )
         9           Si  tau(   9) = (   0.2687420   0.6066890   0.4718010  )
        10           Si  tau(  10) = (   0.2736450   0.8533330   0.7423840  )
        11           Si  tau(  11) = (   0.7273580   0.4581320   0.0648106  )
        12           Si  tau(  12) = (   0.5375890   0.0777397   0.7721340  )
        13           Si  tau(  13) = (   0.2659200   0.4556880   0.2047070  )
        14           Si  tau(  14) = (   0.2350640   0.6850790   0.0429442  )
        15           Si  tau(  15) = (   0.7718340   0.8156690   0.6559370  )
        16           Si  tau(  16) = (   0.7231110   0.9060500   0.4395580  )
        17           Si  tau(  17) = (   0.3662590   0.6580610   0.2385430  )
        18           Si  tau(  18) = (   0.4488800   0.0770272   0.9860940  )
        19           Si  tau(  19) = (   0.4119360   0.0705903   0.2055090  )
        20           Si  tau(  20) = (   0.0010246   0.1225850   0.8558690  )
        21           Si  tau(  21) = (   0.1022190   0.1839560   0.0796423  )
        22           Si  tau(  22) = (   0.5016710   0.8866500   0.6700260  )
        23           Si  tau(  23) = (   0.1769300   0.0123290   0.2171720  )
        24           Si  tau(  24) = (   0.6717850   0.1649720   0.2242210  )
        25           Si  tau(  25) = (   0.9525980   0.6551450   0.7584370  )
        26           Si  tau(  26) = (   0.7633370   0.6006150   0.5513160  )
        27           Si  tau(  27) = (   0.5714820   0.6260320   0.1647670  )
        28           Si  tau(  28) = (   0.9993480   0.1868330   0.4543070  )
        29           Si  tau(  29) = (   0.4478400   0.3135010   0.2585770  )
        30           Si  tau(  30) = (   0.1209880   0.4512250   0.3711660  )
        31           Si  tau(  31) = (   0.6489890   0.3164960   0.8277110  )
        32           Si  tau(  32) = (   0.9908440   0.3606560   0.1831250  )
        33           Si  tau(  33) = (   0.9206310   0.1115760   0.2535330  )
        34           Si  tau(  34) = (   0.4714270   0.1798560   0.4564720  )
        35           Si  tau(  35) = (   0.2882390   0.1675420   0.7332070  )
        36           Si  tau(  36) = (   0.8083110   0.3661820   0.3030720  )
        37           Si  tau(  37) = (   0.6753770   0.1037870   0.5234370  )
        38           Si  tau(  38) = (   0.7466510   0.7240460   0.0412375  )
        39           Si  tau(  39) = (   0.9615170   0.9270380   0.5625690  )
        40           Si  tau(  40) = (   0.2812070   0.8503460   0.3884480  )
        41           Si  tau(  41) = (   0.1480500   0.5403960   0.7021690  )
        42           Si  tau(  42) = (   0.3520200   0.3381070   0.8667170  )
        43           Si  tau(  43) = (   0.0719482   0.8691040   0.0482530  )
        44           Si  tau(  44) = (   0.1767470   0.4247800   0.9809500  )
        45           Si  tau(  45) = (   0.0073372   0.9150510   0.3589470  )
        46           Si  tau(  46) = (   0.9107000   0.7717180   0.2422230  )
        47           Si  tau(  47) = (   0.5138610   0.3365760   0.0132491  )
        48           Si  tau(  48) = (   0.5332960   0.7987770   0.4730750  )
        49           Si  tau(  49) = (   0.3205170   0.3537120   0.5750700  )
        50           Si  tau(  50) = (   0.1016740   0.0825230   0.6292740  )
        51           Si  tau(  51) = (   0.5002160   0.8836450   0.2455550  )
        52           Si  tau(  52) = (   0.5886630   0.4867570   0.3263300  )
        53           Si  tau(  53) = (   0.2941560   0.6211130   0.8322550  )
        54           Si  tau(  54) = (   0.6905870   0.5708560   0.8351120  )
        55           Si  tau(  55) = (   0.4787550   0.5030910   0.7129960  )
        56           Si  tau(  56) = (   0.4252880   0.8217760   0.0057261  )
        57           Si  tau(  57) = (   0.5058520   0.5930130   0.5189150  )
        58           Si  tau(  58) = (   0.2326600   0.0275982   0.9200610  )
        59           Si  tau(  59) = (   0.8998760   0.5769620   0.3989840  )
        60           Si  tau(  60) = (   0.8183040   0.2883600   0.5234870  )
        61           Si  tau(  61) = (   0.1154050   0.3597550   0.5770520  )
        62           Si  tau(  62) = (   0.1307990   0.7697070   0.5919050  )
        63           Si  tau(  63) = (   0.8728020   0.9944550   0.0135559  )
        64           Si  tau(  64) = (   0.3391750   0.0277180   0.5359680  )

     number of k points=     1  Fermi-Dirac smearing, width (Ry)=  0.0100
                       cart. coord. in units 2pi/alat
        k(    1) = (   0.0000000   0.0000000   0.0000000), wk =   2.0000000

     Dense  grid:    93012 G-vectors     FFT dimensions: (  72,  72,  72)

     Estimated max dynamical RAM per process >     148.85 MB

     Estimated total dynamical RAM >     572.69 MB

     Initial potential from superposition of free atoms

     starting charge     255.9608, renormalised to     256.0000
     Starting wfcs are  256 randomized atomic wfcs

     total cpu time spent up to now is        5.1 secs

     Self-consistent Calculation

     iteration #  1     ecut=    30.00 Ry     beta= 0.50
     Davidson diagonalization with overlap
     ethr =  1.00E-02,  avg # of iterations =  3.0

     Threshold (ethr) on eigenvalues was too large:
     Diagonalizing with lowered threshold

     Davidson diagonalization with overlap
     ethr =  3.79E-04,  avg # of iterations =  4.0

     total cpu time spent up to now is        5.3 secs

     total energy              =    -501.26365065 Ry
     estimated scf accuracy    <       1.18859140 Ry

     iteration #  2     ecut=    30.00 Ry     beta= 0.50
     Davidson diagonalization with overlap
     ethr =  4.64E-04,  avg # of iterations =  3.0

     total cpu time spent up to now is        5.4 secs

     total energy              =    -501.06254872 Ry
     estimated scf accuracy    <       1.86824502 Ry

     iteration #  3     ecut=    30.00 Ry     beta= 0.50
     Davidson diagonalization with overlap
     ethr =  4.64E-04,  avg # of iterations =  3.0

     total cpu time spent up to now is        5.5 secs

     total energy              =    -501.15363916 Ry
     estimated scf accuracy    <       3.51215718 Ry

     iteration #  4     ecut=    30.00 Ry     beta= 0.50
     Davidson diagonalization with overlap
     ethr =  4.64E-04,  avg # of iterations =  2.0

     total cpu time spent up to now is        5.6 secs

     total energy              =    -501.39601414 Ry
     estimated scf accuracy    <       0.49893887 Ry

     iteration #  5     ecut=    30.00 Ry     beta= 0.50
     Davidson diagonalization with overlap
     ethr =  1.95E-04,  avg # of iterations =  2.0

     total cpu time spent up to now is        5.7 secs

     total energy              =    -501.43292605 Ry
     estimated scf accuracy    <       0.23811801 Ry

     iteration #  6     ecut=    30.00 Ry     beta= 0.50
     Davidson diagonalization with overlap
     ethr =  9.30E-05,  avg # of iterations =  2.0

     total cpu time spent up to now is        5.8 secs

     total energy              =    -501.45433142 Ry
     estimated scf accuracy    <       0.15537477 Ry

     iteration #  7     ecut=    30.00 Ry     beta= 0.50
     Davidson diagonalization with overlap
     ethr =  6.07E-05,  avg # of iterations =  1.0

     total cpu time spent up to now is        5.9 secs

     total energy              =    -501.46751291 Ry
     estimated scf accuracy    <       0.00919580 Ry

     iteration #  8     ecut=    30.00 Ry     beta= 0.50
     Davidson diagonalization with overlap
     c_bands:  1 eigenvalues not converged
     ethr =  3.59E-06,  avg # of iterations = 20.0

     total cpu time spent up to now is        6.1 secs

     total energy              =    -501.46848331 Ry
     estimated scf accuracy    <       0.01236745 Ry

     iteration #  9     ecut=    30.00 Ry     beta= 0.50
     Davidson diagonalization with overlap
     c_bands:  1 eigenvalues not converged
     ethr =  3.59E-06,  avg # of iterations = 20.0

     total cpu time spent up to now is        6.3 secs

     total energy              =    -501.46965960 Ry
     estimated scf accuracy    <       0.00391833 Ry

     iteration # 10     ecut=    30.00 Ry     beta= 0.50
     Davidson diagonalization with overlap
     ethr =  1.53E-06,  avg # of iterations =  8.0

     total cpu time spent up to now is        6.4 secs

     total energy              =    -501.46998044 Ry
     estimated scf accuracy    <       0.00059824 Ry

     iteration # 11     ecut=    30.00 Ry     beta= 0.50
     Davidson diagonalization with overlap
     ethr =  2.34E-07,  avg # of iterations =  2.0

     total cpu time spent up to now is        6.5 secs

     total energy              =    -501.47003229 Ry
     estimated scf accuracy    <       0.00041575 Ry

     iteration # 12     ecut=    30.00 Ry     beta= 0.50
     Davidson diagonalization with overlap
     ethr =  1.62E-07,  avg # of iterations =  2.0

     total cpu time spent up to now is        6.6 secs

     total energy              =    -501.47007216 Ry
     estimated scf accuracy    <       0.00021625 Ry

     iteration # 13     ecut=    30.00 Ry     beta= 0.50
     Davidson diagonalization with overlap
     ethr =  8.45E-08,  avg # of iterations =  2.0

     total cpu time spent up to now is        6.7 secs

     total energy              =    -501.47008517 Ry
     estimated scf accuracy    <       0.00010993 Ry

     iteration # 14     ecut=    30.00 Ry     beta= 0.50
     Davidson diagonalization with overlap
     ethr =  4.29E-08,  avg # of iterations =  2.0

     total cpu time spent up to now is        6.8 secs

     total energy              =    -501.47009459 Ry
     estimated scf accuracy    <       0.00002277 Ry

     iteration # 15     ecut=    30.00 Ry     beta= 0.50
     Davidson diagonalization with overlap
     ethr =  8.89E-09,  avg # of iterations =  2.0

     total cpu time spent up to now is        6.9 secs

     total energy              =    -501.47009581 Ry
     estimated scf accuracy    <       0.00001144 Ry

     iteration # 16     ecut=    30.00 Ry     beta= 0.50
     Davidson diagonalization with overlap
     ethr =  4.47E-09,  avg # of iterations =  3.0

     total cpu time spent up to now is        7.0 secs

     total energy              =    -501.47009718 Ry
     estimated scf accuracy    <       0.00001598 Ry

     iteration # 17     ecut=    30.00 Ry     beta= 0.50
     Davidson diagonalization with overlap
     ethr =  4.47E-09,  avg # of iterations =  2.0

     total cpu time spent up to now is        7.1 secs

     End of self-consistent calculation

          k = 0.0000 0.0000 0.0000 ( 11564 PWs)   bands (ev):

    -5.6092  -4.7420  -4.6683  -4.5990  -4.4249  -4.3095  -4.1713  -3.7221
    -3.6489  -3.5686  -3.4930  -3.4318  -3.3468  -3.2106  -3.1431  -3.0682
    -2.9173  -2.7635  -2.7137  -2.4305  -2.4233  -2.2795  -2.1034  -1.9591
    -1.9083  -1.8867  -1.3724  -1.2418  -1.0416  -0.9972  -0.9176  -0.7254
    -0.6348  -0.5687  -0.4406  -0.3931  -0.3114  -0.2513  -0.1310  -0.0310
     0.0234   0.0825   0.1669   0.2354   0.2846   0.4217   0.4598   0.5832
     0.7342   0.8200   0.8698   0.9981   1.0830   1.2297   1.3385   1.4202
     1.5176   1.6212   1.6614   1.6999   1.8368   1.9737   2.0783   2.1108
     2.2314   2.2947   2.3683   2.4585   2.4964   2.6565   2.7509   2.8644
     2.8998   2.9578   3.1195   3.1594   3.2846   3.3097   3.4730   3.5773
     3.6719   3.8201   3.8819   3.9322   4.0687   4.1059   4.2001   4.2677
     4.3953   4.4244   4.4454   4.5572   4.6033   4.7134   4.7693   4.8244
     4.8651   4.9412   4.9695   5.0338   5.0929   5.1569   5.2728   5.3133
     5.4367   5.4648   5.4856   5.5171   5.5938   5.6180   5.7232   5.8471
     5.8948   5.9426   5.9842   6.0458   6.0482   6.1338   6.2224   6.2962
     6.3839   6.4383   6.5241   6.5881   6.6500   6.6908   6.7523   6.7892
     6.8158   6.9253   6.9794   7.0545   7.1041   7.1415   7.2402   7.3063
     7.3332   7.3475   7.4704   7.5642   7.6181   7.6709   7.7063   7.7580
     7.8664   7.9503   7.9675   8.0237   8.0282   8.1696   8.2096   8.2713
     8.2887   8.3851

     the Fermi energy is     6.8310 ev

!    total energy              =    -501.47009788 Ry
     estimated scf accuracy    <       0.00000046 Ry
     smearing contrib. (-TS)   =      -0.14987590 Ry
     internal energy E=F+TS    =    -501.32022199 Ry

     The total energy is F=E-TS. E is the sum of the following terms:
     one-electron contribution =     169.07323093 Ry
     hartree contribution      =      30.54851083 Ry
     xc contribution           =    -150.67202671 Ry
     ewald contribution        =    -550.26993703 Ry

     convergence has been achieved in  17 iterations

     Forces acting on atoms (cartesian axes, Ry/au):

     atom    1 type  1   force =     0.08038352    0.02503831   -0.00323510
     atom    2 type  1   force =    -0.00850755    0.06397272    0.00888440
     atom    3 type  1   force =    -0.01591142   -0.02728320   -0.00081995
     atom    4 type  1   force =    -0.00360581    0.00874773   -0.03323428
     atom    5 type  1   force =    -0.02140224   -0.00126531   -0.00470155
     atom    6 type  1   force =     0.02148646   -0.05632718    0.03513366
     atom    7 type  1   force =     0.02993195   -0.02647842   -0.02709111
     atom    8 type  1   force =     0.00841236    0.00471568    0.00207094
     atom    9 type  1   force =    -0.00051958    0.01962666    0.00209560
     atom   10 type  1   force =     0.02478316    0.01048273    0.01336947
     atom   11 type  1   force =    -0.03564371    0.01923564   -0.01814588
     atom   12 type  1   force =     0.02133325    0.01165739   -0.01667970
     atom   13 type  1   force =     0.02396434   -0.00393718   -0.02827768
     atom   14 type  1   force =     0.00172277    0.02123089    0.00840797
     atom   15 type  1   force =     0.03983745   -0.03243408   -0.00327390
     atom   16 type  1   force =    -0.00041065   -0.00381966   -0.00985941
     atom   17 type  1   force =    -0.03545591   -0.00755127   -0.00297795
     atom   18 type  1   force =    -0.00176984   -0.01212617    0.00678816
     atom   19 type  1   force =    -0.04810534    0.04112186    0.00121547
     atom   20 type  1   force =    -0.00175780   -0.01221780    0.02109105
     atom   21 type  1   force =    -0.02452450    0.01694959   -0.00556809
     atom   22 type  1   force =    -0.04368049    0.00856003    0.00624373
     atom   23 type  1   force =     0.00968296   -0.02401684   -0.01018260
     atom   24 type  1   force =     0.02477519    0.01780093    0.04788736
     atom   25 type  1   force =     0.00987428    0.00969507   -0.02447046
     atom   26 type  1   force =    -0.03692369    0.02576177    0.06449056
     atom   27 type  1   force =     0.02230571    0.01731510   -0.04076174
     atom   28 type  1   force =     0.00586816    0.01650990    0.01505536
     atom   29 type  1   force =     0.02025245   -0.01053132   -0.00468201
     atom   30 type  1   force =    -0.03833422    0.01902154    0.00633631
     atom   31 type  1   force =    -0.08476853    0.00325266    0.01146584
     atom   32 type  1   force =     0.02294726   -0.00606280   -0.02251110
     atom   33 type  1   force =    -0.01454895   -0.01038933   -0.00801959
     atom   34 type  1   force =    -0.00114294    0.03339953   -0.01601564
     atom   35 type  1   force =     0.02148348   -0.00268879   -0.00768721
     atom   36 type  1   force =    -0.05913131    0.00610665    0.03889870
     atom   37 type  1   force =    -0.01718965    0.04228025    0.01451329
     atom   38 type  1   force =     0.00133736   -0.00641361    0.00568250
     atom   39 type  1   force =    -0.01135897   -0.02797907    0.04734288
     atom   40 type  1   force =     0.00589430   -0.00678903    0.00799506
     atom   41 type  1   force =    -0.04196277    0.03432079   -0.03489977
     atom   42 type  1   force =     0.00098799    0.01104551   -0.00713695
     atom   43 type  1   force =     0.00748693   -0.00763875    0.02674597
     atom   44 type  1   force =    -0.00033339   -0.00218207    0.03738091
     atom   45 type  1   force =     0.05130959    0.06619107   -0.03640260
     atom   46 type  1   force =    -0.02833376   -0.06377917   -0.03233945
     atom   47 type  1   force =     0.02812682   -0.02837908    0.02356505
     atom   48 type  1   force =    -0.01269954    0.03675456   -0.02745738
     atom   49 type  1   force =     0.08818832   -0.01061083    0.01736812
     atom   50 type  1   force =     0.00641786    0.02121855    0.01898255
     atom   51 type  1   force =     0.03372581   -0.06196022   -0.00432208
     atom   52 type  1   force =     0.01873534   -0.03412077    0.02650609
     atom   53 type  1   force =     0.04413523    0.03260512    0.01773940
     atom   54 type  1   force =    -0.00824845   -0.00803650    0.00249115
     atom   55 type  1   force =    -0.02466890   -0.02438726    0.04353540
     atom   56 type  1   force =    -0.02097290    0.03632059    0.04435066
     atom   57 type  1   force =    -0.00077513   -0.02677116   -0.04701504
     atom   58 type  1   force =    -0.00136607   -0.02759983   -0.03076343
     atom   59 type  1   force =     0.05608035   -0.00343339   -0.09139204
     atom   60 type  1   force =    -0.01042420   -0.01986704   -0.02884378
     atom   61 type  1   force =    -0.07367134   -0.01749325   -0.01069894
     atom   62 type  1   force =     0.00649281   -0.03043974   -0.00092993
     atom   63 type  1   force =     0.01525374    0.00514086   -0.01047795
     atom   64 type  1   force =    -0.02506759   -0.04106957    0.02724068

     Total force =     0.395562     Total SCF correction =     0.001271


     Computing stress (Cartesian axis) and pressure

          total   stress  (Ry/bohr**3)                   (kbar)     P=      -30.31
  -0.00019512   0.00001252   0.00001451          -28.70        1.84        2.13
   0.00001252  -0.00021378   0.00003365            1.84      -31.45        4.95
   0.00001451   0.00003365  -0.00020924            2.13        4.95      -30.78

 
     init_run     :      1.16s CPU      5.00s WALL (       1 calls)
     electrons    :      1.92s CPU      2.04s WALL (       1 calls)
     forces       :      0.03s CPU      0.04s WALL (       1 calls)
     stress       :      0.16s CPU      0.16s WALL (       1 calls)

     Called by init_run:
     wfcinit      :      0.61s CPU      4.28s WALL (       1 calls)
                                        4.28s GPU  (       1 calls)
     potinit      :      0.06s CPU      0.15s WALL (       1 calls)
     hinit0       :      0.47s CPU      0.50s WALL (       1 calls)

     Called by electrons:
     c_bands      :      1.16s CPU      1.21s WALL (      18 calls)
     sum_band     :      0.37s CPU      0.41s WALL (      18 calls)
     v_of_rho     :      0.18s CPU      0.28s WALL (      18 calls)
     mix_rho      :      0.17s CPU      0.18s WALL (      18 calls)

     Called by c_bands:
     init_us_2    :      0.07s CPU      0.07s WALL (      37 calls)
     init_us_2:gp :      0.07s CPU      0.07s WALL (      37 calls)
     regterg      :      1.01s CPU      1.05s WALL (      18 calls)

     Called by *egterg:
     rdiaghg      :      0.43s CPU      1.18s WALL (     100 calls)
                                        1.16s GPU  (     100 calls)
     h_psi        :      1.00s CPU      3.95s WALL (     102 calls)
                                        3.95s GPU  (     102 calls)
     g_psi        :      0.00s CPU      0.00s WALL (      83 calls)
                                        0.00s GPU  (      83 calls)

     Called by h_psi:
     h_psi:calbec :      0.57s CPU      3.45s WALL (     102 calls)
                                        3.45s GPU  (     102 calls)
     vloc_psi     :      0.37s CPU      0.43s WALL (     102 calls)
                                        0.43s GPU  (     102 calls)
     add_vuspsi   :      0.04s CPU      0.06s WALL (     102 calls)
                                        0.06s GPU  (     102 calls)

     General routines
     calbec       :      0.58s CPU      3.45s WALL (     107 calls)
     fft          :      0.62s CPU      0.75s WALL (     151 calls)
                                        0.14s GPU  (      96 calls)
     ffts         :      0.04s CPU      0.05s WALL (      18 calls)
     fftw         :      0.45s CPU      0.59s WALL (    1938 calls)
                                        0.51s GPU  (    1938 calls)
 
     Parallel routines
 
     PWSCF        :      3.32s CPU      7.33s WALL

 
   This run was terminated on:  11: 9:50  10May2023            

=------------------------------------------------------------------------------=
   JOB DONE.
=------------------------------------------------------------------------------=
