An instance of this daemon is already running

     Program PWSCF v.7.1 starts on 10May2023 at 11: 2: 6 

     This program is part of the open-source Quantum ESPRESSO suite
     for quantum simulation of materials; please cite
         "P. Giannozzi et al., J. Phys.:Condens. Matter 21 395502 (2009);
         "P. Giannozzi et al., J. Phys.:Condens. Matter 29 465901 (2017);
         "P. Giannozzi et al., J. Chem. Phys. 152 154105 (2020);
          URL http://www.quantum-espresso.org", 
     in publications or presentations arising from this work. More details at
     http://www.quantum-espresso.org/quote

     Parallel version (MPI & OpenMP), running on       4 processor cores
     Number of MPI processes:                 4
     Threads/MPI process:                     1

     MPI processes distributed on     1 nodes
     753543 MiB available memory on the printing compute node when the environment starts
 
     Reading input from pw-si-50.in
Warning: card &CELL ignored
Warning: card / ignored

     Current dimensions of program PWSCF are:
     Max number of different atomic species (ntypx) = 10
     Max number of k-points (npk) =  40000
     Max angular momentum in pseudopotentials (lmaxx) =  4

     IMPORTANT: XC functional enforced from input :
     Exchange-correlation= PBE
                           (   1   4   3   4   0   0   0)
     Any further DFT definition will be discarded
     Please, verify this is what you really want


     gamma-point specific algorithms are used
 
     K-points division:     npool     =       2
     R & G space division:  proc/nbgrp/npool/nimage =       2
     Subspace diagonalization in iterative solution of the eigenvalue problem:
     a serial algorithm will be used

     Message from routine divide_et_impera:
     suboptimal parallelization: some nodes have no k-points
 
     Parallelization info
     --------------------
     sticks:   dense  smooth     PW     G-vecs:    dense   smooth      PW
     Min        1915    1915    502                89270    89270   12102
     Max        1918    1918    503                89271    89271   12105
     Sum        3833    3833   1005               178541   178541   24207
 
     Using Slab Decomposition
 


     bravais-lattice index     =            0
     lattice parameter (alat)  =      20.0422  a.u.
     unit-cell volume          =    8050.6907 (a.u.)^3
     number of atoms/cell      =           64
     number of atomic types    =            1
     number of electrons       =       256.00
     number of Kohn-Sham states=          154
     kinetic-energy cutoff     =      30.0000  Ry
     charge density cutoff     =     120.0000  Ry
     scf convergence threshold =      1.0E-06
     mixing beta               =       0.5000
     number of iterations used =            8  plain     mixing
     Exchange-correlation= PBE
                           (   1   4   3   4   0   0   0)

     GPU acceleration is ACTIVE.
     GPU-aware MPI enabled

     Message from routine print_cuda_info:
     High GPU oversubscription detected. Are you sure this is what you want?

     celldm(1)=  20.042153  celldm(2)=   0.000000  celldm(3)=   0.000000
     celldm(4)=   0.000000  celldm(5)=   0.000000  celldm(6)=   0.000000

     crystal axes: (cart. coord. in units of alat)
               a(1) = (   1.000000   0.000000   0.000000 )  
               a(2) = (   0.000000   1.000000   0.000000 )  
               a(3) = (   0.000000   0.000000   1.000000 )  

     reciprocal axes: (cart. coord. in units 2 pi/alat)
               b(1) = (  1.000000  0.000000  0.000000 )  
               b(2) = (  0.000000  1.000000  0.000000 )  
               b(3) = (  0.000000  0.000000  1.000000 )  


     PseudoPot. # 1 for Si read from file:
     /home/ppiaggi/pseudos/Si_ONCV_PBE_sr.upf
     MD5 check sum: 8553c464762ac42b85b1eed164b4d029
     Pseudo is Norm-conserving, Zval =  4.0
     Generated using ONCVPSP code by D. R. Hamann
     Using radial grid of 1510 points,  4 beta functions with: 
                l(1) =   0
                l(2) =   0
                l(3) =   1
                l(4) =   1

     atomic species   valence    mass     pseudopotential
        Si             4.00    28.08500     Si( 1.00)

     No symmetry found



   Cartesian axes

     site n.     atom                  positions (alat units)
         1           Si  tau(   1) = (   0.7973580   0.4291900   0.6450310  )
         2           Si  tau(   2) = (   0.4953660   0.3634520   0.0374204  )
         3           Si  tau(   3) = (   0.5894540   0.2389410   0.7222740  )
         4           Si  tau(   4) = (   0.0403749   0.1201570   0.0143728  )
         5           Si  tau(   5) = (   0.9930400   0.5570470   0.7498010  )
         6           Si  tau(   6) = (   0.3769800   0.8624860   0.9198140  )
         7           Si  tau(   7) = (   0.0557153   0.0381454   0.6838140  )
         8           Si  tau(   8) = (   0.4307680   0.0550900   0.4446560  )
         9           Si  tau(   9) = (   0.0742073   0.2756170   0.4453020  )
        10           Si  tau(  10) = (   0.1897380   0.8542130   0.5812860  )
        11           Si  tau(  11) = (   0.3987640   0.4183120   0.2548470  )
        12           Si  tau(  12) = (   0.7700640   0.6473170   0.5707730  )
        13           Si  tau(  13) = (   0.8907430   0.1580950   0.5036050  )
        14           Si  tau(  14) = (   0.3939040   0.7604960   0.5609380  )
        15           Si  tau(  15) = (   0.5754590   0.0877233   0.2316290  )
        16           Si  tau(  16) = (   0.8635940   0.1709540   0.7213980  )
        17           Si  tau(  17) = (   0.7346560   0.8016010   0.4202250  )
        18           Si  tau(  18) = (   0.1863110   0.9964650   0.8749550  )
        19           Si  tau(  19) = (   0.5488480   0.5893500   0.6117730  )
        20           Si  tau(  20) = (   0.9409750   0.2297860   0.2024800  )
        21           Si  tau(  21) = (   0.3534240   0.1456930   0.7384450  )
        22           Si  tau(  22) = (   0.3491340   0.3116980   0.5771850  )
        23           Si  tau(  23) = (   0.7932340   0.3210010   0.0494644  )
        24           Si  tau(  24) = (   0.9978420   0.7295420   0.0286047  )
        25           Si  tau(  25) = (   0.9033060   0.8631690   0.6899090  )
        26           Si  tau(  26) = (   0.5311920   0.4272710   0.4693560  )
        27           Si  tau(  27) = (   0.8546050   0.9738340   0.9059480  )
        28           Si  tau(  28) = (   0.5091560   0.6377000   0.2472130  )
        29           Si  tau(  29) = (   0.3697900   0.6678180   0.7856470  )
        30           Si  tau(  30) = (   0.2006280   0.1108880   0.4951400  )
        31           Si  tau(  31) = (   0.3053320   0.5754000   0.4408560  )
        32           Si  tau(  32) = (   0.2060370   0.7173810   0.2879540  )
        33           Si  tau(  33) = (   0.7888940   0.0562919   0.2539710  )
        34           Si  tau(  34) = (   0.6081360   0.1942730   0.5005740  )
        35           Si  tau(  35) = (   0.7965880   0.3572470   0.3790640  )
        36           Si  tau(  36) = (   0.2412470   0.4643260   0.0526120  )
        37           Si  tau(  37) = (   0.6171400   0.8738230   0.8200450  )
        38           Si  tau(  38) = (   0.1331860   0.4850720   0.5369380  )
        39           Si  tau(  39) = (   0.6900120   0.1479530   0.9096020  )
        40           Si  tau(  40) = (   0.9364270   0.3295480   0.8592800  )
        41           Si  tau(  41) = (   0.8163680   0.8837800   0.0956543  )
        42           Si  tau(  42) = (   0.5662260   0.0012024   0.0394528  )
        43           Si  tau(  43) = (   0.7436040   0.6921830   0.2129020  )
        44           Si  tau(  44) = (   0.6368440   0.2974870   0.2168600  )
        45           Si  tau(  45) = (   0.0720046   0.9300270   0.1218970  )
        46           Si  tau(  46) = (   0.6961640   0.9758980   0.5858790  )
        47           Si  tau(  47) = (   0.8823170   0.5575900   0.3088660  )
        48           Si  tau(  48) = (   0.2441480   0.4511180   0.7580310  )
        49           Si  tau(  49) = (   0.7954580   0.7033810   0.8632830  )
        50           Si  tau(  50) = (   0.1660950   0.3013020   0.8983750  )
        51           Si  tau(  51) = (   0.0767022   0.5689480   0.1683990  )
        52           Si  tau(  52) = (   0.1417950   0.7448230   0.7942880  )
        53           Si  tau(  53) = (   0.4321910   0.6087770   0.0164096  )
        54           Si  tau(  54) = (   0.6185810   0.4646690   0.8240610  )
        55           Si  tau(  55) = (   0.3217020   0.0722340   0.1985840  )
        56           Si  tau(  56) = (   0.9046400   0.9240120   0.4054640  )
        57           Si  tau(  57) = (   0.5194390   0.8297150   0.3851590  )
        58           Si  tau(  58) = (   0.1320420   0.9421510   0.3360610  )
        59           Si  tau(  59) = (   0.3771540   0.8193600   0.1756660  )
        60           Si  tau(  60) = (   0.3660290   0.1759660   0.9825950  )
        61           Si  tau(  61) = (   0.1842800   0.2622290   0.2341590  )
        62           Si  tau(  62) = (   0.4728770   0.9503270   0.6663550  )
        63           Si  tau(  63) = (   0.0246634   0.7055600   0.4917740  )
        64           Si  tau(  64) = (   0.7092770   0.5518080   0.0135153  )

     number of k points=     1  Fermi-Dirac smearing, width (Ry)=  0.0100
                       cart. coord. in units 2pi/alat
        k(    1) = (   0.0000000   0.0000000   0.0000000), wk =   2.0000000

     Dense  grid:    89271 G-vectors     FFT dimensions: (  72,  72,  72)

     Estimated max dynamical RAM per process >     143.65 MB

     Estimated total dynamical RAM >     552.81 MB

     Initial potential from superposition of free atoms

     starting charge     255.9608, renormalised to     256.0000
     Starting wfcs are  256 randomized atomic wfcs

     total cpu time spent up to now is        5.0 secs

     Self-consistent Calculation

     iteration #  1     ecut=    30.00 Ry     beta= 0.50
     Davidson diagonalization with overlap
     ethr =  1.00E-02,  avg # of iterations =  3.0

     Threshold (ethr) on eigenvalues was too large:
     Diagonalizing with lowered threshold

     Davidson diagonalization with overlap
     ethr =  4.02E-04,  avg # of iterations =  4.0

     total cpu time spent up to now is        5.3 secs

     total energy              =    -501.24970616 Ry
     estimated scf accuracy    <       1.25326328 Ry

     iteration #  2     ecut=    30.00 Ry     beta= 0.50
     Davidson diagonalization with overlap
     ethr =  4.90E-04,  avg # of iterations =  4.0

     total cpu time spent up to now is        5.4 secs

     total energy              =    -500.65037379 Ry
     estimated scf accuracy    <       8.31703727 Ry

     iteration #  3     ecut=    30.00 Ry     beta= 0.50
     Davidson diagonalization with overlap
     ethr =  4.90E-04,  avg # of iterations =  4.0

     total cpu time spent up to now is        5.5 secs

     total energy              =    -501.36880518 Ry
     estimated scf accuracy    <       1.65418413 Ry

     iteration #  4     ecut=    30.00 Ry     beta= 0.50
     Davidson diagonalization with overlap
     ethr =  4.90E-04,  avg # of iterations =  2.0

     total cpu time spent up to now is        5.6 secs

     total energy              =    -501.50570832 Ry
     estimated scf accuracy    <       0.59050623 Ry

     iteration #  5     ecut=    30.00 Ry     beta= 0.50
     Davidson diagonalization with overlap
     ethr =  2.31E-04,  avg # of iterations =  2.0

     total cpu time spent up to now is        5.7 secs

     total energy              =    -501.52717942 Ry
     estimated scf accuracy    <       0.41807569 Ry

     iteration #  6     ecut=    30.00 Ry     beta= 0.50
     Davidson diagonalization with overlap
     ethr =  1.63E-04,  avg # of iterations =  2.0

     total cpu time spent up to now is        5.8 secs

     total energy              =    -501.56792155 Ry
     estimated scf accuracy    <       0.03882985 Ry

     iteration #  7     ecut=    30.00 Ry     beta= 0.50
     Davidson diagonalization with overlap
     c_bands:  1 eigenvalues not converged
     ethr =  1.52E-05,  avg # of iterations = 20.0

     total cpu time spent up to now is        6.0 secs

     total energy              =    -501.57213516 Ry
     estimated scf accuracy    <       0.02264701 Ry

     iteration #  8     ecut=    30.00 Ry     beta= 0.50
     Davidson diagonalization with overlap
     ethr =  8.85E-06,  avg # of iterations =  5.0

     total cpu time spent up to now is        6.1 secs

     total energy              =    -501.57440528 Ry
     estimated scf accuracy    <       0.01461755 Ry

     iteration #  9     ecut=    30.00 Ry     beta= 0.50
     Davidson diagonalization with overlap
     ethr =  5.71E-06,  avg # of iterations =  2.0

     total cpu time spent up to now is        6.2 secs

     total energy              =    -501.57542209 Ry
     estimated scf accuracy    <       0.00193654 Ry

     iteration # 10     ecut=    30.00 Ry     beta= 0.50
     Davidson diagonalization with overlap
     ethr =  7.56E-07,  avg # of iterations =  4.0

     total cpu time spent up to now is        6.3 secs

     total energy              =    -501.57555717 Ry
     estimated scf accuracy    <       0.00289466 Ry

     iteration # 11     ecut=    30.00 Ry     beta= 0.50
     Davidson diagonalization with overlap
     ethr =  7.56E-07,  avg # of iterations =  2.0

     total cpu time spent up to now is        6.4 secs

     total energy              =    -501.57574730 Ry
     estimated scf accuracy    <       0.00024157 Ry

     iteration # 12     ecut=    30.00 Ry     beta= 0.50
     Davidson diagonalization with overlap
     ethr =  9.44E-08,  avg # of iterations =  4.0

     total cpu time spent up to now is        6.5 secs

     total energy              =    -501.57577148 Ry
     estimated scf accuracy    <       0.00048035 Ry

     iteration # 13     ecut=    30.00 Ry     beta= 0.50
     Davidson diagonalization with overlap
     ethr =  9.44E-08,  avg # of iterations =  3.0

     total cpu time spent up to now is        6.6 secs

     total energy              =    -501.57580435 Ry
     estimated scf accuracy    <       0.00017149 Ry

     iteration # 14     ecut=    30.00 Ry     beta= 0.50
     Davidson diagonalization with overlap
     ethr =  6.70E-08,  avg # of iterations =  2.0

     total cpu time spent up to now is        6.7 secs

     total energy              =    -501.57581034 Ry
     estimated scf accuracy    <       0.00010484 Ry

     iteration # 15     ecut=    30.00 Ry     beta= 0.50
     Davidson diagonalization with overlap
     ethr =  4.10E-08,  avg # of iterations =  2.0

     total cpu time spent up to now is        6.8 secs

     total energy              =    -501.57581918 Ry
     estimated scf accuracy    <       0.00001514 Ry

     iteration # 16     ecut=    30.00 Ry     beta= 0.50
     Davidson diagonalization with overlap
     ethr =  5.91E-09,  avg # of iterations =  3.0

     total cpu time spent up to now is        6.9 secs

     total energy              =    -501.57582097 Ry
     estimated scf accuracy    <       0.00001242 Ry

     iteration # 17     ecut=    30.00 Ry     beta= 0.50
     Davidson diagonalization with overlap
     ethr =  4.85E-09,  avg # of iterations =  2.0

     total cpu time spent up to now is        7.0 secs

     total energy              =    -501.57582162 Ry
     estimated scf accuracy    <       0.00000443 Ry

     iteration # 18     ecut=    30.00 Ry     beta= 0.50
     Davidson diagonalization with overlap
     ethr =  1.73E-09,  avg # of iterations =  2.0

     total cpu time spent up to now is        7.1 secs

     total energy              =    -501.57582203 Ry
     estimated scf accuracy    <       0.00000275 Ry

     iteration # 19     ecut=    30.00 Ry     beta= 0.50
     Davidson diagonalization with overlap
     ethr =  1.08E-09,  avg # of iterations =  1.0

     total cpu time spent up to now is        7.2 secs

     End of self-consistent calculation

          k = 0.0000 0.0000 0.0000 ( 11168 PWs)   bands (ev):

    -5.3028  -4.3257  -4.1926  -4.1140  -4.0234  -3.9530  -3.8598  -3.2775
    -3.2121  -3.1635  -3.0202  -2.9343  -2.8324  -2.7578  -2.7384  -2.6726
    -2.6224  -2.4883  -2.4461  -2.1167  -1.8038  -1.7486  -1.5736  -1.5636
    -1.4700  -1.3905  -1.2628  -0.7953  -0.7576  -0.5010  -0.4056  -0.2735
    -0.1876  -0.0551   0.0696   0.1755   0.2396   0.3198   0.3556   0.3961
     0.5169   0.6090   0.6936   0.7798   0.8036   0.9137   0.9653   1.0413
     1.0882   1.1833   1.3359   1.3980   1.5462   1.5999   1.6382   1.6895
     1.7722   1.8859   1.9870   2.0786   2.1897   2.2164   2.3878   2.4926
     2.5831   2.7108   2.7801   2.8985   2.9127   3.0455   3.0828   3.1592
     3.2550   3.2644   3.3272   3.4371   3.4789   3.6516   3.7058   3.7764
     3.9146   4.3890   4.5167   4.5749   4.6216   4.6594   4.7546   4.8784
     4.8817   4.8984   5.0147   5.0929   5.1855   5.2051   5.3000   5.3700
     5.4633   5.5046   5.5451   5.6141   5.6201   5.7021   5.7775   5.7847
     5.8498   5.8768   5.9818   6.0440   6.0493   6.1522   6.1856   6.1937
     6.2694   6.3489   6.4298   6.5280   6.5434   6.6451   6.6751   6.6954
     6.7314   6.8336   6.8844   6.9490   7.0821   7.1118   7.1432   7.2107
     7.2902   7.3191   7.3771   7.4263   7.4778   7.5865   7.6141   7.6417
     7.6759   7.8160   7.9187   7.9920   8.0598   8.1533   8.1860   8.2310
     8.3314   8.3704   8.3782   8.4909   8.5359   8.6057   8.6531   8.7490
     8.7720   8.8725

     the Fermi energy is     7.2379 ev

!    total energy              =    -501.57582156 Ry
     estimated scf accuracy    <       0.00000079 Ry
     smearing contrib. (-TS)   =      -0.15168836 Ry
     internal energy E=F+TS    =    -501.42413320 Ry

     The total energy is F=E-TS. E is the sum of the following terms:
     one-electron contribution =     191.99195966 Ry
     hartree contribution      =      23.40350922 Ry
     xc contribution           =    -151.02467721 Ry
     ewald contribution        =    -565.79492487 Ry

     convergence has been achieved in  19 iterations

     Forces acting on atoms (cartesian axes, Ry/au):

     atom    1 type  1   force =    -0.00024983   -0.00374461    0.01046058
     atom    2 type  1   force =     0.00439097    0.01408579   -0.00475453
     atom    3 type  1   force =    -0.00998924    0.01033395    0.01704924
     atom    4 type  1   force =    -0.01098232    0.00414335   -0.03306746
     atom    5 type  1   force =     0.01957529   -0.01490788   -0.01611810
     atom    6 type  1   force =     0.00990973   -0.00235960    0.01261655
     atom    7 type  1   force =     0.02095541   -0.01207386    0.00512275
     atom    8 type  1   force =     0.00506443   -0.01526692   -0.01616467
     atom    9 type  1   force =    -0.00771725    0.05299947   -0.03444004
     atom   10 type  1   force =    -0.02498052   -0.01713042    0.01304919
     atom   11 type  1   force =     0.00799638    0.03370760    0.01736060
     atom   12 type  1   force =     0.00745764   -0.00490976    0.03427922
     atom   13 type  1   force =    -0.01618308   -0.00484615   -0.02381893
     atom   14 type  1   force =    -0.01211172   -0.01915472    0.01195607
     atom   15 type  1   force =    -0.02640684    0.00185076    0.06787649
     atom   16 type  1   force =    -0.01416932   -0.00755708    0.01650470
     atom   17 type  1   force =    -0.03843198   -0.00927710   -0.00233654
     atom   18 type  1   force =     0.00103893    0.01522077   -0.01997604
     atom   19 type  1   force =     0.03492440    0.01546377    0.04879920
     atom   20 type  1   force =    -0.01446351   -0.01198537    0.00442690
     atom   21 type  1   force =     0.01795914   -0.00783760    0.02637617
     atom   22 type  1   force =    -0.01218016    0.01381375    0.02235746
     atom   23 type  1   force =    -0.00157297    0.01211162   -0.04961630
     atom   24 type  1   force =    -0.00171037    0.03135317   -0.02665234
     atom   25 type  1   force =    -0.00513664   -0.01312318    0.01807848
     atom   26 type  1   force =    -0.02945108   -0.04177125   -0.03282895
     atom   27 type  1   force =     0.00999964    0.04229053   -0.05374295
     atom   28 type  1   force =     0.03021857   -0.00962520   -0.01225723
     atom   29 type  1   force =    -0.02200075   -0.00872204    0.00998859
     atom   30 type  1   force =     0.05497075   -0.05729806    0.01869967
     atom   31 type  1   force =     0.03175961    0.01027959   -0.03080096
     atom   32 type  1   force =    -0.01626501    0.00928699    0.00874969
     atom   33 type  1   force =     0.05905365   -0.01915139   -0.00944821
     atom   34 type  1   force =     0.01379358    0.00277003    0.01197242
     atom   35 type  1   force =    -0.01462121   -0.01409965    0.01335234
     atom   36 type  1   force =     0.00313848   -0.02989163    0.00689554
     atom   37 type  1   force =     0.01471515    0.00186823    0.03770661
     atom   38 type  1   force =    -0.01959979   -0.02397812    0.05357184
     atom   39 type  1   force =     0.01752693   -0.01564298   -0.00538289
     atom   40 type  1   force =     0.02576634    0.02935510    0.01087388
     atom   41 type  1   force =     0.00098218   -0.02281740    0.04560858
     atom   42 type  1   force =    -0.01257228   -0.02834086   -0.08816045
     atom   43 type  1   force =    -0.05732693    0.01531389   -0.03282271
     atom   44 type  1   force =    -0.00938196    0.02769710    0.00027402
     atom   45 type  1   force =    -0.01813990   -0.02816539   -0.00304934
     atom   46 type  1   force =     0.00528861    0.00947352    0.00499592
     atom   47 type  1   force =     0.06726350   -0.01064066    0.01731835
     atom   48 type  1   force =    -0.00939637    0.02882792   -0.06083560
     atom   49 type  1   force =     0.02610447    0.02800029   -0.01261199
     atom   50 type  1   force =    -0.00037741   -0.00406227    0.04569687
     atom   51 type  1   force =    -0.01896712    0.01900709    0.02685590
     atom   52 type  1   force =    -0.01533253   -0.00460555   -0.00182033
     atom   53 type  1   force =     0.01236730   -0.02082625   -0.00192022
     atom   54 type  1   force =    -0.00652098   -0.02569335   -0.04130961
     atom   55 type  1   force =    -0.01153567   -0.01315489   -0.00099257
     atom   56 type  1   force =     0.05042707    0.06026521    0.00063020
     atom   57 type  1   force =    -0.02912256    0.02604648   -0.02196254
     atom   58 type  1   force =    -0.00019968   -0.02541317    0.00421952
     atom   59 type  1   force =    -0.00466876    0.02336177   -0.01869561
     atom   60 type  1   force =    -0.00311515    0.00119985   -0.00675440
     atom   61 type  1   force =    -0.01754616    0.01173345    0.01105617
     atom   62 type  1   force =    -0.00310711    0.02271540   -0.00817835
     atom   63 type  1   force =    -0.02174924    0.00120185    0.00783420
     atom   64 type  1   force =    -0.01536477   -0.02770393    0.00790594

     Total force =     0.338607     Total SCF correction =     0.001819


     Computing stress (Cartesian axis) and pressure

          total   stress  (Ry/bohr**3)                   (kbar)     P=      -31.26
  -0.00022123   0.00001104  -0.00000190          -32.54        1.62       -0.28
   0.00001104  -0.00027790  -0.00003942            1.62      -40.88       -5.80
  -0.00000190  -0.00003942  -0.00013829           -0.28       -5.80      -20.34

 
     init_run     :      1.11s CPU      4.93s WALL (       1 calls)
     electrons    :      2.02s CPU      2.19s WALL (       1 calls)
     forces       :      0.04s CPU      0.04s WALL (       1 calls)
     stress       :      0.15s CPU      0.15s WALL (       1 calls)

     Called by init_run:
     wfcinit      :      0.58s CPU      4.22s WALL (       1 calls)
                                        4.22s GPU  (       1 calls)
     potinit      :      0.05s CPU      0.14s WALL (       1 calls)
     hinit0       :      0.47s CPU      0.50s WALL (       1 calls)

     Called by electrons:
     c_bands      :      1.21s CPU      1.28s WALL (      20 calls)
     sum_band     :      0.40s CPU      0.46s WALL (      20 calls)
     v_of_rho     :      0.18s CPU      0.30s WALL (      20 calls)
     mix_rho      :      0.19s CPU      0.20s WALL (      20 calls)

     Called by c_bands:
     init_us_2    :      0.07s CPU      0.08s WALL (      41 calls)
     init_us_2:gp :      0.07s CPU      0.07s WALL (      41 calls)
     regterg      :      1.03s CPU      1.10s WALL (      20 calls)

     Called by *egterg:
     rdiaghg      :      0.43s CPU      1.19s WALL (      92 calls)
                                        1.17s GPU  (      92 calls)
     h_psi        :      0.98s CPU      3.92s WALL (      94 calls)
                                        3.91s GPU  (      94 calls)
     g_psi        :      0.00s CPU      0.00s WALL (      73 calls)
                                        0.00s GPU  (      73 calls)

     Called by h_psi:
     h_psi:calbec :      0.53s CPU      3.39s WALL (      94 calls)
                                        3.39s GPU  (      94 calls)
     vloc_psi     :      0.39s CPU      0.47s WALL (      94 calls)
                                        0.46s GPU  (      94 calls)
     add_vuspsi   :      0.04s CPU      0.06s WALL (      94 calls)
                                        0.05s GPU  (      94 calls)

     General routines
     calbec       :      0.54s CPU      3.39s WALL (      99 calls)
     fft          :      0.62s CPU      0.76s WALL (     167 calls)
                                        0.13s GPU  (     106 calls)
     ffts         :      0.05s CPU      0.05s WALL (      20 calls)
     fftw         :      0.49s CPU      0.64s WALL (    2112 calls)
                                        0.55s GPU  (    2112 calls)
 
     Parallel routines
 
     PWSCF        :      3.36s CPU      7.40s WALL

 
   This run was terminated on:  11: 2:13  10May2023            

=------------------------------------------------------------------------------=
   JOB DONE.
=------------------------------------------------------------------------------=
