An instance of this daemon is already running

     Program PWSCF v.7.1 starts on 10May2023 at 10:56: 6 

     This program is part of the open-source Quantum ESPRESSO suite
     for quantum simulation of materials; please cite
         "P. Giannozzi et al., J. Phys.:Condens. Matter 21 395502 (2009);
         "P. Giannozzi et al., J. Phys.:Condens. Matter 29 465901 (2017);
         "P. Giannozzi et al., J. Chem. Phys. 152 154105 (2020);
          URL http://www.quantum-espresso.org", 
     in publications or presentations arising from this work. More details at
     http://www.quantum-espresso.org/quote

     Parallel version (MPI & OpenMP), running on       4 processor cores
     Number of MPI processes:                 4
     Threads/MPI process:                     1

     MPI processes distributed on     1 nodes
     753552 MiB available memory on the printing compute node when the environment starts
 
     Reading input from pw-si-13.in
Warning: card &CELL ignored
Warning: card / ignored

     Current dimensions of program PWSCF are:
     Max number of different atomic species (ntypx) = 10
     Max number of k-points (npk) =  40000
     Max angular momentum in pseudopotentials (lmaxx) =  4

     IMPORTANT: XC functional enforced from input :
     Exchange-correlation= PBE
                           (   1   4   3   4   0   0   0)
     Any further DFT definition will be discarded
     Please, verify this is what you really want


     gamma-point specific algorithms are used
 
     K-points division:     npool     =       2
     R & G space division:  proc/nbgrp/npool/nimage =       2
     Subspace diagonalization in iterative solution of the eigenvalue problem:
     a serial algorithm will be used

     Message from routine divide_et_impera:
     suboptimal parallelization: some nodes have no k-points
 
     Parallelization info
     --------------------
     sticks:   dense  smooth     PW     G-vecs:    dense   smooth      PW
     Min        1954    1954    520                92150    92150   12584
     Max        1955    1955    521                92157    92157   12589
     Sum        3909    3909   1041               184307   184307   25173
 
     Using Slab Decomposition
 


     bravais-lattice index     =            0
     lattice parameter (alat)  =      20.2482  a.u.
     unit-cell volume          =    8301.5552 (a.u.)^3
     number of atoms/cell      =           64
     number of atomic types    =            1
     number of electrons       =       256.00
     number of Kohn-Sham states=          154
     kinetic-energy cutoff     =      30.0000  Ry
     charge density cutoff     =     120.0000  Ry
     scf convergence threshold =      1.0E-06
     mixing beta               =       0.5000
     number of iterations used =            8  plain     mixing
     Exchange-correlation= PBE
                           (   1   4   3   4   0   0   0)

     GPU acceleration is ACTIVE.
     GPU-aware MPI enabled

     Message from routine print_cuda_info:
     High GPU oversubscription detected. Are you sure this is what you want?

     celldm(1)=  20.248203  celldm(2)=   0.000000  celldm(3)=   0.000000
     celldm(4)=   0.000000  celldm(5)=   0.000000  celldm(6)=   0.000000

     crystal axes: (cart. coord. in units of alat)
               a(1) = (   1.000000   0.000000   0.000000 )  
               a(2) = (   0.000000   1.000000   0.000000 )  
               a(3) = (   0.000000   0.000000   1.000000 )  

     reciprocal axes: (cart. coord. in units 2 pi/alat)
               b(1) = (  1.000000  0.000000  0.000000 )  
               b(2) = (  0.000000  1.000000  0.000000 )  
               b(3) = (  0.000000  0.000000  1.000000 )  


     PseudoPot. # 1 for Si read from file:
     /home/ppiaggi/pseudos/Si_ONCV_PBE_sr.upf
     MD5 check sum: 8553c464762ac42b85b1eed164b4d029
     Pseudo is Norm-conserving, Zval =  4.0
     Generated using ONCVPSP code by D. R. Hamann
     Using radial grid of 1510 points,  4 beta functions with: 
                l(1) =   0
                l(2) =   0
                l(3) =   1
                l(4) =   1

     atomic species   valence    mass     pseudopotential
        Si             4.00    28.08500     Si( 1.00)

     No symmetry found



   Cartesian axes

     site n.     atom                  positions (alat units)
         1           Si  tau(   1) = (   0.9100890   0.6135690   0.8667750  )
         2           Si  tau(   2) = (   0.7619750   0.2614600   0.9960590  )
         3           Si  tau(   3) = (   0.9679060   0.4129410   0.7554390  )
         4           Si  tau(   4) = (   0.6518100   0.3514940   0.1516010  )
         5           Si  tau(   5) = (   0.5171540   0.8266060   0.7954350  )
         6           Si  tau(   6) = (   0.3175100   0.0131985   0.4481640  )
         7           Si  tau(   7) = (   0.9643290   0.1594250   0.8225290  )
         8           Si  tau(   8) = (   0.5738740   0.0530162   0.9705300  )
         9           Si  tau(   9) = (   0.0070718   0.9731950   0.6353940  )
        10           Si  tau(  10) = (   0.0933442   0.6833780   0.7500820  )
        11           Si  tau(  11) = (   0.3634840   0.2230690   0.9672730  )
        12           Si  tau(  12) = (   0.2922080   0.2304840   0.3567450  )
        13           Si  tau(  13) = (   0.7294130   0.8577900   0.6727270  )
        14           Si  tau(  14) = (   0.2115880   0.3764930   0.8892810  )
        15           Si  tau(  15) = (   0.8051180   0.5500940   0.1632480  )
        16           Si  tau(  16) = (   0.8859090   0.4524510   0.4252400  )
        17           Si  tau(  17) = (   0.0140507   0.3257640   0.0145043  )
        18           Si  tau(  18) = (   0.2017810   0.8851680   0.6355890  )
        19           Si  tau(  19) = (   0.6597760   0.4563070   0.3472930  )
        20           Si  tau(  20) = (   0.9641220   0.9203250   0.4410430  )
        21           Si  tau(  21) = (   0.5524000   0.6474070   0.3290080  )
        22           Si  tau(  22) = (   0.9354210   0.1929870   0.1832420  )
        23           Si  tau(  23) = (   0.0390839   0.2298660   0.5807000  )
        24           Si  tau(  24) = (   0.3002480   0.1197190   0.1334430  )
        25           Si  tau(  25) = (   0.5697460   0.4263070   0.5739660  )
        26           Si  tau(  26) = (   0.7463340   0.1057500   0.7572180  )
        27           Si  tau(  27) = (   0.3759180   0.4274720   0.2984700  )
        28           Si  tau(  28) = (   0.7208410   0.6236620   0.6832750  )
        29           Si  tau(  29) = (   0.1624670   0.9493020   0.3200630  )
        30           Si  tau(  30) = (   0.7887730   0.7324410   0.3048540  )
        31           Si  tau(  31) = (   0.2906770   0.5822370   0.9355840  )
        32           Si  tau(  32) = (   0.3318970   0.9534990   0.8063720  )
        33           Si  tau(  33) = (   0.7677410   0.0465086   0.2910640  )
        34           Si  tau(  34) = (   0.2694090   0.7636180   0.2481410  )
        35           Si  tau(  35) = (   0.1015480   0.9389010   0.9141340  )
        36           Si  tau(  36) = (   0.6907060   0.5889300   0.9679080  )
        37           Si  tau(  37) = (   0.2801850   0.7278550   0.4828770  )
        38           Si  tau(  38) = (   0.3350790   0.4660960   0.5522590  )
        39           Si  tau(  39) = (   0.0781371   0.0393383   0.1077100  )
        40           Si  tau(  40) = (   0.5058690   0.7301530   0.5390980  )
        41           Si  tau(  41) = (   0.5151980   0.9107950   0.4190150  )
        42           Si  tau(  42) = (   0.4540890   0.9395410   0.1984880  )
        43           Si  tau(  43) = (   0.8055460   0.0119499   0.0108820  )
        44           Si  tau(  44) = (   0.5311610   0.2269620   0.7919370  )
        45           Si  tau(  45) = (   0.4392090   0.6394640   0.1380940  )
        46           Si  tau(  46) = (   0.4222840   0.6115360   0.7600890  )
        47           Si  tau(  47) = (   0.2367920   0.2975390   0.6782420  )
        48           Si  tau(  48) = (   0.5292440   0.2059570   0.4764240  )
        49           Si  tau(  49) = (   0.0409797   0.2980440   0.3601400  )
        50           Si  tau(  50) = (   0.8178480   0.2720140   0.5548240  )
        51           Si  tau(  51) = (   0.1782940   0.5359550   0.2773820  )
        52           Si  tau(  52) = (   0.3785430   0.1353310   0.6624410  )
        53           Si  tau(  53) = (   0.0284415   0.5156820   0.0870302  )
        54           Si  tau(  54) = (   0.8898920   0.6822560   0.5111610  )
        55           Si  tau(  55) = (   0.7147150   0.8753080   0.1494380  )
        56           Si  tau(  56) = (   0.1213680   0.5888080   0.5002660  )
        57           Si  tau(  57) = (   0.5553720   0.7633900   0.0021277  )
        58           Si  tau(  58) = (   0.8952610   0.8633100   0.8339990  )
        59           Si  tau(  59) = (   0.7573560   0.3704500   0.7643760  )
        60           Si  tau(  60) = (   0.5566010   0.1631080   0.2373860  )
        61           Si  tau(  61) = (   0.4418580   0.4217520   0.0840950  )
        62           Si  tau(  62) = (   0.1321470   0.7295020   0.0322113  )
        63           Si  tau(  63) = (   0.7127560   0.0415779   0.5042800  )
        64           Si  tau(  64) = (   0.5422800   0.4404120   0.8692240  )

     number of k points=     1  Fermi-Dirac smearing, width (Ry)=  0.0100
                       cart. coord. in units 2pi/alat
        k(    1) = (   0.0000000   0.0000000   0.0000000), wk =   2.0000000

     Dense  grid:    92154 G-vectors     FFT dimensions: (  72,  72,  72)

     Estimated max dynamical RAM per process >     147.65 MB

     Estimated total dynamical RAM >     568.12 MB

     Initial potential from superposition of free atoms

     starting charge     255.9608, renormalised to     256.0000
     Starting wfcs are  256 randomized atomic wfcs

     total cpu time spent up to now is        5.0 secs

     Self-consistent Calculation

     iteration #  1     ecut=    30.00 Ry     beta= 0.50
     Davidson diagonalization with overlap
     ethr =  1.00E-02,  avg # of iterations =  3.0

     Threshold (ethr) on eigenvalues was too large:
     Diagonalizing with lowered threshold

     Davidson diagonalization with overlap
     ethr =  4.41E-04,  avg # of iterations =  4.0

     total cpu time spent up to now is        5.3 secs

     total energy              =    -501.24573098 Ry
     estimated scf accuracy    <       1.34209994 Ry

     iteration #  2     ecut=    30.00 Ry     beta= 0.50
     Davidson diagonalization with overlap
     ethr =  5.24E-04,  avg # of iterations =  5.0

     total cpu time spent up to now is        5.4 secs

     total energy              =    -500.46407472 Ry
     estimated scf accuracy    <      10.88237472 Ry

     iteration #  3     ecut=    30.00 Ry     beta= 0.50
     Davidson diagonalization with overlap
     ethr =  5.24E-04,  avg # of iterations =  5.0

     total cpu time spent up to now is        5.6 secs

     total energy              =    -501.38629015 Ry
     estimated scf accuracy    <       1.75825724 Ry

     iteration #  4     ecut=    30.00 Ry     beta= 0.50
     Davidson diagonalization with overlap
     ethr =  5.24E-04,  avg # of iterations =  2.0

     total cpu time spent up to now is        5.6 secs

     total energy              =    -501.49826874 Ry
     estimated scf accuracy    <       0.59899127 Ry

     iteration #  5     ecut=    30.00 Ry     beta= 0.50
     Davidson diagonalization with overlap
     ethr =  2.34E-04,  avg # of iterations =  2.0

     total cpu time spent up to now is        5.7 secs

     total energy              =    -501.52684923 Ry
     estimated scf accuracy    <       0.47440350 Ry

     iteration #  6     ecut=    30.00 Ry     beta= 0.50
     Davidson diagonalization with overlap
     ethr =  1.85E-04,  avg # of iterations =  2.0

     total cpu time spent up to now is        5.8 secs

     total energy              =    -501.56990980 Ry
     estimated scf accuracy    <       0.06814381 Ry

     iteration #  7     ecut=    30.00 Ry     beta= 0.50
     Davidson diagonalization with overlap
     ethr =  2.66E-05,  avg # of iterations = 13.0

     total cpu time spent up to now is        6.0 secs

     total energy              =    -501.57847940 Ry
     estimated scf accuracy    <       0.01244235 Ry

     iteration #  8     ecut=    30.00 Ry     beta= 0.50
     Davidson diagonalization with overlap
     ethr =  4.86E-06,  avg # of iterations = 12.0

     total cpu time spent up to now is        6.2 secs

     total energy              =    -501.57906096 Ry
     estimated scf accuracy    <       0.02127679 Ry

     iteration #  9     ecut=    30.00 Ry     beta= 0.50
     Davidson diagonalization with overlap
     ethr =  4.86E-06,  avg # of iterations =  2.0

     total cpu time spent up to now is        6.3 secs

     total energy              =    -501.58087972 Ry
     estimated scf accuracy    <       0.00286842 Ry

     iteration # 10     ecut=    30.00 Ry     beta= 0.50
     Davidson diagonalization with overlap
     ethr =  1.12E-06,  avg # of iterations =  2.0

     total cpu time spent up to now is        6.4 secs

     total energy              =    -501.58118295 Ry
     estimated scf accuracy    <       0.00069801 Ry

     iteration # 11     ecut=    30.00 Ry     beta= 0.50
     Davidson diagonalization with overlap
     ethr =  2.73E-07,  avg # of iterations =  3.0

     total cpu time spent up to now is        6.5 secs

     total energy              =    -501.58119949 Ry
     estimated scf accuracy    <       0.00064278 Ry

     iteration # 12     ecut=    30.00 Ry     beta= 0.50
     Davidson diagonalization with overlap
     ethr =  2.51E-07,  avg # of iterations =  2.0

     total cpu time spent up to now is        6.6 secs

     total energy              =    -501.58126764 Ry
     estimated scf accuracy    <       0.00030961 Ry

     iteration # 13     ecut=    30.00 Ry     beta= 0.50
     Davidson diagonalization with overlap
     ethr =  1.21E-07,  avg # of iterations =  1.0

     total cpu time spent up to now is        6.6 secs

     total energy              =    -501.58129289 Ry
     estimated scf accuracy    <       0.00002553 Ry

     iteration # 14     ecut=    30.00 Ry     beta= 0.50
     Davidson diagonalization with overlap
     ethr =  9.97E-09,  avg # of iterations =  4.0

     total cpu time spent up to now is        6.8 secs

     total energy              =    -501.58129598 Ry
     estimated scf accuracy    <       0.00001362 Ry

     iteration # 15     ecut=    30.00 Ry     beta= 0.50
     Davidson diagonalization with overlap
     ethr =  5.32E-09,  avg # of iterations =  3.0

     total cpu time spent up to now is        6.9 secs

     total energy              =    -501.58129712 Ry
     estimated scf accuracy    <       0.00001486 Ry

     iteration # 16     ecut=    30.00 Ry     beta= 0.50
     Davidson diagonalization with overlap
     ethr =  5.32E-09,  avg # of iterations =  2.0

     total cpu time spent up to now is        7.0 secs

     total energy              =    -501.58129834 Ry
     estimated scf accuracy    <       0.00000497 Ry

     iteration # 17     ecut=    30.00 Ry     beta= 0.50
     Davidson diagonalization with overlap
     ethr =  1.94E-09,  avg # of iterations =  2.0

     total cpu time spent up to now is        7.0 secs

     End of self-consistent calculation

          k = 0.0000 0.0000 0.0000 ( 11492 PWs)   bands (ev):

    -5.5037  -4.6647  -4.5655  -4.2539  -4.1692  -4.1380  -4.0756  -3.5698
    -3.4254  -3.3937  -3.3281  -3.1941  -3.0846  -3.0721  -3.0285  -2.9231
    -2.7813  -2.7327  -2.6757  -2.2901  -2.2351  -2.0803  -2.0342  -1.8677
    -1.7798  -1.6821  -1.5015  -1.0331  -0.9746  -0.7856  -0.7519  -0.6949
    -0.5432  -0.4747  -0.2511  -0.1819  -0.1426  -0.0381   0.0427   0.0825
     0.0889   0.1379   0.3876   0.4721   0.5119   0.6397   0.6932   0.7490
     0.9099   0.9790   1.0772   1.2054   1.2450   1.2994   1.3558   1.5085
     1.5894   1.6028   1.7500   1.8332   1.9029   1.9885   2.1730   2.1880
     2.3782   2.3832   2.4568   2.5524   2.6093   2.6576   2.8014   2.8625
     2.9455   3.0452   3.1276   3.1748   3.2930   3.3570   3.5122   3.5531
     4.0160   4.0592   4.1169   4.1628   4.2029   4.3109   4.3885   4.4196
     4.4988   4.5473   4.6713   4.7764   4.8446   4.8569   4.8624   4.9302
     5.0323   5.0999   5.1209   5.1862   5.2502   5.2968   5.3866   5.4046
     5.5232   5.6143   5.6426   5.7134   5.7475   5.7720   5.8511   5.8959
     5.9456   5.9996   6.0563   6.0902   6.1678   6.2202   6.2490   6.3141
     6.3554   6.3970   6.5424   6.5746   6.5879   6.7144   6.7584   6.8464
     6.8549   6.9381   7.0399   7.0712   7.1221   7.1380   7.2697   7.3355
     7.3905   7.5225   7.5569   7.6186   7.6924   7.7643   7.7891   7.8143
     7.8953   8.0172   8.0890   8.1226   8.2170   8.2791   8.3254   8.4368
     8.5095   8.5744

     the Fermi energy is     6.8515 ev

!    total energy              =    -501.58129842 Ry
     estimated scf accuracy    <       0.00000055 Ry
     smearing contrib. (-TS)   =      -0.14236848 Ry
     internal energy E=F+TS    =    -501.43892994 Ry

     The total energy is F=E-TS. E is the sum of the following terms:
     one-electron contribution =     176.50573811 Ry
     hartree contribution      =      27.87573661 Ry
     xc contribution           =    -150.55168927 Ry
     ewald contribution        =    -555.26871540 Ry

     convergence has been achieved in  17 iterations

     Forces acting on atoms (cartesian axes, Ry/au):

     atom    1 type  1   force =    -0.01732437    0.01472918    0.00048640
     atom    2 type  1   force =     0.05442041   -0.03769854   -0.04099485
     atom    3 type  1   force =     0.03181362    0.02230110   -0.00328582
     atom    4 type  1   force =    -0.04505108    0.01036272    0.02572172
     atom    5 type  1   force =     0.00743965    0.00246420   -0.00766866
     atom    6 type  1   force =     0.02480192    0.04254639    0.04802019
     atom    7 type  1   force =    -0.01639862   -0.02126632   -0.01005552
     atom    8 type  1   force =     0.01110989   -0.00145648   -0.01110403
     atom    9 type  1   force =    -0.01579586    0.04889657    0.07590914
     atom   10 type  1   force =     0.00182556    0.01155421   -0.01503866
     atom   11 type  1   force =     0.02185622    0.05804380   -0.04528322
     atom   12 type  1   force =    -0.00629539   -0.02134213   -0.03833225
     atom   13 type  1   force =    -0.01938779   -0.00684250    0.00413730
     atom   14 type  1   force =    -0.01505003   -0.02186677    0.00608903
     atom   15 type  1   force =     0.03177298    0.00162951    0.00748354
     atom   16 type  1   force =    -0.02520600    0.01623097   -0.00766399
     atom   17 type  1   force =     0.00478172   -0.05692019   -0.06912752
     atom   18 type  1   force =     0.03827580   -0.02921666   -0.00305018
     atom   19 type  1   force =     0.02205419    0.00705873    0.03185060
     atom   20 type  1   force =    -0.02095468   -0.03331475   -0.07805268
     atom   21 type  1   force =     0.03642466    0.00360237    0.02358280
     atom   22 type  1   force =    -0.02754834   -0.03548785    0.01599375
     atom   23 type  1   force =     0.00516987   -0.01756266    0.02201463
     atom   24 type  1   force =    -0.02945609   -0.04107501    0.09053258
     atom   25 type  1   force =     0.00268817   -0.01762238   -0.00584980
     atom   26 type  1   force =    -0.00367087    0.02946310    0.02036590
     atom   27 type  1   force =    -0.02554631    0.00071497    0.02549440
     atom   28 type  1   force =     0.00975281    0.01397138   -0.02034644
     atom   29 type  1   force =    -0.07063281   -0.02916203   -0.05453353
     atom   30 type  1   force =    -0.02677820   -0.03619342   -0.01821796
     atom   31 type  1   force =    -0.02549850    0.01227866    0.00280438
     atom   32 type  1   force =    -0.02122587    0.02429713   -0.02217816
     atom   33 type  1   force =     0.01620474    0.02253707   -0.00099733
     atom   34 type  1   force =    -0.00058997   -0.02642993   -0.02101717
     atom   35 type  1   force =     0.00922800   -0.01558772    0.00175544
     atom   36 type  1   force =     0.01328106   -0.00827724   -0.00800939
     atom   37 type  1   force =     0.04157576    0.05004975    0.00056967
     atom   38 type  1   force =     0.00452608    0.01085286    0.02493399
     atom   39 type  1   force =     0.03857688    0.00801475    0.04635633
     atom   40 type  1   force =    -0.01100953   -0.02233594   -0.00548539
     atom   41 type  1   force =     0.00060582    0.04171778   -0.01695812
     atom   42 type  1   force =     0.00442069    0.02084189   -0.00868664
     atom   43 type  1   force =     0.01904993    0.03385261   -0.05853831
     atom   44 type  1   force =     0.02866155   -0.00621318    0.03208981
     atom   45 type  1   force =    -0.03311962    0.02770314    0.01573390
     atom   46 type  1   force =     0.00497993   -0.01622682   -0.02529091
     atom   47 type  1   force =    -0.02366825    0.03130170   -0.01622201
     atom   48 type  1   force =     0.00273526   -0.00634328   -0.00018455
     atom   49 type  1   force =     0.03820881    0.00524586    0.00335936
     atom   50 type  1   force =    -0.01802663    0.00104502    0.01734176
     atom   51 type  1   force =    -0.01930228    0.00665643    0.00656065
     atom   52 type  1   force =     0.00586404   -0.04127602   -0.01168014
     atom   53 type  1   force =    -0.01987211    0.10233496    0.05308775
     atom   54 type  1   force =     0.00852840   -0.01397925   -0.00551252
     atom   55 type  1   force =    -0.02922700   -0.02317314    0.00641474
     atom   56 type  1   force =    -0.02880897   -0.02994509    0.00260149
     atom   57 type  1   force =     0.04741693    0.01380263    0.02113817
     atom   58 type  1   force =     0.00235054   -0.01577899   -0.01504652
     atom   59 type  1   force =    -0.05001740   -0.02584813    0.00469502
     atom   60 type  1   force =     0.01476331   -0.01088752    0.03663815
     atom   61 type  1   force =     0.01811757   -0.02601730   -0.02545231
     atom   62 type  1   force =     0.02810669   -0.03609408   -0.00393944
     atom   63 type  1   force =    -0.03698414    0.00945482    0.00880930
     atom   64 type  1   force =     0.03105724    0.02588506   -0.00876786

     Total force =     0.390070     Total SCF correction =     0.001354


     Computing stress (Cartesian axis) and pressure

          total   stress  (Ry/bohr**3)                   (kbar)     P=      -36.47
  -0.00029548  -0.00000955  -0.00000854          -43.47       -1.40       -1.26
  -0.00000955  -0.00017975   0.00003006           -1.40      -26.44        4.42
  -0.00000854   0.00003006  -0.00026849           -1.26        4.42      -39.50

 
     init_run     :      1.11s CPU      4.96s WALL (       1 calls)
     electrons    :      1.87s CPU      2.00s WALL (       1 calls)
     forces       :      0.04s CPU      0.04s WALL (       1 calls)
     stress       :      0.16s CPU      0.16s WALL (       1 calls)

     Called by init_run:
     wfcinit      :      0.57s CPU      4.24s WALL (       1 calls)
                                        4.24s GPU  (       1 calls)
     potinit      :      0.05s CPU      0.15s WALL (       1 calls)
     hinit0       :      0.47s CPU      0.50s WALL (       1 calls)

     Called by electrons:
     c_bands      :      1.12s CPU      1.18s WALL (      18 calls)
     sum_band     :      0.37s CPU      0.41s WALL (      18 calls)
     v_of_rho     :      0.18s CPU      0.28s WALL (      18 calls)
     mix_rho      :      0.17s CPU      0.18s WALL (      18 calls)

     Called by c_bands:
     init_us_2    :      0.07s CPU      0.07s WALL (      37 calls)
     init_us_2:gp :      0.07s CPU      0.07s WALL (      37 calls)
     regterg      :      0.98s CPU      1.03s WALL (      18 calls)

     Called by *egterg:
     rdiaghg      :      0.43s CPU      1.17s WALL (      86 calls)
                                        1.16s GPU  (      86 calls)
     h_psi        :      0.94s CPU      3.90s WALL (      88 calls)
                                        3.89s GPU  (      88 calls)
     g_psi        :      0.00s CPU      0.00s WALL (      69 calls)
                                        0.00s GPU  (      69 calls)

     Called by h_psi:
     h_psi:calbec :      0.52s CPU      3.40s WALL (      88 calls)
                                        3.40s GPU  (      88 calls)
     vloc_psi     :      0.36s CPU      0.43s WALL (      88 calls)
                                        0.43s GPU  (      88 calls)
     add_vuspsi   :      0.04s CPU      0.05s WALL (      88 calls)
                                        0.05s GPU  (      88 calls)

     General routines
     calbec       :      0.53s CPU      3.41s WALL (      93 calls)
     fft          :      0.63s CPU      0.75s WALL (     151 calls)
                                        0.14s GPU  (      96 calls)
     ffts         :      0.04s CPU      0.05s WALL (      18 calls)
     fftw         :      0.44s CPU      0.57s WALL (    1914 calls)
                                        0.50s GPU  (    1914 calls)
 
     Parallel routines
 
     PWSCF        :      3.23s CPU      7.25s WALL

 
   This run was terminated on:  10:56:13  10May2023            

=------------------------------------------------------------------------------=
   JOB DONE.
=------------------------------------------------------------------------------=
