An instance of this daemon is already running

     Program PWSCF v.7.1 starts on 10May2023 at 11: 5:30 

     This program is part of the open-source Quantum ESPRESSO suite
     for quantum simulation of materials; please cite
         "P. Giannozzi et al., J. Phys.:Condens. Matter 21 395502 (2009);
         "P. Giannozzi et al., J. Phys.:Condens. Matter 29 465901 (2017);
         "P. Giannozzi et al., J. Chem. Phys. 152 154105 (2020);
          URL http://www.quantum-espresso.org", 
     in publications or presentations arising from this work. More details at
     http://www.quantum-espresso.org/quote

     Parallel version (MPI & OpenMP), running on       4 processor cores
     Number of MPI processes:                 4
     Threads/MPI process:                     1

     MPI processes distributed on     1 nodes
     753556 MiB available memory on the printing compute node when the environment starts
 
     Reading input from pw-si-71.in
Warning: card &CELL ignored
Warning: card / ignored

     Current dimensions of program PWSCF are:
     Max number of different atomic species (ntypx) = 10
     Max number of k-points (npk) =  40000
     Max angular momentum in pseudopotentials (lmaxx) =  4

     IMPORTANT: XC functional enforced from input :
     Exchange-correlation= PBE
                           (   1   4   3   4   0   0   0)
     Any further DFT definition will be discarded
     Please, verify this is what you really want


     gamma-point specific algorithms are used
 
     K-points division:     npool     =       2
     R & G space division:  proc/nbgrp/npool/nimage =       2
     Subspace diagonalization in iterative solution of the eigenvalue problem:
     a serial algorithm will be used

     Message from routine divide_et_impera:
     suboptimal parallelization: some nodes have no k-points
 
     Parallelization info
     --------------------
     sticks:   dense  smooth     PW     G-vecs:    dense   smooth      PW
     Min        1945    1945    519                91431    91431   12442
     Max        1948    1948    522                91436    91436   12443
     Sum        3893    3893   1041               182867   182867   24885
 
     Using Slab Decomposition
 


     bravais-lattice index     =            0
     lattice parameter (alat)  =      20.2033  a.u.
     unit-cell volume          =    8246.4774 (a.u.)^3
     number of atoms/cell      =           64
     number of atomic types    =            1
     number of electrons       =       256.00
     number of Kohn-Sham states=          154
     kinetic-energy cutoff     =      30.0000  Ry
     charge density cutoff     =     120.0000  Ry
     scf convergence threshold =      1.0E-06
     mixing beta               =       0.5000
     number of iterations used =            8  plain     mixing
     Exchange-correlation= PBE
                           (   1   4   3   4   0   0   0)

     GPU acceleration is ACTIVE.
     GPU-aware MPI enabled

     Message from routine print_cuda_info:
     High GPU oversubscription detected. Are you sure this is what you want?

     celldm(1)=  20.203324  celldm(2)=   0.000000  celldm(3)=   0.000000
     celldm(4)=   0.000000  celldm(5)=   0.000000  celldm(6)=   0.000000

     crystal axes: (cart. coord. in units of alat)
               a(1) = (   1.000000   0.000000   0.000000 )  
               a(2) = (   0.000000   1.000000   0.000000 )  
               a(3) = (   0.000000   0.000000   1.000000 )  

     reciprocal axes: (cart. coord. in units 2 pi/alat)
               b(1) = (  1.000000  0.000000  0.000000 )  
               b(2) = (  0.000000  1.000000  0.000000 )  
               b(3) = (  0.000000  0.000000  1.000000 )  


     PseudoPot. # 1 for Si read from file:
     /home/ppiaggi/pseudos/Si_ONCV_PBE_sr.upf
     MD5 check sum: 8553c464762ac42b85b1eed164b4d029
     Pseudo is Norm-conserving, Zval =  4.0
     Generated using ONCVPSP code by D. R. Hamann
     Using radial grid of 1510 points,  4 beta functions with: 
                l(1) =   0
                l(2) =   0
                l(3) =   1
                l(4) =   1

     atomic species   valence    mass     pseudopotential
        Si             4.00    28.08500     Si( 1.00)

     No symmetry found



   Cartesian axes

     site n.     atom                  positions (alat units)
         1           Si  tau(   1) = (   0.9477000   0.8329810   0.1006580  )
         2           Si  tau(   2) = (   0.2476850   0.0592891   0.0436752  )
         3           Si  tau(   3) = (   0.5440590   0.2835510   0.1160780  )
         4           Si  tau(   4) = (   0.3366820   0.7895290   0.7451710  )
         5           Si  tau(   5) = (   0.9322700   0.4552430   0.2715880  )
         6           Si  tau(   6) = (   0.0408280   0.1838940   0.0336554  )
         7           Si  tau(   7) = (   0.7600130   0.5078880   0.7233130  )
         8           Si  tau(   8) = (   0.3765420   0.4332750   0.6097630  )
         9           Si  tau(   9) = (   0.4628200   0.6341500   0.9001010  )
        10           Si  tau(  10) = (   0.0239387   0.2205880   0.2512940  )
        11           Si  tau(  11) = (   0.9291750   0.4213680   0.0050956  )
        12           Si  tau(  12) = (   0.8066280   0.3687880   0.4878790  )
        13           Si  tau(  13) = (   0.8926540   0.3130170   0.6885950  )
        14           Si  tau(  14) = (   0.9406050   0.5885820   0.4673600  )
        15           Si  tau(  15) = (   0.7212020   0.8483760   0.6433910  )
        16           Si  tau(  16) = (   0.0352933   0.0745083   0.5721330  )
        17           Si  tau(  17) = (   0.4095960   0.0054095   0.8625140  )
        18           Si  tau(  18) = (   0.8436670   0.7765630   0.4787960  )
        19           Si  tau(  19) = (   0.3653950   0.7589730   0.2473540  )
        20           Si  tau(  20) = (   0.2146040   0.1662380   0.6982140  )
        21           Si  tau(  21) = (   0.3616720   0.1853340   0.2348380  )
        22           Si  tau(  22) = (   0.7297960   0.4934480   0.1331030  )
        23           Si  tau(  23) = (   0.2679600   0.4450050   0.0444799  )
        24           Si  tau(  24) = (   0.4132270   0.5799360   0.1371750  )
        25           Si  tau(  25) = (   0.9949690   0.0067586   0.3495240  )
        26           Si  tau(  26) = (   0.5289420   0.0943873   0.6990120  )
        27           Si  tau(  27) = (   0.7591910   0.0935409   0.0232955  )
        28           Si  tau(  28) = (   0.7626000   0.2449210   0.2286790  )
        29           Si  tau(  29) = (   0.4943230   0.4405270   0.8143980  )
        30           Si  tau(  30) = (   0.6489460   0.7468310   0.2272940  )
        31           Si  tau(  31) = (   0.6289460   0.0654825   0.3185470  )
        32           Si  tau(  32) = (   0.1135480   0.5542490   0.8453860  )
        33           Si  tau(  33) = (   0.5897060   0.9406990   0.9941370  )
        34           Si  tau(  34) = (   0.1089870   0.7030670   0.3251460  )
        35           Si  tau(  35) = (   0.3293070   0.5575130   0.4267540  )
        36           Si  tau(  36) = (   0.0027636   0.7824020   0.6656680  )
        37           Si  tau(  37) = (   0.1669890   0.8665820   0.4863060  )
        38           Si  tau(  38) = (   0.9697330   0.9805880   0.9374280  )
        39           Si  tau(  39) = (   0.1004680   0.4262870   0.5955970  )
        40           Si  tau(  40) = (   0.1497950   0.8935080   0.1874980  )
        41           Si  tau(  41) = (   0.0704333   0.5907120   0.1251880  )
        42           Si  tau(  42) = (   0.4595690   0.9755280   0.2095910  )
        43           Si  tau(  43) = (   0.6924840   0.3638730   0.9121080  )
        44           Si  tau(  44) = (   0.1655750   0.9449550   0.7808340  )
        45           Si  tau(  45) = (   0.8961300   0.6333960   0.8381310  )
        46           Si  tau(  46) = (   0.1180910   0.2900680   0.8482700  )
        47           Si  tau(  47) = (   0.5804410   0.2830420   0.4353790  )
        48           Si  tau(  48) = (   0.2085930   0.4196360   0.2748200  )
        49           Si  tau(  49) = (   0.1772170   0.2613920   0.4370680  )
        50           Si  tau(  50) = (   0.7397600   0.1667370   0.7895750  )
        51           Si  tau(  51) = (   0.8839550   0.0190192   0.7105490  )
        52           Si  tau(  52) = (   0.4005400   0.7653360   0.5037520  )
        53           Si  tau(  53) = (   0.6504900   0.7791340   0.8563060  )
        54           Si  tau(  54) = (   0.1771170   0.6421780   0.6672460  )
        55           Si  tau(  55) = (   0.6583760   0.5742340   0.4013030  )
        56           Si  tau(  56) = (   0.2399220   0.7353140   0.9811450  )
        57           Si  tau(  57) = (   0.8198120   0.9095550   0.2938490  )
        58           Si  tau(  58) = (   0.5574920   0.9599000   0.5268810  )
        59           Si  tau(  59) = (   0.3740610   0.2917880   0.9494940  )
        60           Si  tau(  60) = (   0.7788050   0.7002220   0.0121721  )
        61           Si  tau(  61) = (   0.5168000   0.4612240   0.2773630  )
        62           Si  tau(  62) = (   0.3891910   0.2113500   0.5459360  )
        63           Si  tau(  63) = (   0.6003300   0.6173130   0.5913050  )
        64           Si  tau(  64) = (   0.3238200   0.0397343   0.4287330  )

     number of k points=     1  Fermi-Dirac smearing, width (Ry)=  0.0100
                       cart. coord. in units 2pi/alat
        k(    1) = (   0.0000000   0.0000000   0.0000000), wk =   2.0000000

     Dense  grid:    91434 G-vectors     FFT dimensions: (  72,  72,  72)

     Estimated max dynamical RAM per process >     146.74 MB

     Estimated total dynamical RAM >     564.64 MB

     Initial potential from superposition of free atoms

     starting charge     255.9608, renormalised to     256.0000
     Starting wfcs are  256 randomized atomic wfcs

     total cpu time spent up to now is        5.0 secs

     Self-consistent Calculation

     iteration #  1     ecut=    30.00 Ry     beta= 0.50
     Davidson diagonalization with overlap
     ethr =  1.00E-02,  avg # of iterations =  3.0

     Threshold (ethr) on eigenvalues was too large:
     Diagonalizing with lowered threshold

     Davidson diagonalization with overlap
     ethr =  3.54E-04,  avg # of iterations =  5.0

     total cpu time spent up to now is        5.3 secs

     total energy              =    -501.31756000 Ry
     estimated scf accuracy    <       1.09451913 Ry

     iteration #  2     ecut=    30.00 Ry     beta= 0.50
     Davidson diagonalization with overlap
     ethr =  4.28E-04,  avg # of iterations =  3.0

     total cpu time spent up to now is        5.4 secs

     total energy              =    -501.11401873 Ry
     estimated scf accuracy    <       2.03875915 Ry

     iteration #  3     ecut=    30.00 Ry     beta= 0.50
     Davidson diagonalization with overlap
     ethr =  4.28E-04,  avg # of iterations =  3.0

     total cpu time spent up to now is        5.5 secs

     total energy              =    -501.26103331 Ry
     estimated scf accuracy    <       2.53476287 Ry

     iteration #  4     ecut=    30.00 Ry     beta= 0.50
     Davidson diagonalization with overlap
     ethr =  4.28E-04,  avg # of iterations =  2.0

     total cpu time spent up to now is        5.6 secs

     total energy              =    -501.44266975 Ry
     estimated scf accuracy    <       0.55472267 Ry

     iteration #  5     ecut=    30.00 Ry     beta= 0.50
     Davidson diagonalization with overlap
     ethr =  2.17E-04,  avg # of iterations =  2.0

     total cpu time spent up to now is        5.7 secs

     total energy              =    -501.48845574 Ry
     estimated scf accuracy    <       0.11454253 Ry

     iteration #  6     ecut=    30.00 Ry     beta= 0.50
     Davidson diagonalization with overlap
     ethr =  4.47E-05,  avg # of iterations = 16.0

     total cpu time spent up to now is        5.9 secs

     total energy              =    -501.49446237 Ry
     estimated scf accuracy    <       0.25969849 Ry

     iteration #  7     ecut=    30.00 Ry     beta= 0.50
     Davidson diagonalization with overlap
     ethr =  4.47E-05,  avg # of iterations =  2.0

     total cpu time spent up to now is        6.0 secs

     total energy              =    -501.51254815 Ry
     estimated scf accuracy    <       0.00681975 Ry

     iteration #  8     ecut=    30.00 Ry     beta= 0.50
     Davidson diagonalization with overlap
     ethr =  2.66E-06,  avg # of iterations = 15.0

     total cpu time spent up to now is        6.2 secs

     total energy              =    -501.51307086 Ry
     estimated scf accuracy    <       0.02146759 Ry

     iteration #  9     ecut=    30.00 Ry     beta= 0.50
     Davidson diagonalization with overlap
     ethr =  2.66E-06,  avg # of iterations =  3.0

     total cpu time spent up to now is        6.3 secs

     total energy              =    -501.51471158 Ry
     estimated scf accuracy    <       0.00296933 Ry

     iteration # 10     ecut=    30.00 Ry     beta= 0.50
     Davidson diagonalization with overlap
     ethr =  1.16E-06,  avg # of iterations =  2.0

     total cpu time spent up to now is        6.4 secs

     total energy              =    -501.51491101 Ry
     estimated scf accuracy    <       0.00054643 Ry

     iteration # 11     ecut=    30.00 Ry     beta= 0.50
     Davidson diagonalization with overlap
     ethr =  2.13E-07,  avg # of iterations =  2.0

     total cpu time spent up to now is        6.5 secs

     total energy              =    -501.51494429 Ry
     estimated scf accuracy    <       0.00037073 Ry

     iteration # 12     ecut=    30.00 Ry     beta= 0.50
     Davidson diagonalization with overlap
     ethr =  1.45E-07,  avg # of iterations =  2.0

     total cpu time spent up to now is        6.6 secs

     total energy              =    -501.51497436 Ry
     estimated scf accuracy    <       0.00026663 Ry

     iteration # 13     ecut=    30.00 Ry     beta= 0.50
     Davidson diagonalization with overlap
     ethr =  1.04E-07,  avg # of iterations =  2.0

     total cpu time spent up to now is        6.7 secs

     total energy              =    -501.51498863 Ry
     estimated scf accuracy    <       0.00008650 Ry

     iteration # 14     ecut=    30.00 Ry     beta= 0.50
     Davidson diagonalization with overlap
     ethr =  3.38E-08,  avg # of iterations =  2.0

     total cpu time spent up to now is        6.8 secs

     total energy              =    -501.51499593 Ry
     estimated scf accuracy    <       0.00006313 Ry

     iteration # 15     ecut=    30.00 Ry     beta= 0.50
     Davidson diagonalization with overlap
     ethr =  2.47E-08,  avg # of iterations =  1.0

     total cpu time spent up to now is        6.9 secs

     total energy              =    -501.51499923 Ry
     estimated scf accuracy    <       0.00000694 Ry

     iteration # 16     ecut=    30.00 Ry     beta= 0.50
     Davidson diagonalization with overlap
     ethr =  2.71E-09,  avg # of iterations =  3.0

     total cpu time spent up to now is        7.0 secs

     total energy              =    -501.51500055 Ry
     estimated scf accuracy    <       0.00000310 Ry

     iteration # 17     ecut=    30.00 Ry     beta= 0.50
     Davidson diagonalization with overlap
     ethr =  1.21E-09,  avg # of iterations =  2.0

     total cpu time spent up to now is        7.1 secs

     total energy              =    -501.51500075 Ry
     estimated scf accuracy    <       0.00000229 Ry

     iteration # 18     ecut=    30.00 Ry     beta= 0.50
     Davidson diagonalization with overlap
     ethr =  8.96E-10,  avg # of iterations =  1.0

     total cpu time spent up to now is        7.1 secs

     End of self-consistent calculation

          k = 0.0000 0.0000 0.0000 ( 11492 PWs)   bands (ev):

    -5.3927  -4.4937  -4.3886  -4.1767  -4.1683  -4.0966  -3.9627  -3.5609
    -3.3768  -3.2373  -3.1524  -3.1235  -3.0817  -2.9669  -2.8584  -2.8041
    -2.7258  -2.6135  -2.5434  -2.2197  -2.0867  -2.0106  -1.8745  -1.8152
    -1.7155  -1.5880  -1.4079  -1.1012  -0.9645  -0.7506  -0.5792  -0.4885
    -0.3958  -0.2245  -0.1963  -0.1073  -0.0532   0.0960   0.1667   0.2283
     0.3098   0.3851   0.4327   0.5215   0.6015   0.6327   0.7656   0.7882
     0.8317   0.9839   1.0702   1.1408   1.1827   1.3601   1.4097   1.5964
     1.6512   1.8049   1.8327   1.9047   2.0890   2.1234   2.2465   2.3393
     2.3756   2.5509   2.6268   2.6887   2.7271   2.7814   2.8400   2.8826
     3.0073   3.0674   3.2061   3.2351   3.2917   3.4326   3.4807   3.6449
     3.8711   4.0261   4.1727   4.2357   4.3659   4.5242   4.5449   4.5808
     4.6783   4.7163   4.7688   4.7944   4.8624   4.9683   4.9984   5.0448
     5.1085   5.1933   5.2563   5.2960   5.4288   5.4751   5.4914   5.5107
     5.5595   5.6145   5.6646   5.7375   5.7945   5.8259   5.8931   5.9639
     5.9973   6.0660   6.0979   6.2153   6.2667   6.3063   6.4292   6.5245
     6.5515   6.5820   6.6744   6.6886   6.7738   6.8225   6.8484   6.8757
     6.9661   7.0084   7.0856   7.1444   7.2177   7.2730   7.3021   7.3952
     7.4901   7.5991   7.6673   7.7040   7.7545   7.7890   7.8038   7.9279
     7.9863   8.0882   8.1194   8.1383   8.2143   8.3248   8.3850   8.5218
     8.5624   8.6089

     the Fermi energy is     6.9469 ev

!    total energy              =    -501.51500030 Ry
     estimated scf accuracy    <       0.00000071 Ry
     smearing contrib. (-TS)   =      -0.15606950 Ry
     internal energy E=F+TS    =    -501.35893080 Ry

     The total energy is F=E-TS. E is the sum of the following terms:
     one-electron contribution =     187.03809495 Ry
     hartree contribution      =      23.36736046 Ry
     xc contribution           =    -150.40425950 Ry
     ewald contribution        =    -561.36012671 Ry

     convergence has been achieved in  18 iterations

     Forces acting on atoms (cartesian axes, Ry/au):

     atom    1 type  1   force =    -0.02301679   -0.01897994    0.01374112
     atom    2 type  1   force =     0.01530749    0.02285420    0.01782976
     atom    3 type  1   force =     0.01292720    0.01478687    0.00082879
     atom    4 type  1   force =     0.01147675    0.00895755    0.01244090
     atom    5 type  1   force =    -0.01717686   -0.01240555   -0.00010901
     atom    6 type  1   force =     0.01264636   -0.01821164   -0.03222577
     atom    7 type  1   force =    -0.01785837   -0.02096177   -0.00591948
     atom    8 type  1   force =     0.00120576   -0.00486425    0.00219393
     atom    9 type  1   force =     0.01615632    0.06333789    0.01837429
     atom   10 type  1   force =    -0.03263107    0.01858554    0.01317015
     atom   11 type  1   force =     0.00016657    0.01079916    0.00556141
     atom   12 type  1   force =    -0.02159161    0.02475086   -0.02208191
     atom   13 type  1   force =     0.02267900    0.00798810   -0.00261195
     atom   14 type  1   force =     0.02429993   -0.04473797   -0.02274164
     atom   15 type  1   force =    -0.02410074    0.01064422    0.02585313
     atom   16 type  1   force =     0.04819762    0.01059214   -0.05732684
     atom   17 type  1   force =    -0.01586178   -0.01850014    0.01256720
     atom   18 type  1   force =     0.00389434    0.00508967   -0.00575470
     atom   19 type  1   force =    -0.01005097    0.04366280    0.03826542
     atom   20 type  1   force =     0.00134759   -0.03679382   -0.01840343
     atom   21 type  1   force =    -0.01641578   -0.01752734   -0.01341224
     atom   22 type  1   force =     0.01005569   -0.01203680   -0.00806702
     atom   23 type  1   force =    -0.05909051    0.04811531    0.04508814
     atom   24 type  1   force =    -0.00195915    0.04153085   -0.07314931
     atom   25 type  1   force =     0.06522934    0.04979851    0.03289637
     atom   26 type  1   force =     0.00349143    0.04152446    0.00140212
     atom   27 type  1   force =    -0.00241670    0.01419959   -0.01800730
     atom   28 type  1   force =     0.00119600   -0.03031577   -0.02674319
     atom   29 type  1   force =    -0.00349699   -0.03055167   -0.02917003
     atom   30 type  1   force =    -0.00346619   -0.00526984    0.00022777
     atom   31 type  1   force =     0.02244695   -0.00048398    0.04210047
     atom   32 type  1   force =    -0.02074041   -0.05076041    0.08087221
     atom   33 type  1   force =    -0.02833469    0.01254573    0.02873309
     atom   34 type  1   force =     0.02175887   -0.01045861    0.01753722
     atom   35 type  1   force =    -0.01304015    0.00326437   -0.00282660
     atom   36 type  1   force =    -0.01263527    0.01992128    0.01175805
     atom   37 type  1   force =     0.01304339    0.01928140   -0.00368579
     atom   38 type  1   force =     0.00024453    0.04509236   -0.02692043
     atom   39 type  1   force =    -0.00933780    0.00959364   -0.00797370
     atom   40 type  1   force =     0.02205979   -0.00657299   -0.00318649
     atom   41 type  1   force =     0.00505157   -0.00639374   -0.01267027
     atom   42 type  1   force =    -0.00113193   -0.02454813   -0.02870217
     atom   43 type  1   force =     0.00223307    0.00552680   -0.00500577
     atom   44 type  1   force =     0.00096546   -0.00428953    0.00721701
     atom   45 type  1   force =     0.02687876    0.00780412   -0.01501566
     atom   46 type  1   force =    -0.01295018    0.04400893    0.01443257
     atom   47 type  1   force =     0.00904010   -0.00515537   -0.02740180
     atom   48 type  1   force =     0.01189715   -0.00424528   -0.01139524
     atom   49 type  1   force =    -0.00476883    0.00047989    0.00412907
     atom   50 type  1   force =    -0.03443278    0.00587204    0.03473920
     atom   51 type  1   force =    -0.03434146   -0.06238391    0.04959733
     atom   52 type  1   force =     0.00862717    0.00917030   -0.00711560
     atom   53 type  1   force =    -0.04318286   -0.00818490   -0.01463566
     atom   54 type  1   force =     0.03343664   -0.01485856   -0.06522527
     atom   55 type  1   force =     0.05770719    0.00173511   -0.08398963
     atom   56 type  1   force =    -0.01375136   -0.02321944    0.01450141
     atom   57 type  1   force =    -0.05787024   -0.02855549   -0.02041308
     atom   58 type  1   force =     0.00023346   -0.01724258   -0.02019040
     atom   59 type  1   force =     0.02190758   -0.04587527   -0.01828575
     atom   60 type  1   force =     0.02429361   -0.02899402    0.04248761
     atom   61 type  1   force =     0.03323336   -0.05523795    0.02772986
     atom   62 type  1   force =     0.00738732    0.03004911    0.05138817
     atom   63 type  1   force =    -0.02585121    0.02793559    0.08906142
     atom   64 type  1   force =    -0.01122070   -0.01088176   -0.04636206

     Total force =     0.382988     Total SCF correction =     0.001731


     Computing stress (Cartesian axis) and pressure

          total   stress  (Ry/bohr**3)                   (kbar)     P=      -36.43
  -0.00025943  -0.00005858  -0.00001896          -38.16       -8.62       -2.79
  -0.00005858  -0.00019957   0.00006522           -8.62      -29.36        9.59
  -0.00001896   0.00006522  -0.00028394           -2.79        9.59      -41.77

 
     init_run     :      1.09s CPU      4.93s WALL (       1 calls)
     electrons    :      1.97s CPU      2.13s WALL (       1 calls)
     forces       :      0.04s CPU      0.04s WALL (       1 calls)
     stress       :      0.15s CPU      0.16s WALL (       1 calls)

     Called by init_run:
     wfcinit      :      0.55s CPU      4.21s WALL (       1 calls)
                                        4.21s GPU  (       1 calls)
     potinit      :      0.05s CPU      0.15s WALL (       1 calls)
     hinit0       :      0.47s CPU      0.50s WALL (       1 calls)

     Called by electrons:
     c_bands      :      1.18s CPU      1.26s WALL (      19 calls)
     sum_band     :      0.39s CPU      0.43s WALL (      19 calls)
     v_of_rho     :      0.18s CPU      0.29s WALL (      19 calls)
     mix_rho      :      0.18s CPU      0.19s WALL (      19 calls)

     Called by c_bands:
     init_us_2    :      0.07s CPU      0.07s WALL (      39 calls)
     init_us_2:gp :      0.07s CPU      0.07s WALL (      39 calls)
     regterg      :      1.01s CPU      1.09s WALL (      19 calls)

     Called by *egterg:
     rdiaghg      :      0.43s CPU      1.19s WALL (      89 calls)
                                        1.17s GPU  (      89 calls)
     h_psi        :      0.95s CPU      3.91s WALL (      91 calls)
                                        3.91s GPU  (      91 calls)
     g_psi        :      0.00s CPU      0.00s WALL (      71 calls)
                                        0.00s GPU  (      71 calls)

     Called by h_psi:
     h_psi:calbec :      0.52s CPU      3.38s WALL (      91 calls)
                                        3.38s GPU  (      91 calls)
     vloc_psi     :      0.38s CPU      0.46s WALL (      91 calls)
                                        0.46s GPU  (      91 calls)
     add_vuspsi   :      0.04s CPU      0.05s WALL (      91 calls)
                                        0.05s GPU  (      91 calls)

     General routines
     calbec       :      0.52s CPU      3.39s WALL (      96 calls)
     fft          :      0.63s CPU      0.76s WALL (     159 calls)
                                        0.13s GPU  (     101 calls)
     ffts         :      0.05s CPU      0.05s WALL (      19 calls)
     fftw         :      0.46s CPU      0.61s WALL (    2013 calls)
                                        0.54s GPU  (    2013 calls)
 
     Parallel routines
 
     PWSCF        :      3.30s CPU      7.35s WALL

 
   This run was terminated on:  11: 5:37  10May2023            

=------------------------------------------------------------------------------=
   JOB DONE.
=------------------------------------------------------------------------------=
