An instance of this daemon is already running

     Program PWSCF v.7.1 starts on 10May2023 at 11: 5: 0 

     This program is part of the open-source Quantum ESPRESSO suite
     for quantum simulation of materials; please cite
         "P. Giannozzi et al., J. Phys.:Condens. Matter 21 395502 (2009);
         "P. Giannozzi et al., J. Phys.:Condens. Matter 29 465901 (2017);
         "P. Giannozzi et al., J. Chem. Phys. 152 154105 (2020);
          URL http://www.quantum-espresso.org", 
     in publications or presentations arising from this work. More details at
     http://www.quantum-espresso.org/quote

     Parallel version (MPI & OpenMP), running on       4 processor cores
     Number of MPI processes:                 4
     Threads/MPI process:                     1

     MPI processes distributed on     1 nodes
     753573 MiB available memory on the printing compute node when the environment starts
 
     Reading input from pw-si-68.in
Warning: card &CELL ignored
Warning: card / ignored

     Current dimensions of program PWSCF are:
     Max number of different atomic species (ntypx) = 10
     Max number of k-points (npk) =  40000
     Max angular momentum in pseudopotentials (lmaxx) =  4

     IMPORTANT: XC functional enforced from input :
     Exchange-correlation= PBE
                           (   1   4   3   4   0   0   0)
     Any further DFT definition will be discarded
     Please, verify this is what you really want


     gamma-point specific algorithms are used
 
     K-points division:     npool     =       2
     R & G space division:  proc/nbgrp/npool/nimage =       2
     Subspace diagonalization in iterative solution of the eigenvalue problem:
     a serial algorithm will be used

     Message from routine divide_et_impera:
     suboptimal parallelization: some nodes have no k-points
 
     Parallelization info
     --------------------
     sticks:   dense  smooth     PW     G-vecs:    dense   smooth      PW
     Min        1992    1992    524                94328    94328   12836
     Max        1993    1993    525                94335    94335   12841
     Sum        3985    3985   1049               188663   188663   25677
 
     Using Slab Decomposition
 


     bravais-lattice index     =            0
     lattice parameter (alat)  =      20.4081  a.u.
     unit-cell volume          =    8499.7256 (a.u.)^3
     number of atoms/cell      =           64
     number of atomic types    =            1
     number of electrons       =       256.00
     number of Kohn-Sham states=          154
     kinetic-energy cutoff     =      30.0000  Ry
     charge density cutoff     =     120.0000  Ry
     scf convergence threshold =      1.0E-06
     mixing beta               =       0.5000
     number of iterations used =            8  plain     mixing
     Exchange-correlation= PBE
                           (   1   4   3   4   0   0   0)

     GPU acceleration is ACTIVE.
     GPU-aware MPI enabled

     Message from routine print_cuda_info:
     High GPU oversubscription detected. Are you sure this is what you want?

     celldm(1)=  20.408056  celldm(2)=   0.000000  celldm(3)=   0.000000
     celldm(4)=   0.000000  celldm(5)=   0.000000  celldm(6)=   0.000000

     crystal axes: (cart. coord. in units of alat)
               a(1) = (   1.000000   0.000000   0.000000 )  
               a(2) = (   0.000000   1.000000   0.000000 )  
               a(3) = (   0.000000   0.000000   1.000000 )  

     reciprocal axes: (cart. coord. in units 2 pi/alat)
               b(1) = (  1.000000  0.000000  0.000000 )  
               b(2) = (  0.000000  1.000000  0.000000 )  
               b(3) = (  0.000000  0.000000  1.000000 )  


     PseudoPot. # 1 for Si read from file:
     /home/ppiaggi/pseudos/Si_ONCV_PBE_sr.upf
     MD5 check sum: 8553c464762ac42b85b1eed164b4d029
     Pseudo is Norm-conserving, Zval =  4.0
     Generated using ONCVPSP code by D. R. Hamann
     Using radial grid of 1510 points,  4 beta functions with: 
                l(1) =   0
                l(2) =   0
                l(3) =   1
                l(4) =   1

     atomic species   valence    mass     pseudopotential
        Si             4.00    28.08500     Si( 1.00)

     No symmetry found



   Cartesian axes

     site n.     atom                  positions (alat units)
         1           Si  tau(   1) = (   0.5767630   0.5268100   0.7711520  )
         2           Si  tau(   2) = (   0.4820840   0.5689360   0.4952000  )
         3           Si  tau(   3) = (   0.9739160   0.5320150   0.3302850  )
         4           Si  tau(   4) = (   0.3311200   0.3255720   0.3553720  )
         5           Si  tau(   5) = (   0.8810390   0.7345530   0.2709060  )
         6           Si  tau(   6) = (   0.7928970   0.1460500   0.3944860  )
         7           Si  tau(   7) = (   0.1515560   0.6624820   0.4706480  )
         8           Si  tau(   8) = (   0.3451880   0.8059090   0.3979430  )
         9           Si  tau(   9) = (   0.9894100   0.2348220   0.8912810  )
        10           Si  tau(  10) = (   0.5903260   0.2040320   0.3061800  )
        11           Si  tau(  11) = (   0.1907500   0.1463900   0.6817540  )
        12           Si  tau(  12) = (   0.3408930   0.4805490   0.1729480  )
        13           Si  tau(  13) = (   0.8173910   0.5663560   0.6999980  )
        14           Si  tau(  14) = (   0.8636370   0.9374370   0.6926920  )
        15           Si  tau(  15) = (   0.5963760   0.2760120   0.9553850  )
        16           Si  tau(  16) = (   0.7334260   0.0956366   0.6188680  )
        17           Si  tau(  17) = (   0.5209350   0.9234620   0.4109830  )
        18           Si  tau(  18) = (   0.2827970   0.4533190   0.5302400  )
        19           Si  tau(  19) = (   0.7171020   0.1014500   0.1072400  )
        20           Si  tau(  20) = (   0.6782350   0.6320790   0.2050110  )
        21           Si  tau(  21) = (   0.4166370   0.0952001   0.2646950  )
        22           Si  tau(  22) = (   0.9725630   0.7236840   0.6029260  )
        23           Si  tau(  23) = (   0.4617870   0.6487570   0.2634520  )
        24           Si  tau(  24) = (   0.4912930   0.0540450   0.9209420  )
        25           Si  tau(  25) = (   0.8988440   0.9947930   0.0487798  )
        26           Si  tau(  26) = (   0.7234530   0.7670740   0.7442470  )
        27           Si  tau(  27) = (   0.3263680   0.1446110   0.0701571  )
        28           Si  tau(  28) = (   0.5221000   0.8529630   0.7960790  )
        29           Si  tau(  29) = (   0.5673300   0.3525450   0.4874490  )
        30           Si  tau(  30) = (   0.4341060   0.1477260   0.7174080  )
        31           Si  tau(  31) = (   0.1173660   0.8416220   0.2928160  )
        32           Si  tau(  32) = (   0.0940432   0.4835610   0.1774270  )
        33           Si  tau(  33) = (   0.4774260   0.8693500   0.1468360  )
        34           Si  tau(  34) = (   0.6684400   0.6336950   0.9820080  )
        35           Si  tau(  35) = (   0.9242210   0.9231880   0.4681810  )
        36           Si  tau(  36) = (   0.3793560   0.3794980   0.9715970  )
        37           Si  tau(  37) = (   0.2888990   0.3541060   0.7449840  )
        38           Si  tau(  38) = (   0.2084040   0.8371790   0.6402150  )
        39           Si  tau(  39) = (   0.2650090   0.9590170   0.8292110  )
        40           Si  tau(  40) = (   0.4306800   0.6319680   0.0048887  )
        41           Si  tau(  41) = (   0.8854050   0.7722870   0.0377171  )
        42           Si  tau(  42) = (   0.2971450   0.8229360   0.9973300  )
        43           Si  tau(  43) = (   0.6545800   0.8862270   0.0065480  )
        44           Si  tau(  44) = (   0.8220440   0.3547850   0.0132280  )
        45           Si  tau(  45) = (   0.5481210   0.9922700   0.6248330  )
        46           Si  tau(  46) = (   0.7355270   0.9221050   0.3376110  )
        47           Si  tau(  47) = (   0.4070380   0.7153430   0.6414620  )
        48           Si  tau(  48) = (   0.5735040   0.3179370   0.7217580  )
        49           Si  tau(  49) = (   0.7750660   0.4195830   0.2777800  )
        50           Si  tau(  50) = (   0.7891490   0.2721300   0.7403320  )
        51           Si  tau(  51) = (   0.1274430   0.0353381   0.1951310  )
        52           Si  tau(  52) = (   0.9357990   0.2342950   0.1982330  )
        53           Si  tau(  53) = (   0.0095907   0.0277766   0.8228820  )
        54           Si  tau(  54) = (   0.8851950   0.5638710   0.9096990  )
        55           Si  tau(  55) = (   0.0998083   0.7034440   0.0741425  )
        56           Si  tau(  56) = (   0.5910400   0.3698910   0.1639300  )
        57           Si  tau(  57) = (   0.1469010   0.3122610   0.0314688  )
        58           Si  tau(  58) = (   0.0523958   0.3891850   0.5243120  )
        59           Si  tau(  59) = (   0.1203120   0.2158350   0.3486430  )
        60           Si  tau(  60) = (   0.1004350   0.6653010   0.8372720  )
        61           Si  tau(  61) = (   0.3072420   0.5918710   0.7990560  )
        62           Si  tau(  62) = (   0.1725300   0.0258145   0.5072840  )
        63           Si  tau(  63) = (   0.8197150   0.3945540   0.5170540  )
        64           Si  tau(  64) = (   0.0520765   0.4054250   0.7573160  )

     number of k points=     1  Fermi-Dirac smearing, width (Ry)=  0.0100
                       cart. coord. in units 2pi/alat
        k(    1) = (   0.0000000   0.0000000   0.0000000), wk =   2.0000000

     Dense  grid:    94332 G-vectors     FFT dimensions: (  72,  72,  72)

     Estimated max dynamical RAM per process >     150.79 MB

     Estimated total dynamical RAM >     580.12 MB

     Initial potential from superposition of free atoms

     starting charge     255.9608, renormalised to     256.0000
     Starting wfcs are  256 randomized atomic wfcs

     total cpu time spent up to now is        5.0 secs

     Self-consistent Calculation

     iteration #  1     ecut=    30.00 Ry     beta= 0.50
     Davidson diagonalization with overlap
     ethr =  1.00E-02,  avg # of iterations =  3.0

     Threshold (ethr) on eigenvalues was too large:
     Diagonalizing with lowered threshold

     Davidson diagonalization with overlap
     ethr =  3.93E-04,  avg # of iterations =  4.0

     total cpu time spent up to now is        5.3 secs

     total energy              =    -501.12425134 Ry
     estimated scf accuracy    <       1.22281489 Ry

     iteration #  2     ecut=    30.00 Ry     beta= 0.50
     Davidson diagonalization with overlap
     ethr =  4.78E-04,  avg # of iterations =  5.0

     total cpu time spent up to now is        5.4 secs

     total energy              =    -500.52097350 Ry
     estimated scf accuracy    <       7.27097046 Ry

     iteration #  3     ecut=    30.00 Ry     beta= 0.50
     Davidson diagonalization with overlap
     ethr =  4.78E-04,  avg # of iterations =  4.0

     total cpu time spent up to now is        5.5 secs

     total energy              =    -501.20129515 Ry
     estimated scf accuracy    <       1.97629846 Ry

     iteration #  4     ecut=    30.00 Ry     beta= 0.50
     Davidson diagonalization with overlap
     ethr =  4.78E-04,  avg # of iterations =  2.0

     total cpu time spent up to now is        5.6 secs

     total energy              =    -501.29888457 Ry
     estimated scf accuracy    <       0.72379038 Ry

     iteration #  5     ecut=    30.00 Ry     beta= 0.50
     Davidson diagonalization with overlap
     ethr =  2.83E-04,  avg # of iterations =  2.0

     total cpu time spent up to now is        5.7 secs

     total energy              =    -501.33569301 Ry
     estimated scf accuracy    <       0.59205375 Ry

     iteration #  6     ecut=    30.00 Ry     beta= 0.50
     Davidson diagonalization with overlap
     ethr =  2.31E-04,  avg # of iterations =  2.0

     total cpu time spent up to now is        5.8 secs

     total energy              =    -501.38670157 Ry
     estimated scf accuracy    <       0.05836406 Ry

     iteration #  7     ecut=    30.00 Ry     beta= 0.50
     Davidson diagonalization with overlap
     ethr =  2.28E-05,  avg # of iterations =  9.0

     total cpu time spent up to now is        6.0 secs

     total energy              =    -501.39318287 Ry
     estimated scf accuracy    <       0.03576355 Ry

     iteration #  8     ecut=    30.00 Ry     beta= 0.50
     Davidson diagonalization with overlap
     ethr =  1.40E-05,  avg # of iterations =  2.0

     total cpu time spent up to now is        6.1 secs

     total energy              =    -501.39638306 Ry
     estimated scf accuracy    <       0.02811081 Ry

     iteration #  9     ecut=    30.00 Ry     beta= 0.50
     Davidson diagonalization with overlap
     ethr =  1.10E-05,  avg # of iterations =  1.0

     total cpu time spent up to now is        6.2 secs

     total energy              =    -501.39839738 Ry
     estimated scf accuracy    <       0.00296490 Ry

     iteration # 10     ecut=    30.00 Ry     beta= 0.50
     Davidson diagonalization with overlap
     ethr =  1.16E-06,  avg # of iterations = 10.0

     total cpu time spent up to now is        6.3 secs

     total energy              =    -501.39861608 Ry
     estimated scf accuracy    <       0.00330475 Ry

     iteration # 11     ecut=    30.00 Ry     beta= 0.50
     Davidson diagonalization with overlap
     ethr =  1.16E-06,  avg # of iterations =  2.0

     total cpu time spent up to now is        6.4 secs

     total energy              =    -501.39887775 Ry
     estimated scf accuracy    <       0.00057202 Ry

     iteration # 12     ecut=    30.00 Ry     beta= 0.50
     Davidson diagonalization with overlap
     ethr =  2.23E-07,  avg # of iterations =  2.0

     total cpu time spent up to now is        6.5 secs

     total energy              =    -501.39895267 Ry
     estimated scf accuracy    <       0.00019155 Ry

     iteration # 13     ecut=    30.00 Ry     beta= 0.50
     Davidson diagonalization with overlap
     ethr =  7.48E-08,  avg # of iterations =  2.0

     total cpu time spent up to now is        6.6 secs

     total energy              =    -501.39896683 Ry
     estimated scf accuracy    <       0.00011131 Ry

     iteration # 14     ecut=    30.00 Ry     beta= 0.50
     Davidson diagonalization with overlap
     ethr =  4.35E-08,  avg # of iterations =  2.0

     total cpu time spent up to now is        6.7 secs

     total energy              =    -501.39897422 Ry
     estimated scf accuracy    <       0.00004058 Ry

     iteration # 15     ecut=    30.00 Ry     beta= 0.50
     Davidson diagonalization with overlap
     ethr =  1.59E-08,  avg # of iterations =  2.0

     total cpu time spent up to now is        6.8 secs

     total energy              =    -501.39897798 Ry
     estimated scf accuracy    <       0.00002709 Ry

     iteration # 16     ecut=    30.00 Ry     beta= 0.50
     Davidson diagonalization with overlap
     ethr =  1.06E-08,  avg # of iterations =  2.0

     total cpu time spent up to now is        6.9 secs

     total energy              =    -501.39898016 Ry
     estimated scf accuracy    <       0.00000500 Ry

     iteration # 17     ecut=    30.00 Ry     beta= 0.50
     Davidson diagonalization with overlap
     ethr =  1.95E-09,  avg # of iterations =  2.0

     total cpu time spent up to now is        7.0 secs

     total energy              =    -501.39898073 Ry
     estimated scf accuracy    <       0.00000106 Ry

     iteration # 18     ecut=    30.00 Ry     beta= 0.50
     Davidson diagonalization with overlap
     ethr =  4.16E-10,  avg # of iterations =  5.0

     total cpu time spent up to now is        7.1 secs

     total energy              =    -501.39898072 Ry
     estimated scf accuracy    <       0.00000443 Ry

     iteration # 19     ecut=    30.00 Ry     beta= 0.50
     Davidson diagonalization with overlap
     ethr =  4.16E-10,  avg # of iterations =  3.0

     total cpu time spent up to now is        7.2 secs

     End of self-consistent calculation

          k = 0.0000 0.0000 0.0000 ( 11792 PWs)   bands (ev):

    -5.5980  -4.6894  -4.5453  -4.4953  -4.4455  -4.4014  -4.1469  -3.7262
    -3.6682  -3.5293  -3.4642  -3.4381  -3.3514  -3.2986  -3.2456  -3.0893
    -3.0391  -2.9325  -2.5935  -2.4405  -2.3386  -2.2712  -2.2280  -2.1146
    -2.0296  -1.7886  -1.6256  -1.4328  -1.1965  -1.1704  -0.9841  -0.9299
    -0.7069  -0.5635  -0.5333  -0.4423  -0.3903  -0.2240  -0.2050  -0.0698
     0.0076   0.0140   0.0818   0.1543   0.2688   0.4102   0.5228   0.5618
     0.6211   0.7224   0.7998   0.8642   0.9380   1.0003   1.1146   1.2524
     1.3750   1.5001   1.5587   1.6341   1.6955   1.8844   1.9027   2.0950
     2.2085   2.2461   2.3281   2.3811   2.5149   2.5322   2.6045   2.6381
     2.7415   2.8302   2.8828   3.1162   3.1547   3.1843   3.2553   3.3785
     3.5636   3.6665   3.8324   3.9132   3.9556   3.9669   4.1173   4.1411
     4.2047   4.3682   4.4111   4.4866   4.5659   4.6523   4.6775   4.7732
     4.8240   4.8429   4.9144   5.0378   5.0571   5.1224   5.2184   5.2513
     5.2927   5.3408   5.3642   5.4102   5.5423   5.5887   5.6297   5.6833
     5.7918   5.8020   5.8548   5.9003   5.9511   6.0363   6.0847   6.1247
     6.2262   6.2573   6.3547   6.4240   6.4973   6.5199   6.5699   6.6002
     6.6598   6.6944   6.7488   6.8273   6.9564   6.9752   7.0001   7.0140
     7.0988   7.1770   7.2129   7.2459   7.3279   7.4681   7.5047   7.5603
     7.6286   7.7000   7.7574   7.8117   7.8854   7.9533   7.9982   8.0496
     8.1752   8.2832

     the Fermi energy is     6.6424 ev

!    total energy              =    -501.39898084 Ry
     estimated scf accuracy    <       0.00000023 Ry
     smearing contrib. (-TS)   =      -0.16243485 Ry
     internal energy E=F+TS    =    -501.23654599 Ry

     The total energy is F=E-TS. E is the sum of the following terms:
     one-electron contribution =     170.17161746 Ry
     hartree contribution      =      28.68907290 Ry
     xc contribution           =    -149.89786362 Ry
     ewald contribution        =    -550.19937272 Ry

     convergence has been achieved in  19 iterations

     Forces acting on atoms (cartesian axes, Ry/au):

     atom    1 type  1   force =     0.03529846    0.01479702    0.00273109
     atom    2 type  1   force =    -0.01752706   -0.01365077   -0.01259470
     atom    3 type  1   force =    -0.04327694    0.02999025    0.09837887
     atom    4 type  1   force =    -0.00274614   -0.03441364   -0.03113925
     atom    5 type  1   force =    -0.02261173    0.02421031   -0.02394577
     atom    6 type  1   force =    -0.01712242   -0.01385676    0.01553413
     atom    7 type  1   force =    -0.00126104   -0.01306266   -0.00635394
     atom    8 type  1   force =    -0.04527204   -0.05324019   -0.00740187
     atom    9 type  1   force =    -0.02913341    0.01914732   -0.01928548
     atom   10 type  1   force =     0.04152104    0.02006696    0.01245531
     atom   11 type  1   force =     0.02837504    0.02056941    0.04637021
     atom   12 type  1   force =    -0.00790932   -0.01548898    0.02028362
     atom   13 type  1   force =    -0.01515071   -0.00230852   -0.02802085
     atom   14 type  1   force =     0.00318267   -0.02714447   -0.01947459
     atom   15 type  1   force =     0.01225294   -0.01692967    0.00432844
     atom   16 type  1   force =     0.01817198    0.01451770   -0.03144670
     atom   17 type  1   force =     0.01966030    0.05298469    0.01415547
     atom   18 type  1   force =     0.00226693    0.03084367    0.00881654
     atom   19 type  1   force =    -0.01454169   -0.00703291    0.01228837
     atom   20 type  1   force =    -0.00202780   -0.03166810    0.00729325
     atom   21 type  1   force =    -0.00251405   -0.03365876    0.01837930
     atom   22 type  1   force =     0.01726443    0.00478875    0.01311007
     atom   23 type  1   force =     0.01192116    0.02238208    0.01963410
     atom   24 type  1   force =    -0.02805911    0.02293326    0.00049888
     atom   25 type  1   force =     0.05398578   -0.00021636   -0.00894660
     atom   26 type  1   force =    -0.00424948    0.00034750    0.03641431
     atom   27 type  1   force =    -0.03216432   -0.01316989   -0.02006350
     atom   28 type  1   force =    -0.00015711   -0.02258815   -0.02054488
     atom   29 type  1   force =     0.01072329    0.00592502    0.01642868
     atom   30 type  1   force =    -0.04297756    0.01393062    0.02701945
     atom   31 type  1   force =     0.00310502   -0.02790355    0.00578050
     atom   32 type  1   force =     0.09809462    0.00370562   -0.11495594
     atom   33 type  1   force =    -0.02933626   -0.00748816    0.00996909
     atom   34 type  1   force =    -0.01531448    0.00624567   -0.02647718
     atom   35 type  1   force =     0.03013248   -0.00706241    0.01736164
     atom   36 type  1   force =    -0.02278710   -0.00358931   -0.01834353
     atom   37 type  1   force =    -0.01913089    0.01946460    0.00127420
     atom   38 type  1   force =    -0.00839462   -0.00262117   -0.00611967
     atom   39 type  1   force =    -0.01358882    0.02044598   -0.01350845
     atom   40 type  1   force =    -0.00395738    0.00421570   -0.02911389
     atom   41 type  1   force =     0.00478223   -0.00653388    0.03942796
     atom   42 type  1   force =    -0.00190740   -0.03143905    0.03763515
     atom   43 type  1   force =    -0.00537352    0.00150083   -0.01192566
     atom   44 type  1   force =    -0.00461558   -0.00675595   -0.00867688
     atom   45 type  1   force =    -0.00744675   -0.01575397   -0.03620356
     atom   46 type  1   force =     0.01242338    0.01786761   -0.01679540
     atom   47 type  1   force =    -0.00004001    0.01760243    0.02491267
     atom   48 type  1   force =     0.00649487    0.00594637   -0.01809641
     atom   49 type  1   force =     0.01634096    0.01842084   -0.00205116
     atom   50 type  1   force =    -0.00122962    0.00554154   -0.00961841
     atom   51 type  1   force =    -0.01244545    0.03937818   -0.02623065
     atom   52 type  1   force =    -0.00176483   -0.01351424    0.00575110
     atom   53 type  1   force =     0.03979128    0.00093882    0.04674153
     atom   54 type  1   force =     0.00248013   -0.01289759    0.00456117
     atom   55 type  1   force =     0.01769610   -0.00059123    0.01383842
     atom   56 type  1   force =     0.00058888    0.02313165   -0.01706147
     atom   57 type  1   force =     0.01866957   -0.00246544    0.01421482
     atom   58 type  1   force =    -0.01652326    0.00525377   -0.00478367
     atom   59 type  1   force =     0.00811121   -0.00925087    0.00832266
     atom   60 type  1   force =    -0.01255269   -0.01845557   -0.01008871
     atom   61 type  1   force =     0.00949280   -0.01967287    0.01261568
     atom   62 type  1   force =    -0.03217949   -0.01853934   -0.03134119
     atom   63 type  1   force =    -0.00152136   -0.00411972    0.02675204
     atom   64 type  1   force =     0.01598387    0.01998998   -0.01266877

     Total force =     0.331547     Total SCF correction =     0.000866


     Computing stress (Cartesian axis) and pressure

          total   stress  (Ry/bohr**3)                   (kbar)     P=      -45.65
  -0.00031092   0.00003988  -0.00003966          -45.74        5.87       -5.83
   0.00003988  -0.00030170   0.00003543            5.87      -44.38        5.21
  -0.00003966   0.00003543  -0.00031835           -5.83        5.21      -46.83

 
     init_run     :      1.08s CPU      4.94s WALL (       1 calls)
     electrons    :      2.04s CPU      2.18s WALL (       1 calls)
     forces       :      0.04s CPU      0.04s WALL (       1 calls)
     stress       :      0.16s CPU      0.16s WALL (       1 calls)

     Called by init_run:
     wfcinit      :      0.54s CPU      4.21s WALL (       1 calls)
                                        4.21s GPU  (       1 calls)
     potinit      :      0.06s CPU      0.15s WALL (       1 calls)
     hinit0       :      0.47s CPU      0.50s WALL (       1 calls)

     Called by electrons:
     c_bands      :      1.19s CPU      1.26s WALL (      20 calls)
     sum_band     :      0.40s CPU      0.45s WALL (      20 calls)
     v_of_rho     :      0.20s CPU      0.31s WALL (      20 calls)
     mix_rho      :      0.20s CPU      0.21s WALL (      20 calls)

     Called by c_bands:
     init_us_2    :      0.07s CPU      0.08s WALL (      41 calls)
     init_us_2:gp :      0.07s CPU      0.07s WALL (      41 calls)
     regterg      :      1.02s CPU      1.08s WALL (      20 calls)

     Called by *egterg:
     rdiaghg      :      0.41s CPU      1.17s WALL (      85 calls)
                                        1.16s GPU  (      85 calls)
     h_psi        :      0.95s CPU      3.91s WALL (      87 calls)
                                        3.90s GPU  (      87 calls)
     g_psi        :      0.00s CPU      0.00s WALL (      66 calls)
                                        0.00s GPU  (      66 calls)

     Called by h_psi:
     h_psi:calbec :      0.49s CPU      3.38s WALL (      87 calls)
                                        3.38s GPU  (      87 calls)
     vloc_psi     :      0.40s CPU      0.47s WALL (      87 calls)
                                        0.46s GPU  (      87 calls)
     add_vuspsi   :      0.03s CPU      0.05s WALL (      87 calls)
                                        0.05s GPU  (      87 calls)

     General routines
     calbec       :      0.50s CPU      3.38s WALL (      92 calls)
     fft          :      0.63s CPU      0.77s WALL (     167 calls)
                                        0.14s GPU  (     106 calls)
     ffts         :      0.05s CPU      0.06s WALL (      20 calls)
     fftw         :      0.49s CPU      0.63s WALL (    2100 calls)
                                        0.55s GPU  (    2100 calls)
 
     Parallel routines
 
     PWSCF        :      3.36s CPU      7.41s WALL

 
   This run was terminated on:  11: 5: 8  10May2023            

=------------------------------------------------------------------------------=
   JOB DONE.
=------------------------------------------------------------------------------=
