An instance of this daemon is already running

     Program PWSCF v.7.1 starts on 10May2023 at 10:57:53 

     This program is part of the open-source Quantum ESPRESSO suite
     for quantum simulation of materials; please cite
         "P. Giannozzi et al., J. Phys.:Condens. Matter 21 395502 (2009);
         "P. Giannozzi et al., J. Phys.:Condens. Matter 29 465901 (2017);
         "P. Giannozzi et al., J. Chem. Phys. 152 154105 (2020);
          URL http://www.quantum-espresso.org", 
     in publications or presentations arising from this work. More details at
     http://www.quantum-espresso.org/quote

     Parallel version (MPI & OpenMP), running on       4 processor cores
     Number of MPI processes:                 4
     Threads/MPI process:                     1

     MPI processes distributed on     1 nodes
     753541 MiB available memory on the printing compute node when the environment starts
 
     Reading input from pw-si-24.in
Warning: card &CELL ignored
Warning: card / ignored

     Current dimensions of program PWSCF are:
     Max number of different atomic species (ntypx) = 10
     Max number of k-points (npk) =  40000
     Max angular momentum in pseudopotentials (lmaxx) =  4

     IMPORTANT: XC functional enforced from input :
     Exchange-correlation= PBE
                           (   1   4   3   4   0   0   0)
     Any further DFT definition will be discarded
     Please, verify this is what you really want


     gamma-point specific algorithms are used
 
     K-points division:     npool     =       2
     R & G space division:  proc/nbgrp/npool/nimage =       2
     Subspace diagonalization in iterative solution of the eigenvalue problem:
     a serial algorithm will be used

     Message from routine divide_et_impera:
     suboptimal parallelization: some nodes have no k-points
 
     Parallelization info
     --------------------
     sticks:   dense  smooth     PW     G-vecs:    dense   smooth      PW
     Min        1908    1908    502                89172    89172   12102
     Max        1909    1909    503                89177    89177   12105
     Sum        3817    3817   1005               178349   178349   24207
 
     Using Slab Decomposition
 


     bravais-lattice index     =            0
     lattice parameter (alat)  =      20.0336  a.u.
     unit-cell volume          =    8040.4014 (a.u.)^3
     number of atoms/cell      =           64
     number of atomic types    =            1
     number of electrons       =       256.00
     number of Kohn-Sham states=          154
     kinetic-energy cutoff     =      30.0000  Ry
     charge density cutoff     =     120.0000  Ry
     scf convergence threshold =      1.0E-06
     mixing beta               =       0.5000
     number of iterations used =            8  plain     mixing
     Exchange-correlation= PBE
                           (   1   4   3   4   0   0   0)

     GPU acceleration is ACTIVE.
     GPU-aware MPI enabled

     Message from routine print_cuda_info:
     High GPU oversubscription detected. Are you sure this is what you want?

     celldm(1)=  20.033611  celldm(2)=   0.000000  celldm(3)=   0.000000
     celldm(4)=   0.000000  celldm(5)=   0.000000  celldm(6)=   0.000000

     crystal axes: (cart. coord. in units of alat)
               a(1) = (   1.000000   0.000000   0.000000 )  
               a(2) = (   0.000000   1.000000   0.000000 )  
               a(3) = (   0.000000   0.000000   1.000000 )  

     reciprocal axes: (cart. coord. in units 2 pi/alat)
               b(1) = (  1.000000  0.000000  0.000000 )  
               b(2) = (  0.000000  1.000000  0.000000 )  
               b(3) = (  0.000000  0.000000  1.000000 )  


     PseudoPot. # 1 for Si read from file:
     /home/ppiaggi/pseudos/Si_ONCV_PBE_sr.upf
     MD5 check sum: 8553c464762ac42b85b1eed164b4d029
     Pseudo is Norm-conserving, Zval =  4.0
     Generated using ONCVPSP code by D. R. Hamann
     Using radial grid of 1510 points,  4 beta functions with: 
                l(1) =   0
                l(2) =   0
                l(3) =   1
                l(4) =   1

     atomic species   valence    mass     pseudopotential
        Si             4.00    28.08500     Si( 1.00)

     No symmetry found



   Cartesian axes

     site n.     atom                  positions (alat units)
         1           Si  tau(   1) = (   0.5092030   0.6344420   0.4722130  )
         2           Si  tau(   2) = (   0.6976770   0.9104930   0.9926480  )
         3           Si  tau(   3) = (   0.1557240   0.6369950   0.3490250  )
         4           Si  tau(   4) = (   0.9761000   0.1385310   0.0887461  )
         5           Si  tau(   5) = (   0.9467220   0.2292580   0.8077440  )
         6           Si  tau(   6) = (   0.4525480   0.2085170   0.1808270  )
         7           Si  tau(   7) = (   0.0707590   0.7750830   0.9567670  )
         8           Si  tau(   8) = (   0.1879000   0.4568440   0.5357890  )
         9           Si  tau(   9) = (   0.3106300   0.8797450   0.7386050  )
        10           Si  tau(  10) = (   0.2177220   0.4660190   0.0970841  )
        11           Si  tau(  11) = (   0.7220770   0.3984390   0.8340000  )
        12           Si  tau(  12) = (   0.2641230   0.9923570   0.5016640  )
        13           Si  tau(  13) = (   0.5713970   0.4219160   0.3386100  )
        14           Si  tau(  14) = (   0.0777208   0.5480360   0.9381650  )
        15           Si  tau(  15) = (   0.6504280   0.2008440   0.0455489  )
        16           Si  tau(  16) = (   0.9095300   0.4838760   0.7614210  )
        17           Si  tau(  17) = (   0.5323620   0.9915720   0.6624920  )
        18           Si  tau(  18) = (   0.4380970   0.1080630   0.9047360  )
        19           Si  tau(  19) = (   0.8547850   0.5904100   0.4239010  )
        20           Si  tau(  20) = (   0.4262880   0.2674240   0.6738730  )
        21           Si  tau(  21) = (   0.4626120   0.7032970   0.8658000  )
        22           Si  tau(  22) = (   0.7894090   0.3109590   0.3013290  )
        23           Si  tau(  23) = (   0.8828130   0.7590640   0.5530880  )
        24           Si  tau(  24) = (   0.0655233   0.9038620   0.2794130  )
        25           Si  tau(  25) = (   0.6248900   0.8421670   0.5308410  )
        26           Si  tau(  26) = (   0.3329840   0.5955510   0.6469490  )
        27           Si  tau(  27) = (   0.9999730   0.0341918   0.6349150  )
        28           Si  tau(  28) = (   0.4055540   0.2759850   0.4480970  )
        29           Si  tau(  29) = (   0.7376110   0.4045890   0.0687966  )
        30           Si  tau(  30) = (   0.4887010   0.9167160   0.9805040  )
        31           Si  tau(  31) = (   0.3684990   0.6498700   0.0920076  )
        32           Si  tau(  32) = (   0.7053350   0.6920850   0.2657990  )
        33           Si  tau(  33) = (   0.9708710   0.5806610   0.2247350  )
        34           Si  tau(  34) = (   0.4949190   0.4696620   0.7783530  )
        35           Si  tau(  35) = (   0.4625110   0.0747143   0.4448720  )
        36           Si  tau(  36) = (   0.1972970   0.1088070   0.3104420  )
        37           Si  tau(  37) = (   0.2387950   0.8774070   0.0605246  )
        38           Si  tau(  38) = (   0.2299150   0.3671440   0.3076110  )
        39           Si  tau(  39) = (   0.6547220   0.2018930   0.6319220  )
        40           Si  tau(  40) = (   0.7324070   0.1486770   0.8384500  )
        41           Si  tau(  41) = (   0.9625680   0.9774520   0.9191760  )
        42           Si  tau(  42) = (   0.9033590   0.7958270   0.1453680  )
        43           Si  tau(  43) = (   0.1678860   0.6959830   0.7352870  )
        44           Si  tau(  44) = (   0.5699230   0.5584240   0.1183080  )
        45           Si  tau(  45) = (   0.6510410   0.9112370   0.3038500  )
        46           Si  tau(  46) = (   0.8638260   0.9883430   0.4072910  )
        47           Si  tau(  47) = (   0.9950880   0.3391060   0.2613050  )
        48           Si  tau(  48) = (   0.1002200   0.7772140   0.5111660  )
        49           Si  tau(  49) = (   0.1757680   0.0082205   0.8431060  )
        50           Si  tau(  50) = (   0.2529590   0.1500440   0.0818103  )
        51           Si  tau(  51) = (   0.8947760   0.7170480   0.7727450  )
        52           Si  tau(  52) = (   0.4243900   0.3765210   0.0015384  )
        53           Si  tau(  53) = (   0.9817450   0.3879270   0.5691260  )
        54           Si  tau(  54) = (   0.6481390   0.6631390   0.7149570  )
        55           Si  tau(  55) = (   0.2320800   0.2946320   0.8905000  )
        56           Si  tau(  56) = (   0.7361270   0.6553090   0.9649500  )
        57           Si  tau(  57) = (   0.1748420   0.1978270   0.6363720  )
        58           Si  tau(  58) = (   0.3743400   0.7447160   0.3106020  )
        59           Si  tau(  59) = (   0.8282180   0.2029280   0.4999950  )
        60           Si  tau(  60) = (   0.4310970   0.9674110   0.2300200  )
        61           Si  tau(  61) = (   0.7116760   0.4635140   0.5563760  )
        62           Si  tau(  62) = (   0.9737220   0.3281270   0.0198708  )
        63           Si  tau(  63) = (   0.7829290   0.9230210   0.7602180  )
        64           Si  tau(  64) = (   0.7783720   0.0787781   0.1956490  )

     number of k points=     1  Fermi-Dirac smearing, width (Ry)=  0.0100
                       cart. coord. in units 2pi/alat
        k(    1) = (   0.0000000   0.0000000   0.0000000), wk =   2.0000000

     Dense  grid:    89175 G-vectors     FFT dimensions: (  72,  72,  72)

     Estimated max dynamical RAM per process >     143.47 MB

     Estimated total dynamical RAM >     552.13 MB

     Initial potential from superposition of free atoms

     starting charge     255.9608, renormalised to     256.0000
     Starting wfcs are  256 randomized atomic wfcs

     total cpu time spent up to now is        5.0 secs

     Self-consistent Calculation

     iteration #  1     ecut=    30.00 Ry     beta= 0.50
     Davidson diagonalization with overlap
     ethr =  1.00E-02,  avg # of iterations =  3.0

     Threshold (ethr) on eigenvalues was too large:
     Diagonalizing with lowered threshold

     Davidson diagonalization with overlap
     ethr =  4.13E-04,  avg # of iterations =  4.0

     total cpu time spent up to now is        5.3 secs

     total energy              =    -501.02308130 Ry
     estimated scf accuracy    <       1.27210189 Ry

     iteration #  2     ecut=    30.00 Ry     beta= 0.50
     Davidson diagonalization with overlap
     ethr =  4.97E-04,  avg # of iterations =  5.0

     total cpu time spent up to now is        5.4 secs

     total energy              =    -500.44754373 Ry
     estimated scf accuracy    <       7.40819805 Ry

     iteration #  3     ecut=    30.00 Ry     beta= 0.50
     Davidson diagonalization with overlap
     ethr =  4.97E-04,  avg # of iterations =  4.0

     total cpu time spent up to now is        5.5 secs

     total energy              =    -501.09840166 Ry
     estimated scf accuracy    <       2.62807388 Ry

     iteration #  4     ecut=    30.00 Ry     beta= 0.50
     Davidson diagonalization with overlap
     ethr =  4.97E-04,  avg # of iterations =  2.0

     total cpu time spent up to now is        5.6 secs

     total energy              =    -501.26860491 Ry
     estimated scf accuracy    <       0.55063891 Ry

     iteration #  5     ecut=    30.00 Ry     beta= 0.50
     Davidson diagonalization with overlap
     ethr =  2.15E-04,  avg # of iterations =  2.0

     total cpu time spent up to now is        5.7 secs

     total energy              =    -501.27965453 Ry
     estimated scf accuracy    <       0.75129865 Ry

     iteration #  6     ecut=    30.00 Ry     beta= 0.50
     Davidson diagonalization with overlap
     ethr =  2.15E-04,  avg # of iterations =  2.0

     total cpu time spent up to now is        5.8 secs

     total energy              =    -501.33955686 Ry
     estimated scf accuracy    <       0.08376674 Ry

     iteration #  7     ecut=    30.00 Ry     beta= 0.50
     Davidson diagonalization with overlap
     ethr =  3.27E-05,  avg # of iterations =  2.0

     total cpu time spent up to now is        5.9 secs

     total energy              =    -501.34957396 Ry
     estimated scf accuracy    <       0.01876145 Ry

     iteration #  8     ecut=    30.00 Ry     beta= 0.50
     Davidson diagonalization with overlap
     ethr =  7.33E-06,  avg # of iterations = 13.0

     total cpu time spent up to now is        6.1 secs

     total energy              =    -501.35070686 Ry
     estimated scf accuracy    <       0.03374061 Ry

     iteration #  9     ecut=    30.00 Ry     beta= 0.50
     Davidson diagonalization with overlap
     ethr =  7.33E-06,  avg # of iterations =  2.0

     total cpu time spent up to now is        6.2 secs

     total energy              =    -501.35320146 Ry
     estimated scf accuracy    <       0.00232210 Ry

     iteration # 10     ecut=    30.00 Ry     beta= 0.50
     Davidson diagonalization with overlap
     ethr =  9.07E-07,  avg # of iterations =  4.0

     total cpu time spent up to now is        6.3 secs

     total energy              =    -501.35355486 Ry
     estimated scf accuracy    <       0.00093846 Ry

     iteration # 11     ecut=    30.00 Ry     beta= 0.50
     Davidson diagonalization with overlap
     ethr =  3.67E-07,  avg # of iterations =  3.0

     total cpu time spent up to now is        6.4 secs

     total energy              =    -501.35359035 Ry
     estimated scf accuracy    <       0.00082035 Ry

     iteration # 12     ecut=    30.00 Ry     beta= 0.50
     Davidson diagonalization with overlap
     ethr =  3.20E-07,  avg # of iterations =  2.0

     total cpu time spent up to now is        6.5 secs

     total energy              =    -501.35365784 Ry
     estimated scf accuracy    <       0.00035060 Ry

     iteration # 13     ecut=    30.00 Ry     beta= 0.50
     Davidson diagonalization with overlap
     ethr =  1.37E-07,  avg # of iterations =  2.0

     total cpu time spent up to now is        6.6 secs

     total energy              =    -501.35367350 Ry
     estimated scf accuracy    <       0.00036175 Ry

     iteration # 14     ecut=    30.00 Ry     beta= 0.50
     Davidson diagonalization with overlap
     ethr =  1.37E-07,  avg # of iterations =  1.0

     total cpu time spent up to now is        6.7 secs

     total energy              =    -501.35369630 Ry
     estimated scf accuracy    <       0.00001397 Ry

     iteration # 15     ecut=    30.00 Ry     beta= 0.50
     Davidson diagonalization with overlap
     ethr =  5.46E-09,  avg # of iterations =  4.0

     total cpu time spent up to now is        6.8 secs

     total energy              =    -501.35369912 Ry
     estimated scf accuracy    <       0.00002009 Ry

     iteration # 16     ecut=    30.00 Ry     beta= 0.50
     Davidson diagonalization with overlap
     ethr =  5.46E-09,  avg # of iterations =  2.0

     total cpu time spent up to now is        6.9 secs

     total energy              =    -501.35370076 Ry
     estimated scf accuracy    <       0.00000744 Ry

     iteration # 17     ecut=    30.00 Ry     beta= 0.50
     Davidson diagonalization with overlap
     ethr =  2.91E-09,  avg # of iterations =  2.0

     total cpu time spent up to now is        7.0 secs

     total energy              =    -501.35370124 Ry
     estimated scf accuracy    <       0.00000145 Ry

     iteration # 18     ecut=    30.00 Ry     beta= 0.50
     Davidson diagonalization with overlap
     ethr =  5.68E-10,  avg # of iterations =  3.0

     total cpu time spent up to now is        7.1 secs

     total energy              =    -501.35370137 Ry
     estimated scf accuracy    <       0.00000104 Ry

     iteration # 19     ecut=    30.00 Ry     beta= 0.50
     Davidson diagonalization with overlap
     ethr =  4.04E-10,  avg # of iterations =  2.0

     total cpu time spent up to now is        7.2 secs

     End of self-consistent calculation

          k = 0.0000 0.0000 0.0000 ( 11072 PWs)   bands (ev):

    -5.2604  -4.2943  -4.2020  -4.0795  -4.0283  -3.8831  -3.8476  -3.2074
    -3.1285  -2.9615  -2.9577  -2.9161  -2.8454  -2.7819  -2.6834  -2.6465
    -2.5479  -2.4969  -2.4416  -1.9484  -1.8096  -1.6612  -1.6266  -1.5357
    -1.4488  -1.2973  -1.2137  -0.7836  -0.6557  -0.5237  -0.3412  -0.2905
    -0.2789  -0.0358   0.1316   0.2783   0.2987   0.3696   0.4138   0.5117
     0.5693   0.6251   0.6509   0.6938   0.8107   0.9334   1.0818   1.1015
     1.1693   1.2912   1.3425   1.4532   1.5165   1.6626   1.7421   1.7971
     2.0262   2.0547   2.1314   2.1635   2.1933   2.3712   2.4961   2.6336
     2.6523   2.7684   2.8057   2.8555   2.8818   2.9727   3.0694   3.1313
     3.2398   3.2783   3.3883   3.4180   3.4963   3.6135   3.6398   3.7697
     3.8506   4.3124   4.4539   4.5092   4.5741   4.7140   4.7783   4.8002
     4.8509   5.0476   5.0889   5.1726   5.2647   5.3160   5.3824   5.4193
     5.5572   5.5978   5.6402   5.6569   5.6889   5.7580   5.8417   5.8675
     5.9392   6.0118   6.0339   6.0625   6.1816   6.2193   6.2938   6.3517
     6.4214   6.4331   6.4787   6.5275   6.5408   6.5914   6.6486   6.6987
     6.7755   6.8048   6.9041   7.0430   7.0694   7.0838   7.1628   7.2207
     7.2501   7.3096   7.3431   7.4044   7.4394   7.5124   7.6342   7.6472
     7.6803   7.7287   7.7543   7.8662   7.9807   8.1055   8.1271   8.1859
     8.2637   8.3059   8.4300   8.4706   8.5604   8.6289   8.6504   8.7101
     8.7785   8.8249

     the Fermi energy is     7.2278 ev

!    total energy              =    -501.35370098 Ry
     estimated scf accuracy    <       0.00000062 Ry
     smearing contrib. (-TS)   =      -0.16273986 Ry
     internal energy E=F+TS    =    -501.19096112 Ry

     The total energy is F=E-TS. E is the sum of the following terms:
     one-electron contribution =     196.93213933 Ry
     hartree contribution      =      21.13031301 Ry
     xc contribution           =    -150.73559028 Ry
     ewald contribution        =    -568.51782318 Ry

     convergence has been achieved in  19 iterations

     Forces acting on atoms (cartesian axes, Ry/au):

     atom    1 type  1   force =    -0.01055178    0.01408102    0.01005427
     atom    2 type  1   force =     0.08214026   -0.01953305    0.00024167
     atom    3 type  1   force =     0.02962515    0.00918413    0.00070658
     atom    4 type  1   force =     0.01555560   -0.11363027    0.02342556
     atom    5 type  1   force =     0.00418686   -0.00800670   -0.00886300
     atom    6 type  1   force =     0.02512890    0.00568280   -0.02057194
     atom    7 type  1   force =    -0.04309349   -0.00714053   -0.02183897
     atom    8 type  1   force =     0.01844698   -0.00432704   -0.03405685
     atom    9 type  1   force =     0.04166109   -0.01781281   -0.02844607
     atom   10 type  1   force =     0.01945171    0.01347079   -0.00770712
     atom   11 type  1   force =    -0.02739602   -0.00796658    0.00036509
     atom   12 type  1   force =    -0.02006893   -0.01005510    0.03044477
     atom   13 type  1   force =    -0.01170628    0.00427621    0.00896966
     atom   14 type  1   force =    -0.01399795   -0.01868770   -0.02082494
     atom   15 type  1   force =    -0.04520986   -0.01938989   -0.00196492
     atom   16 type  1   force =     0.02933199    0.00632372   -0.01032801
     atom   17 type  1   force =    -0.01506758    0.01897132    0.00365988
     atom   18 type  1   force =    -0.01886123    0.06092147   -0.02516995
     atom   19 type  1   force =    -0.02043447   -0.03254847   -0.02078189
     atom   20 type  1   force =     0.01568302    0.01466366    0.01359093
     atom   21 type  1   force =     0.00151906    0.03509038    0.02208459
     atom   22 type  1   force =    -0.07028420   -0.03845622    0.01524634
     atom   23 type  1   force =    -0.01132874    0.05600849    0.01908995
     atom   24 type  1   force =    -0.01563106    0.00823942    0.01510544
     atom   25 type  1   force =     0.02419814   -0.03934111   -0.00962570
     atom   26 type  1   force =     0.06790182   -0.03424519   -0.03906618
     atom   27 type  1   force =    -0.00003472    0.00817850    0.02896124
     atom   28 type  1   force =     0.00110626    0.07846318   -0.03133607
     atom   29 type  1   force =     0.02969242    0.00550585   -0.00530825
     atom   30 type  1   force =    -0.05610981   -0.05357870    0.02924515
     atom   31 type  1   force =    -0.01733406    0.02167246   -0.00007869
     atom   32 type  1   force =     0.01412215    0.00661810   -0.01063559
     atom   33 type  1   force =     0.01707014   -0.01662926    0.01710457
     atom   34 type  1   force =     0.00290181   -0.02415648    0.01072423
     atom   35 type  1   force =     0.01540744   -0.06174030   -0.01111331
     atom   36 type  1   force =    -0.00404151   -0.00336403   -0.02397540
     atom   37 type  1   force =     0.03755486    0.00740194    0.02467563
     atom   38 type  1   force =    -0.02151049   -0.01914348    0.03093185
     atom   39 type  1   force =    -0.05011264   -0.00205207    0.02878910
     atom   40 type  1   force =     0.00049901    0.00065432   -0.00552946
     atom   41 type  1   force =    -0.00740822    0.00319018   -0.00600869
     atom   42 type  1   force =    -0.00947589   -0.01800714   -0.01658821
     atom   43 type  1   force =    -0.02918430    0.03071776    0.01509659
     atom   44 type  1   force =     0.02592914   -0.01008524    0.02857656
     atom   45 type  1   force =    -0.00622218   -0.00553269    0.01563438
     atom   46 type  1   force =     0.02639703   -0.01289849    0.01967543
     atom   47 type  1   force =     0.05870062    0.03960442   -0.04500727
     atom   48 type  1   force =     0.00900059    0.02881836    0.01299271
     atom   49 type  1   force =    -0.01812763    0.03615304    0.01282806
     atom   50 type  1   force =    -0.01856603   -0.02336110   -0.01684117
     atom   51 type  1   force =    -0.00373166   -0.00068661    0.01371723
     atom   52 type  1   force =    -0.00386750    0.01055821   -0.00779129
     atom   53 type  1   force =    -0.02657823   -0.00493287    0.01490991
     atom   54 type  1   force =     0.00099223   -0.01419531   -0.00580194
     atom   55 type  1   force =    -0.00107092   -0.02263608    0.00914503
     atom   56 type  1   force =    -0.01355385    0.01533871   -0.00274415
     atom   57 type  1   force =    -0.00604013   -0.01129820    0.02302591
     atom   58 type  1   force =    -0.01339880   -0.01147343   -0.02056330
     atom   59 type  1   force =     0.03123969    0.00675129   -0.02905939
     atom   60 type  1   force =     0.00529473   -0.01564802    0.00476788
     atom   61 type  1   force =    -0.00512964    0.02187237   -0.00265010
     atom   62 type  1   force =    -0.01093130    0.10737865   -0.02568243
     atom   63 type  1   force =     0.00079138    0.01022257    0.02204644
     atom   64 type  1   force =    -0.00546898    0.01654685   -0.00987240

     Total force =     0.367823     Total SCF correction =     0.001606


     Computing stress (Cartesian axis) and pressure

          total   stress  (Ry/bohr**3)                   (kbar)     P=      -33.27
  -0.00018985  -0.00007353  -0.00001797          -27.93      -10.82       -2.64
  -0.00007353  -0.00022801   0.00003297          -10.82      -33.54        4.85
  -0.00001797   0.00003297  -0.00026054           -2.64        4.85      -38.33

 
     init_run     :      1.07s CPU      4.92s WALL (       1 calls)
     electrons    :      1.99s CPU      2.16s WALL (       1 calls)
     forces       :      0.03s CPU      0.04s WALL (       1 calls)
     stress       :      0.15s CPU      0.15s WALL (       1 calls)

     Called by init_run:
     wfcinit      :      0.53s CPU      4.21s WALL (       1 calls)
                                        4.21s GPU  (       1 calls)
     potinit      :      0.05s CPU      0.14s WALL (       1 calls)
     hinit0       :      0.47s CPU      0.50s WALL (       1 calls)

     Called by electrons:
     c_bands      :      1.17s CPU      1.25s WALL (      20 calls)
     sum_band     :      0.40s CPU      0.45s WALL (      20 calls)
     v_of_rho     :      0.19s CPU      0.29s WALL (      20 calls)
     mix_rho      :      0.19s CPU      0.21s WALL (      20 calls)

     Called by c_bands:
     init_us_2    :      0.07s CPU      0.08s WALL (      41 calls)
     init_us_2:gp :      0.07s CPU      0.08s WALL (      41 calls)
     regterg      :      1.01s CPU      1.07s WALL (      20 calls)

     Called by *egterg:
     rdiaghg      :      0.41s CPU      1.17s WALL (      83 calls)
                                        1.15s GPU  (      83 calls)
     h_psi        :      0.94s CPU      3.92s WALL (      85 calls)
                                        3.91s GPU  (      85 calls)
     g_psi        :      0.00s CPU      0.00s WALL (      64 calls)
                                        0.00s GPU  (      64 calls)

     Called by h_psi:
     h_psi:calbec :      0.50s CPU      3.39s WALL (      85 calls)
                                        3.38s GPU  (      85 calls)
     vloc_psi     :      0.40s CPU      0.47s WALL (      85 calls)
                                        0.47s GPU  (      85 calls)
     add_vuspsi   :      0.03s CPU      0.05s WALL (      85 calls)
                                        0.05s GPU  (      85 calls)

     General routines
     calbec       :      0.50s CPU      3.39s WALL (      90 calls)
     fft          :      0.62s CPU      0.76s WALL (     167 calls)
                                        0.13s GPU  (     106 calls)
     ffts         :      0.05s CPU      0.05s WALL (      20 calls)
     fftw         :      0.49s CPU      0.64s WALL (    2100 calls)
                                        0.56s GPU  (    2100 calls)
 
     Parallel routines
 
     PWSCF        :      3.29s CPU      7.36s WALL

 
   This run was terminated on:  10:58: 1  10May2023            

=------------------------------------------------------------------------------=
   JOB DONE.
=------------------------------------------------------------------------------=
