An instance of this daemon is already running

     Program PWSCF v.7.1 starts on 10May2023 at 10:54:39 

     This program is part of the open-source Quantum ESPRESSO suite
     for quantum simulation of materials; please cite
         "P. Giannozzi et al., J. Phys.:Condens. Matter 21 395502 (2009);
         "P. Giannozzi et al., J. Phys.:Condens. Matter 29 465901 (2017);
         "P. Giannozzi et al., J. Chem. Phys. 152 154105 (2020);
          URL http://www.quantum-espresso.org", 
     in publications or presentations arising from this work. More details at
     http://www.quantum-espresso.org/quote

     Parallel version (MPI & OpenMP), running on       4 processor cores
     Number of MPI processes:                 4
     Threads/MPI process:                     1

     MPI processes distributed on     1 nodes
     753566 MiB available memory on the printing compute node when the environment starts
 
     Reading input from pw-si-4.in
Warning: card &CELL ignored
Warning: card / ignored

     Current dimensions of program PWSCF are:
     Max number of different atomic species (ntypx) = 10
     Max number of k-points (npk) =  40000
     Max angular momentum in pseudopotentials (lmaxx) =  4

     IMPORTANT: XC functional enforced from input :
     Exchange-correlation= PBE
                           (   1   4   3   4   0   0   0)
     Any further DFT definition will be discarded
     Please, verify this is what you really want


     gamma-point specific algorithms are used
 
     K-points division:     npool     =       2
     R & G space division:  proc/nbgrp/npool/nimage =       2
     Subspace diagonalization in iterative solution of the eigenvalue problem:
     a serial algorithm will be used

     Message from routine divide_et_impera:
     suboptimal parallelization: some nodes have no k-points
 
     Parallelization info
     --------------------
     sticks:   dense  smooth     PW     G-vecs:    dense   smooth      PW
     Min        1930    1930    504                90041    90041   12201
     Max        1931    1931    505                90042    90042   12204
     Sum        3861    3861   1009               180083   180083   24405
 
     Using Slab Decomposition
 


     bravais-lattice index     =            0
     lattice parameter (alat)  =      20.0894  a.u.
     unit-cell volume          =    8107.7299 (a.u.)^3
     number of atoms/cell      =           64
     number of atomic types    =            1
     number of electrons       =       256.00
     number of Kohn-Sham states=          154
     kinetic-energy cutoff     =      30.0000  Ry
     charge density cutoff     =     120.0000  Ry
     scf convergence threshold =      1.0E-06
     mixing beta               =       0.5000
     number of iterations used =            8  plain     mixing
     Exchange-correlation= PBE
                           (   1   4   3   4   0   0   0)

     GPU acceleration is ACTIVE.
     GPU-aware MPI enabled

     Message from routine print_cuda_info:
     High GPU oversubscription detected. Are you sure this is what you want?

     celldm(1)=  20.089375  celldm(2)=   0.000000  celldm(3)=   0.000000
     celldm(4)=   0.000000  celldm(5)=   0.000000  celldm(6)=   0.000000

     crystal axes: (cart. coord. in units of alat)
               a(1) = (   1.000000   0.000000   0.000000 )  
               a(2) = (   0.000000   1.000000   0.000000 )  
               a(3) = (   0.000000   0.000000   1.000000 )  

     reciprocal axes: (cart. coord. in units 2 pi/alat)
               b(1) = (  1.000000  0.000000  0.000000 )  
               b(2) = (  0.000000  1.000000  0.000000 )  
               b(3) = (  0.000000  0.000000  1.000000 )  


     PseudoPot. # 1 for Si read from file:
     /home/ppiaggi/pseudos/Si_ONCV_PBE_sr.upf
     MD5 check sum: 8553c464762ac42b85b1eed164b4d029
     Pseudo is Norm-conserving, Zval =  4.0
     Generated using ONCVPSP code by D. R. Hamann
     Using radial grid of 1510 points,  4 beta functions with: 
                l(1) =   0
                l(2) =   0
                l(3) =   1
                l(4) =   1

     atomic species   valence    mass     pseudopotential
        Si             4.00    28.08500     Si( 1.00)

     No symmetry found



   Cartesian axes

     site n.     atom                  positions (alat units)
         1           Si  tau(   1) = (   0.9397770   0.4394400   0.9952210  )
         2           Si  tau(   2) = (   0.7756560   0.0692532   0.2087710  )
         3           Si  tau(   3) = (   0.5212650   0.4864130   0.4453360  )
         4           Si  tau(   4) = (   0.3730570   0.7264730   0.2718500  )
         5           Si  tau(   5) = (   0.8266860   0.7529060   0.1072620  )
         6           Si  tau(   6) = (   0.6575220   0.2502420   0.9398510  )
         7           Si  tau(   7) = (   0.5704620   0.7203290   0.7389080  )
         8           Si  tau(   8) = (   0.0437196   0.1243560   0.9465920  )
         9           Si  tau(   9) = (   0.7847420   0.6927460   0.6803800  )
        10           Si  tau(  10) = (   0.4325950   0.1532550   0.9588860  )
        11           Si  tau(  11) = (   0.2501630   0.4936930   0.3987960  )
        12           Si  tau(  12) = (   0.1335150   0.2130360   0.1330970  )
        13           Si  tau(  13) = (   0.2926220   0.1258500   0.7828650  )
        14           Si  tau(  14) = (   0.0978584   0.9935010   0.5854520  )
        15           Si  tau(  15) = (   0.1374120   0.4473000   0.8730700  )
        16           Si  tau(  16) = (   0.4626440   0.7328470   0.5147330  )
        17           Si  tau(  17) = (   0.8475380   0.2625880   0.7659520  )
        18           Si  tau(  18) = (   0.7608220   0.6039850   0.3189620  )
        19           Si  tau(  19) = (   0.1239490   0.2667940   0.5103730  )
        20           Si  tau(  20) = (   0.2015590   0.7904730   0.1005800  )
        21           Si  tau(  21) = (   0.8711670   0.4766010   0.7160770  )
        22           Si  tau(  22) = (   0.5286810   0.8896580   0.2803300  )
        23           Si  tau(  23) = (   0.1056100   0.2389180   0.7393550  )
        24           Si  tau(  24) = (   0.0007267   0.6592750   0.3538140  )
        25           Si  tau(  25) = (   0.2083790   0.5390720   0.1480440  )
        26           Si  tau(  26) = (   0.7949410   0.3820000   0.3681320  )
        27           Si  tau(  27) = (   0.6447580   0.1347880   0.4612480  )
        28           Si  tau(  28) = (   0.2998440   0.3260550   0.0241015  )
        29           Si  tau(  29) = (   0.9925410   0.4547720   0.5213540  )
        30           Si  tau(  30) = (   0.8910420   0.0598272   0.6914740  )
        31           Si  tau(  31) = (   0.0000164   0.8456850   0.2090490  )
        32           Si  tau(  32) = (   0.2119730   0.9620780   0.3569480  )
        33           Si  tau(  33) = (   0.4732310   0.7243820   0.0270383  )
        34           Si  tau(  34) = (   0.6784200   0.9105240   0.1144510  )
        35           Si  tau(  35) = (   0.2036550   0.7462700   0.4569150  )
        36           Si  tau(  36) = (   0.1806760   0.8341690   0.7459940  )
        37           Si  tau(  37) = (   0.4778650   0.9137650   0.9282300  )
        38           Si  tau(  38) = (   0.6001460   0.4813130   0.9756650  )
        39           Si  tau(  39) = (   0.2960820   0.0278352   0.0970014  )
        40           Si  tau(  40) = (   0.5828720   0.0987877   0.7114920  )
        41           Si  tau(  41) = (   0.6703530   0.7851200   0.4463110  )
        42           Si  tau(  42) = (   0.7016730   0.0041555   0.9170950  )
        43           Si  tau(  43) = (   0.6632260   0.2793600   0.2332110  )
        44           Si  tau(  44) = (   0.8006610   0.9795300   0.4711240  )
        45           Si  tau(  45) = (   0.8446070   0.8394830   0.8442520  )
        46           Si  tau(  46) = (   0.3493050   0.2650280   0.4813150  )
        47           Si  tau(  47) = (   0.3905130   0.9178620   0.7096080  )
        48           Si  tau(  48) = (   0.4647400   0.2937680   0.6918720  )
        49           Si  tau(  49) = (   0.4601330   0.5201320   0.8069320  )
        50           Si  tau(  50) = (   0.6872430   0.3288850   0.5591530  )
        51           Si  tau(  51) = (   0.8551990   0.2288410   0.0339711  )
        52           Si  tau(  52) = (   0.4088520   0.0420464   0.4844740  )
        53           Si  tau(  53) = (   0.0183433   0.5095600   0.1982570  )
        54           Si  tau(  54) = (   0.9540980   0.8193780   0.5509430  )
        55           Si  tau(  55) = (   0.7851820   0.6082420   0.9376950  )
        56           Si  tau(  56) = (   0.9664160   0.0219717   0.3293430  )
        57           Si  tau(  57) = (   0.2734930   0.6600000   0.9218750  )
        58           Si  tau(  58) = (   0.3161690   0.5332840   0.6189430  )
        59           Si  tau(  59) = (   0.9886150   0.2625240   0.3002750  )
        60           Si  tau(  60) = (   0.5432380   0.5412100   0.1967700  )
        61           Si  tau(  61) = (   0.3930430   0.3555820   0.2127900  )
        62           Si  tau(  62) = (   0.1159110   0.5999260   0.6975470  )
        63           Si  tau(  63) = (   0.0591979   0.9088150   0.9284190  )
        64           Si  tau(  64) = (   0.4458300   0.1029590   0.2420700  )

     number of k points=     1  Fermi-Dirac smearing, width (Ry)=  0.0100
                       cart. coord. in units 2pi/alat
        k(    1) = (   0.0000000   0.0000000   0.0000000), wk =   2.0000000

     Dense  grid:    90042 G-vectors     FFT dimensions: (  72,  72,  72)

     Estimated max dynamical RAM per process >     144.57 MB

     Estimated total dynamical RAM >     556.31 MB

     Initial potential from superposition of free atoms

     starting charge     255.9608, renormalised to     256.0000
     Starting wfcs are  256 randomized atomic wfcs

     total cpu time spent up to now is        5.0 secs

     Self-consistent Calculation

     iteration #  1     ecut=    30.00 Ry     beta= 0.50
     Davidson diagonalization with overlap
     ethr =  1.00E-02,  avg # of iterations =  3.0

     Threshold (ethr) on eigenvalues was too large:
     Diagonalizing with lowered threshold

     Davidson diagonalization with overlap
     ethr =  4.25E-04,  avg # of iterations =  4.0

     total cpu time spent up to now is        5.3 secs

     total energy              =    -501.22239102 Ry
     estimated scf accuracy    <       1.28643925 Ry

     iteration #  2     ecut=    30.00 Ry     beta= 0.50
     Davidson diagonalization with overlap
     ethr =  5.03E-04,  avg # of iterations =  5.0

     total cpu time spent up to now is        5.4 secs

     total energy              =    -500.55572310 Ry
     estimated scf accuracy    <       8.77105888 Ry

     iteration #  3     ecut=    30.00 Ry     beta= 0.50
     Davidson diagonalization with overlap
     ethr =  5.03E-04,  avg # of iterations =  5.0

     total cpu time spent up to now is        5.6 secs

     total energy              =    -501.37550757 Ry
     estimated scf accuracy    <       1.36303764 Ry

     iteration #  4     ecut=    30.00 Ry     beta= 0.50
     Davidson diagonalization with overlap
     ethr =  5.03E-04,  avg # of iterations =  2.0

     total cpu time spent up to now is        5.7 secs

     total energy              =    -501.45049392 Ry
     estimated scf accuracy    <       0.56961197 Ry

     iteration #  5     ecut=    30.00 Ry     beta= 0.50
     Davidson diagonalization with overlap
     ethr =  2.23E-04,  avg # of iterations =  2.0

     total cpu time spent up to now is        5.7 secs

     total energy              =    -501.48483694 Ry
     estimated scf accuracy    <       0.35415527 Ry

     iteration #  6     ecut=    30.00 Ry     beta= 0.50
     Davidson diagonalization with overlap
     ethr =  1.38E-04,  avg # of iterations =  2.0

     total cpu time spent up to now is        5.8 secs

     total energy              =    -501.51902181 Ry
     estimated scf accuracy    <       0.08449099 Ry

     iteration #  7     ecut=    30.00 Ry     beta= 0.50
     Davidson diagonalization with overlap
     ethr =  3.30E-05,  avg # of iterations =  2.0

     total cpu time spent up to now is        5.9 secs

     total energy              =    -501.52693166 Ry
     estimated scf accuracy    <       0.01781568 Ry

     iteration #  8     ecut=    30.00 Ry     beta= 0.50
     Davidson diagonalization with overlap
     c_bands:  1 eigenvalues not converged
     ethr =  6.96E-06,  avg # of iterations = 20.0

     total cpu time spent up to now is        6.1 secs

     total energy              =    -501.52831334 Ry
     estimated scf accuracy    <       0.03000281 Ry

     iteration #  9     ecut=    30.00 Ry     beta= 0.50
     Davidson diagonalization with overlap
     ethr =  6.96E-06,  avg # of iterations =  8.0

     total cpu time spent up to now is        6.3 secs

     total energy              =    -501.53046200 Ry
     estimated scf accuracy    <       0.00132409 Ry

     iteration # 10     ecut=    30.00 Ry     beta= 0.50
     Davidson diagonalization with overlap
     c_bands:  1 eigenvalues not converged
     ethr =  5.17E-07,  avg # of iterations = 20.0

     total cpu time spent up to now is        6.5 secs

     total energy              =    -501.53064131 Ry
     estimated scf accuracy    <       0.00144717 Ry

     iteration # 11     ecut=    30.00 Ry     beta= 0.50
     Davidson diagonalization with overlap
     ethr =  5.17E-07,  avg # of iterations =  3.0

     total cpu time spent up to now is        6.6 secs

     total energy              =    -501.53070301 Ry
     estimated scf accuracy    <       0.00107383 Ry

     iteration # 12     ecut=    30.00 Ry     beta= 0.50
     Davidson diagonalization with overlap
     ethr =  4.19E-07,  avg # of iterations =  2.0

     total cpu time spent up to now is        6.7 secs

     total energy              =    -501.53080107 Ry
     estimated scf accuracy    <       0.00032274 Ry

     iteration # 13     ecut=    30.00 Ry     beta= 0.50
     Davidson diagonalization with overlap
     ethr =  1.26E-07,  avg # of iterations =  2.0

     total cpu time spent up to now is        6.8 secs

     total energy              =    -501.53082471 Ry
     estimated scf accuracy    <       0.00005012 Ry

     iteration # 14     ecut=    30.00 Ry     beta= 0.50
     Davidson diagonalization with overlap
     ethr =  1.96E-08,  avg # of iterations =  2.0

     total cpu time spent up to now is        6.9 secs

     total energy              =    -501.53083076 Ry
     estimated scf accuracy    <       0.00002358 Ry

     iteration # 15     ecut=    30.00 Ry     beta= 0.50
     Davidson diagonalization with overlap
     ethr =  9.21E-09,  avg # of iterations =  2.0

     total cpu time spent up to now is        7.0 secs

     total energy              =    -501.53083299 Ry
     estimated scf accuracy    <       0.00001215 Ry

     iteration # 16     ecut=    30.00 Ry     beta= 0.50
     Davidson diagonalization with overlap
     ethr =  4.75E-09,  avg # of iterations =  2.0

     total cpu time spent up to now is        7.1 secs

     total energy              =    -501.53083378 Ry
     estimated scf accuracy    <       0.00001184 Ry

     iteration # 17     ecut=    30.00 Ry     beta= 0.50
     Davidson diagonalization with overlap
     ethr =  4.62E-09,  avg # of iterations =  1.0

     total cpu time spent up to now is        7.2 secs

     total energy              =    -501.53083451 Ry
     estimated scf accuracy    <       0.00000133 Ry

     iteration # 18     ecut=    30.00 Ry     beta= 0.50
     Davidson diagonalization with overlap
     ethr =  5.21E-10,  avg # of iterations =  3.0

     total cpu time spent up to now is        7.3 secs

     total energy              =    -501.53083468 Ry
     estimated scf accuracy    <       0.00000101 Ry

     iteration # 19     ecut=    30.00 Ry     beta= 0.50
     Davidson diagonalization with overlap
     ethr =  3.95E-10,  avg # of iterations =  2.0

     total cpu time spent up to now is        7.4 secs

     End of self-consistent calculation

          k = 0.0000 0.0000 0.0000 ( 11288 PWs)   bands (ev):

    -5.2918  -4.2934  -4.2547  -4.1767  -4.0356  -4.0251  -3.9352  -3.2921
    -3.2491  -3.1511  -3.0753  -3.0126  -2.9111  -2.8514  -2.7909  -2.7747
    -2.6881  -2.6159  -2.5314  -2.0395  -1.8948  -1.7758  -1.7485  -1.6783
    -1.6372  -1.5106  -1.3721  -1.0750  -0.8241  -0.5487  -0.4840  -0.3212
    -0.1647  -0.1224  -0.0002   0.0876   0.1250   0.1906   0.2579   0.3110
     0.3884   0.4611   0.5772   0.7217   0.7520   0.7747   0.9486   0.9947
     1.1724   1.2173   1.2819   1.3573   1.4851   1.5691   1.5903   1.7157
     1.7643   1.8750   1.9602   1.9664   2.1114   2.3282   2.3707   2.5170
     2.5821   2.6732   2.7110   2.8194   2.8744   2.9383   3.0263   3.0576
     3.1267   3.1599   3.2466   3.3236   3.4218   3.5141   3.6355   3.6810
     3.8234   4.0143   4.3430   4.3970   4.4996   4.5193   4.5791   4.7665
     4.8552   4.8721   4.9434   4.9981   5.1162   5.1864   5.2409   5.2752
     5.3638   5.3911   5.4239   5.5143   5.5472   5.5930   5.6493   5.7103
     5.7740   5.8014   5.9031   5.9475   6.0276   6.0688   6.1060   6.1614
     6.2178   6.2958   6.3469   6.4017   6.4632   6.5055   6.5163   6.6205
     6.6284   6.8036   6.8743   6.9343   7.0067   7.0358   7.0560   7.1286
     7.1659   7.2669   7.3053   7.3324   7.4497   7.4625   7.5650   7.6035
     7.6860   7.7588   7.8070   7.9223   7.9796   7.9806   8.0771   8.1044
     8.1220   8.2207   8.3352   8.4129   8.4308   8.6309   8.6469   8.7164
     8.7529   8.8082

     the Fermi energy is     7.1646 ev

!    total energy              =    -501.53083457 Ry
     estimated scf accuracy    <       0.00000028 Ry
     smearing contrib. (-TS)   =      -0.15255038 Ry
     internal energy E=F+TS    =    -501.37828419 Ry

     The total energy is F=E-TS. E is the sum of the following terms:
     one-electron contribution =     193.48058216 Ry
     hartree contribution      =      21.89972957 Ry
     xc contribution           =    -150.94139355 Ry
     ewald contribution        =    -565.81720237 Ry

     convergence has been achieved in  19 iterations

     Forces acting on atoms (cartesian axes, Ry/au):

     atom    1 type  1   force =     0.01040837    0.02207817   -0.00518741
     atom    2 type  1   force =     0.03097704    0.08684517    0.01801698
     atom    3 type  1   force =    -0.01034390   -0.00085608    0.00256996
     atom    4 type  1   force =    -0.02912379   -0.01390477   -0.01726647
     atom    5 type  1   force =    -0.00654521   -0.03383205    0.02124804
     atom    6 type  1   force =    -0.02221012   -0.00705813   -0.02832978
     atom    7 type  1   force =    -0.02336991   -0.01166355   -0.01008494
     atom    8 type  1   force =    -0.02721235    0.02511196   -0.00747152
     atom    9 type  1   force =     0.00654991   -0.00186773   -0.00430355
     atom   10 type  1   force =     0.01233075   -0.00397701   -0.01255974
     atom   11 type  1   force =     0.00593180    0.00103129   -0.02906216
     atom   12 type  1   force =     0.02778481   -0.02424426   -0.02239680
     atom   13 type  1   force =     0.01564261   -0.00786245   -0.00189031
     atom   14 type  1   force =    -0.00152301    0.00139678    0.01422957
     atom   15 type  1   force =     0.00269582   -0.01785884    0.00566264
     atom   16 type  1   force =    -0.02134245   -0.03749398    0.03957195
     atom   17 type  1   force =    -0.02416242    0.00987609    0.02036915
     atom   18 type  1   force =    -0.00532478    0.02317540   -0.03295356
     atom   19 type  1   force =    -0.01028720    0.01409314   -0.02075884
     atom   20 type  1   force =     0.00210323    0.01968664    0.00573211
     atom   21 type  1   force =     0.01237359    0.02288315   -0.02397779
     atom   22 type  1   force =     0.02208746    0.01093845    0.00356185
     atom   23 type  1   force =    -0.01311610    0.01503031    0.03077951
     atom   24 type  1   force =    -0.00642512    0.02108655    0.04190246
     atom   25 type  1   force =     0.11133884    0.01498645   -0.02415668
     atom   26 type  1   force =     0.05359738    0.03646727    0.02652733
     atom   27 type  1   force =    -0.04937906   -0.00353581    0.00092270
     atom   28 type  1   force =    -0.05432440    0.02631347   -0.03144466
     atom   29 type  1   force =    -0.00258490    0.02963594   -0.00625754
     atom   30 type  1   force =     0.02445875   -0.04654588   -0.03542762
     atom   31 type  1   force =     0.03138610   -0.04872319   -0.02205057
     atom   32 type  1   force =     0.01421473   -0.00581291    0.01940888
     atom   33 type  1   force =    -0.01478383   -0.04632074    0.03141762
     atom   34 type  1   force =    -0.05067731   -0.03475958    0.00397678
     atom   35 type  1   force =     0.00130897   -0.01884862   -0.02487157
     atom   36 type  1   force =     0.00994824   -0.01449335    0.00788512
     atom   37 type  1   force =     0.01553537    0.03607584   -0.03121999
     atom   38 type  1   force =     0.01003923   -0.00458268    0.03220598
     atom   39 type  1   force =    -0.02828671   -0.01234648    0.02006884
     atom   40 type  1   force =     0.00790026   -0.01329639    0.00583469
     atom   41 type  1   force =     0.00126318   -0.00529782   -0.02279067
     atom   42 type  1   force =    -0.03515001    0.00495247   -0.03896945
     atom   43 type  1   force =    -0.03908834   -0.05988397   -0.02239025
     atom   44 type  1   force =     0.01207226   -0.02012367    0.03823817
     atom   45 type  1   force =     0.02894152    0.03850574    0.01514562
     atom   46 type  1   force =     0.00777599    0.02399886    0.01043086
     atom   47 type  1   force =    -0.00034136    0.01623316   -0.00669019
     atom   48 type  1   force =    -0.00277399    0.02440358   -0.01362732
     atom   49 type  1   force =    -0.01949478    0.01015627   -0.01614185
     atom   50 type  1   force =    -0.01500395    0.01014263    0.03276552
     atom   51 type  1   force =     0.02656914   -0.01837501    0.01262266
     atom   52 type  1   force =     0.01244179    0.00489609   -0.01345642
     atom   53 type  1   force =    -0.08416937   -0.05591111    0.00300743
     atom   54 type  1   force =    -0.00406238   -0.01595129   -0.00238550
     atom   55 type  1   force =     0.01898541   -0.02537904    0.00175968
     atom   56 type  1   force =    -0.00385246    0.03697320   -0.00239687
     atom   57 type  1   force =     0.00822216   -0.00830288   -0.00794021
     atom   58 type  1   force =     0.02897928    0.02119626   -0.01213198
     atom   59 type  1   force =     0.00663189   -0.00012759    0.01428196
     atom   60 type  1   force =     0.00918550   -0.01071593   -0.00402795
     atom   61 type  1   force =     0.03244978    0.01840024    0.06373547
     atom   62 type  1   force =    -0.00919216    0.01720990   -0.01170695
     atom   63 type  1   force =    -0.01860428   -0.03271882   -0.00630999
     atom   64 type  1   force =     0.01062450    0.01889112    0.02875759

     Total force =     0.352227     Total SCF correction =     0.001031


     Computing stress (Cartesian axis) and pressure

          total   stress  (Ry/bohr**3)                   (kbar)     P=      -29.96
  -0.00012119   0.00005757   0.00001684          -17.83        8.47        2.48
   0.00005757  -0.00032363   0.00002894            8.47      -47.61        4.26
   0.00001684   0.00002894  -0.00016614            2.48        4.26      -24.44

 
     init_run     :      1.08s CPU      4.94s WALL (       1 calls)
     electrons    :      2.16s CPU      2.35s WALL (       1 calls)
     forces       :      0.04s CPU      0.04s WALL (       1 calls)
     stress       :      0.15s CPU      0.15s WALL (       1 calls)

     Called by init_run:
     wfcinit      :      0.55s CPU      4.22s WALL (       1 calls)
                                        4.22s GPU  (       1 calls)
     potinit      :      0.04s CPU      0.15s WALL (       1 calls)
     hinit0       :      0.47s CPU      0.50s WALL (       1 calls)

     Called by electrons:
     c_bands      :      1.36s CPU      1.45s WALL (      20 calls)
     sum_band     :      0.39s CPU      0.45s WALL (      20 calls)
     v_of_rho     :      0.19s CPU      0.30s WALL (      20 calls)
     mix_rho      :      0.18s CPU      0.20s WALL (      20 calls)

     Called by c_bands:
     init_us_2    :      0.07s CPU      0.08s WALL (      41 calls)
     init_us_2:gp :      0.07s CPU      0.08s WALL (      41 calls)
     regterg      :      1.18s CPU      1.26s WALL (      20 calls)

     Called by *egterg:
     rdiaghg      :      0.54s CPU      1.30s WALL (     111 calls)
                                        1.28s GPU  (     111 calls)
     h_psi        :      0.99s CPU      3.95s WALL (     113 calls)
                                        3.95s GPU  (     113 calls)
     g_psi        :      0.00s CPU      0.00s WALL (      92 calls)
                                        0.00s GPU  (      92 calls)

     Called by h_psi:
     h_psi:calbec :      0.51s CPU      3.39s WALL (     113 calls)
                                        3.39s GPU  (     113 calls)
     vloc_psi     :      0.40s CPU      0.48s WALL (     113 calls)
                                        0.48s GPU  (     113 calls)
     add_vuspsi   :      0.05s CPU      0.07s WALL (     113 calls)
                                        0.07s GPU  (     113 calls)

     General routines
     calbec       :      0.52s CPU      3.40s WALL (     118 calls)
     fft          :      0.63s CPU      0.77s WALL (     167 calls)
                                        0.14s GPU  (     106 calls)
     ffts         :      0.05s CPU      0.05s WALL (      20 calls)
     fftw         :      0.48s CPU      0.64s WALL (    2150 calls)
                                        0.56s GPU  (    2150 calls)
 
     Parallel routines
 
     PWSCF        :      3.47s CPU      7.57s WALL

 
   This run was terminated on:  10:54:46  10May2023            

=------------------------------------------------------------------------------=
   JOB DONE.
=------------------------------------------------------------------------------=
