An instance of this daemon is already running
An instance of this daemon is already running

     Program PWSCF v.7.1 starts on 10May2023 at 10:58: 3 

     This program is part of the open-source Quantum ESPRESSO suite
     for quantum simulation of materials; please cite
         "P. Giannozzi et al., J. Phys.:Condens. Matter 21 395502 (2009);
         "P. Giannozzi et al., J. Phys.:Condens. Matter 29 465901 (2017);
         "P. Giannozzi et al., J. Chem. Phys. 152 154105 (2020);
          URL http://www.quantum-espresso.org", 
     in publications or presentations arising from this work. More details at
     http://www.quantum-espresso.org/quote

     Parallel version (MPI & OpenMP), running on       4 processor cores
     Number of MPI processes:                 4
     Threads/MPI process:                     1

     MPI processes distributed on     1 nodes
     753555 MiB available memory on the printing compute node when the environment starts
 
     Reading input from pw-si-25.in
Warning: card &CELL ignored
Warning: card / ignored

     Current dimensions of program PWSCF are:
     Max number of different atomic species (ntypx) = 10
     Max number of k-points (npk) =  40000
     Max angular momentum in pseudopotentials (lmaxx) =  4

     IMPORTANT: XC functional enforced from input :
     Exchange-correlation= PBE
                           (   1   4   3   4   0   0   0)
     Any further DFT definition will be discarded
     Please, verify this is what you really want


     gamma-point specific algorithms are used
 
     K-points division:     npool     =       2
     R & G space division:  proc/nbgrp/npool/nimage =       2
     Subspace diagonalization in iterative solution of the eigenvalue problem:
     a serial algorithm will be used

     Message from routine divide_et_impera:
     suboptimal parallelization: some nodes have no k-points
 
     Parallelization info
     --------------------
     sticks:   dense  smooth     PW     G-vecs:    dense   smooth      PW
     Min        1945    1945    516                91383    91383   12416
     Max        1948    1948    517                91388    91388   12421
     Sum        3893    3893   1033               182771   182771   24837
 
     Using Slab Decomposition
 


     bravais-lattice index     =            0
     lattice parameter (alat)  =      20.1917  a.u.
     unit-cell volume          =    8232.2375 (a.u.)^3
     number of atoms/cell      =           64
     number of atomic types    =            1
     number of electrons       =       256.00
     number of Kohn-Sham states=          154
     kinetic-energy cutoff     =      30.0000  Ry
     charge density cutoff     =     120.0000  Ry
     scf convergence threshold =      1.0E-06
     mixing beta               =       0.5000
     number of iterations used =            8  plain     mixing
     Exchange-correlation= PBE
                           (   1   4   3   4   0   0   0)

     GPU acceleration is ACTIVE.
     GPU-aware MPI enabled

     Message from routine print_cuda_info:
     High GPU oversubscription detected. Are you sure this is what you want?

     celldm(1)=  20.191688  celldm(2)=   0.000000  celldm(3)=   0.000000
     celldm(4)=   0.000000  celldm(5)=   0.000000  celldm(6)=   0.000000

     crystal axes: (cart. coord. in units of alat)
               a(1) = (   1.000000   0.000000   0.000000 )  
               a(2) = (   0.000000   1.000000   0.000000 )  
               a(3) = (   0.000000   0.000000   1.000000 )  

     reciprocal axes: (cart. coord. in units 2 pi/alat)
               b(1) = (  1.000000  0.000000  0.000000 )  
               b(2) = (  0.000000  1.000000  0.000000 )  
               b(3) = (  0.000000  0.000000  1.000000 )  


     PseudoPot. # 1 for Si read from file:
     /home/ppiaggi/pseudos/Si_ONCV_PBE_sr.upf
     MD5 check sum: 8553c464762ac42b85b1eed164b4d029
     Pseudo is Norm-conserving, Zval =  4.0
     Generated using ONCVPSP code by D. R. Hamann
     Using radial grid of 1510 points,  4 beta functions with: 
                l(1) =   0
                l(2) =   0
                l(3) =   1
                l(4) =   1

     atomic species   valence    mass     pseudopotential
        Si             4.00    28.08500     Si( 1.00)

     No symmetry found



   Cartesian axes

     site n.     atom                  positions (alat units)
         1           Si  tau(   1) = (   0.3385910   0.8297500   0.1730740  )
         2           Si  tau(   2) = (   0.5702490   0.2051730   0.6630840  )
         3           Si  tau(   3) = (   0.6681760   0.1462550   0.4633520  )
         4           Si  tau(   4) = (   0.0812692   0.4232600   0.4439660  )
         5           Si  tau(   5) = (   0.5807860   0.9712230   0.1471070  )
         6           Si  tau(   6) = (   0.3692030   0.4179320   0.9524490  )
         7           Si  tau(   7) = (   0.5266220   0.2213870   0.1329730  )
         8           Si  tau(   8) = (   0.1708440   0.5579040   0.6128440  )
         9           Si  tau(   9) = (   0.3448000   0.9746150   0.5122260  )
        10           Si  tau(  10) = (   0.0115347   0.5362770   0.8557300  )
        11           Si  tau(  11) = (   0.7667190   0.4854300   0.3897430  )
        12           Si  tau(  12) = (   0.3059330   0.0776656   0.1408710  )
        13           Si  tau(  13) = (   0.2916800   0.9508710   0.9431450  )
        14           Si  tau(  14) = (   0.4042100   0.6118940   0.7289390  )
        15           Si  tau(  15) = (   0.0469443   0.0167922   0.9257990  )
        16           Si  tau(  16) = (   0.4567440   0.8678810   0.6785220  )
        17           Si  tau(  17) = (   0.6306870   0.5604010   0.8178870  )
        18           Si  tau(  18) = (   0.8935340   0.4401570   0.5628440  )
        19           Si  tau(  19) = (   0.9390840   0.5394540   0.0859848  )
        20           Si  tau(  20) = (   0.2172970   0.6187780   0.9054610  )
        21           Si  tau(  21) = (   0.8813760   0.9979420   0.0902028  )
        22           Si  tau(  22) = (   0.1948700   0.5982270   0.1925390  )
        23           Si  tau(  23) = (   0.7481450   0.8129830   0.2211780  )
        24           Si  tau(  24) = (   0.0413289   0.8757930   0.2509490  )
        25           Si  tau(  25) = (   0.6495390   0.8618620   0.5167820  )
        26           Si  tau(  26) = (   0.0203964   0.7760010   0.5616380  )
        27           Si  tau(  27) = (   0.7203430   0.3545910   0.8503780  )
        28           Si  tau(  28) = (   0.4688440   0.0843242   0.3640400  )
        29           Si  tau(  29) = (   0.9216290   0.1962470   0.2169180  )
        30           Si  tau(  30) = (   0.5414950   0.8536610   0.9392890  )
        31           Si  tau(  31) = (   0.7043910   0.9686790   0.7263740  )
        32           Si  tau(  32) = (   0.4471850   0.3978380   0.6005690  )
        33           Si  tau(  33) = (   0.2241140   0.8027190   0.7272460  )
        34           Si  tau(  34) = (   0.8589000   0.2702580   0.6998590  )
        35           Si  tau(  35) = (   0.2181700   0.8300830   0.3976780  )
        36           Si  tau(  36) = (   0.3770350   0.3913780   0.2016620  )
        37           Si  tau(  37) = (   0.8951460   0.6234140   0.6970440  )
        38           Si  tau(  38) = (   0.0371784   0.9827860   0.6872890  )
        39           Si  tau(  39) = (   0.5185850   0.5422450   0.4533370  )
        40           Si  tau(  40) = (   0.0619967   0.2760620   0.8357860  )
        41           Si  tau(  41) = (   0.1717240   0.2261100   0.4621140  )
        42           Si  tau(  42) = (   0.8582980   0.8405830   0.8351440  )
        43           Si  tau(  43) = (   0.0851096   0.7943930   0.0265229  )
        44           Si  tau(  44) = (   0.7491880   0.7081000   0.9718840  )
        45           Si  tau(  45) = (   0.1683150   0.2347650   0.0521232  )
        46           Si  tau(  46) = (   0.3068450   0.5944640   0.4064420  )
        47           Si  tau(  47) = (   0.6868610   0.0586717   0.9581130  )
        48           Si  tau(  48) = (   0.7251090   0.5886970   0.1939930  )
        49           Si  tau(  49) = (   0.2143980   0.1125160   0.6536610  )
        50           Si  tau(  50) = (   0.5013470   0.5927070   0.2181010  )
        51           Si  tau(  51) = (   0.8670610   0.9012230   0.4256010  )
        52           Si  tau(  52) = (   0.3721680   0.2728340   0.4170160  )
        53           Si  tau(  53) = (   0.1044950   0.3894300   0.2104100  )
        54           Si  tau(  54) = (   0.4486440   0.6561620   0.9859710  )
        55           Si  tau(  55) = (   0.5362630   0.2517800   0.9098790  )
        56           Si  tau(  56) = (   0.4315850   0.0659770   0.7761260  )
        57           Si  tau(  57) = (   0.1113770   0.0948873   0.3116240  )
        58           Si  tau(  58) = (   0.9036170   0.3066030   0.0124230  )
        59           Si  tau(  59) = (   0.2443080   0.3804100   0.7466610  )
        60           Si  tau(  60) = (   0.9200790   0.0756357   0.5404120  )
        61           Si  tau(  61) = (   0.7080960   0.2729620   0.2771940  )
        62           Si  tau(  62) = (   0.6686000   0.6341650   0.5941880  )
        63           Si  tau(  63) = (   0.9964640   0.6484670   0.3219860  )
        64           Si  tau(  64) = (   0.5067020   0.8071790   0.3435470  )

     number of k points=     1  Fermi-Dirac smearing, width (Ry)=  0.0100
                       cart. coord. in units 2pi/alat
        k(    1) = (   0.0000000   0.0000000   0.0000000), wk =   2.0000000

     Dense  grid:    91386 G-vectors     FFT dimensions: (  72,  72,  72)

     Estimated max dynamical RAM per process >     146.54 MB

     Estimated total dynamical RAM >     563.83 MB

     Initial potential from superposition of free atoms

     starting charge     255.9608, renormalised to     256.0000
     Starting wfcs are  256 randomized atomic wfcs

     total cpu time spent up to now is        5.0 secs

     Self-consistent Calculation

     iteration #  1     ecut=    30.00 Ry     beta= 0.50
     Davidson diagonalization with overlap
     ethr =  1.00E-02,  avg # of iterations =  3.0

     Threshold (ethr) on eigenvalues was too large:
     Diagonalizing with lowered threshold

     Davidson diagonalization with overlap
     ethr =  3.65E-04,  avg # of iterations =  4.0

     total cpu time spent up to now is        5.3 secs

     total energy              =    -501.26943894 Ry
     estimated scf accuracy    <       1.11595734 Ry

     iteration #  2     ecut=    30.00 Ry     beta= 0.50
     Davidson diagonalization with overlap
     ethr =  4.36E-04,  avg # of iterations =  4.0

     total cpu time spent up to now is        5.4 secs

     total energy              =    -500.73187316 Ry
     estimated scf accuracy    <       6.40330022 Ry

     iteration #  3     ecut=    30.00 Ry     beta= 0.50
     Davidson diagonalization with overlap
     ethr =  4.36E-04,  avg # of iterations =  4.0

     total cpu time spent up to now is        5.6 secs

     total energy              =    -501.36290199 Ry
     estimated scf accuracy    <       1.39284591 Ry

     iteration #  4     ecut=    30.00 Ry     beta= 0.50
     Davidson diagonalization with overlap
     ethr =  4.36E-04,  avg # of iterations =  2.0

     total cpu time spent up to now is        5.7 secs

     total energy              =    -501.41664957 Ry
     estimated scf accuracy    <       0.60396588 Ry

     iteration #  5     ecut=    30.00 Ry     beta= 0.50
     Davidson diagonalization with overlap
     ethr =  2.36E-04,  avg # of iterations =  2.0

     total cpu time spent up to now is        5.8 secs

     total energy              =    -501.45082294 Ry
     estimated scf accuracy    <       0.51221023 Ry

     iteration #  6     ecut=    30.00 Ry     beta= 0.50
     Davidson diagonalization with overlap
     ethr =  2.00E-04,  avg # of iterations =  2.0

     total cpu time spent up to now is        5.8 secs

     total energy              =    -501.49242561 Ry
     estimated scf accuracy    <       0.05920212 Ry

     iteration #  7     ecut=    30.00 Ry     beta= 0.50
     Davidson diagonalization with overlap
     ethr =  2.31E-05,  avg # of iterations =  2.0

     total cpu time spent up to now is        5.9 secs

     total energy              =    -501.49855479 Ry
     estimated scf accuracy    <       0.03970867 Ry

     iteration #  8     ecut=    30.00 Ry     beta= 0.50
     Davidson diagonalization with overlap
     ethr =  1.55E-05,  avg # of iterations =  2.0

     total cpu time spent up to now is        6.0 secs

     total energy              =    -501.50259385 Ry
     estimated scf accuracy    <       0.01272613 Ry

     iteration #  9     ecut=    30.00 Ry     beta= 0.50
     Davidson diagonalization with overlap
     c_bands:  1 eigenvalues not converged
     ethr =  4.97E-06,  avg # of iterations = 20.0

     total cpu time spent up to now is        6.2 secs

     total energy              =    -501.50367054 Ry
     estimated scf accuracy    <       0.00181935 Ry

     iteration # 10     ecut=    30.00 Ry     beta= 0.50
     Davidson diagonalization with overlap
     ethr =  7.11E-07,  avg # of iterations =  6.0

     total cpu time spent up to now is        6.4 secs

     total energy              =    -501.50377967 Ry
     estimated scf accuracy    <       0.00351928 Ry

     iteration # 11     ecut=    30.00 Ry     beta= 0.50
     Davidson diagonalization with overlap
     ethr =  7.11E-07,  avg # of iterations =  2.0

     total cpu time spent up to now is        6.4 secs

     total energy              =    -501.50401392 Ry
     estimated scf accuracy    <       0.00033048 Ry

     iteration # 12     ecut=    30.00 Ry     beta= 0.50
     Davidson diagonalization with overlap
     ethr =  1.29E-07,  avg # of iterations =  3.0

     total cpu time spent up to now is        6.6 secs

     total energy              =    -501.50406978 Ry
     estimated scf accuracy    <       0.00020463 Ry

     iteration # 13     ecut=    30.00 Ry     beta= 0.50
     Davidson diagonalization with overlap
     ethr =  7.99E-08,  avg # of iterations =  2.0

     total cpu time spent up to now is        6.6 secs

     total energy              =    -501.50407900 Ry
     estimated scf accuracy    <       0.00011911 Ry

     iteration # 14     ecut=    30.00 Ry     beta= 0.50
     Davidson diagonalization with overlap
     ethr =  4.65E-08,  avg # of iterations =  2.0

     total cpu time spent up to now is        6.7 secs

     total energy              =    -501.50408852 Ry
     estimated scf accuracy    <       0.00001907 Ry

     iteration # 15     ecut=    30.00 Ry     beta= 0.50
     Davidson diagonalization with overlap
     ethr =  7.45E-09,  avg # of iterations =  4.0

     total cpu time spent up to now is        6.9 secs

     total energy              =    -501.50408971 Ry
     estimated scf accuracy    <       0.00003516 Ry

     iteration # 16     ecut=    30.00 Ry     beta= 0.50
     Davidson diagonalization with overlap
     ethr =  7.45E-09,  avg # of iterations =  2.0

     total cpu time spent up to now is        6.9 secs

     total energy              =    -501.50409239 Ry
     estimated scf accuracy    <       0.00000231 Ry

     iteration # 17     ecut=    30.00 Ry     beta= 0.50
     Davidson diagonalization with overlap
     ethr =  9.02E-10,  avg # of iterations =  5.0

     total cpu time spent up to now is        7.1 secs

     total energy              =    -501.50409267 Ry
     estimated scf accuracy    <       0.00000138 Ry

     iteration # 18     ecut=    30.00 Ry     beta= 0.50
     Davidson diagonalization with overlap
     ethr =  5.38E-10,  avg # of iterations =  3.0

     total cpu time spent up to now is        7.2 secs

     total energy              =    -501.50409270 Ry
     estimated scf accuracy    <       0.00000216 Ry

     iteration # 19     ecut=    30.00 Ry     beta= 0.50
     Davidson diagonalization with overlap
     ethr =  5.38E-10,  avg # of iterations =  2.0

     total cpu time spent up to now is        7.3 secs

     End of self-consistent calculation

          k = 0.0000 0.0000 0.0000 ( 11444 PWs)   bands (ev):

    -5.3390  -4.3533  -4.2908  -4.2308  -4.1373  -4.0775  -3.9111  -3.3350
    -3.2834  -3.2286  -3.1828  -3.0701  -3.0459  -2.9303  -2.8745  -2.8314
    -2.7815  -2.5561  -2.4431  -2.2080  -2.1082  -2.0015  -1.8843  -1.7687
    -1.6340  -1.4309  -1.2827  -0.9394  -0.7823  -0.7050  -0.6068  -0.3546
    -0.3067  -0.2197  -0.1140  -0.0697  -0.0132   0.0454   0.1427   0.2242
     0.2572   0.3020   0.3574   0.3828   0.6448   0.7889   0.8388   0.8741
     1.0360   1.1040   1.1718   1.2422   1.3882   1.4174   1.5137   1.5617
     1.6425   1.7245   1.8053   1.8167   1.9920   2.1431   2.2696   2.3612
     2.4768   2.4889   2.5590   2.6670   2.7747   2.8234   2.8499   2.9605
     3.0014   3.1285   3.2192   3.2612   3.2715   3.4005   3.4725   3.5915
     3.6588   4.0549   4.2664   4.3527   4.4261   4.4877   4.5611   4.6228
     4.7066   4.7550   4.7844   4.9159   4.9457   5.0533   5.0955   5.1274
     5.2150   5.2184   5.2879   5.3342   5.3751   5.4906   5.5392   5.5562
     5.6534   5.7293   5.7713   5.7980   5.8254   5.8645   5.9235   6.0168
     6.0756   6.1035   6.1474   6.2783   6.3325   6.3660   6.4527   6.5133
     6.5562   6.6090   6.6904   6.7327   6.8299   6.8893   6.9013   6.9542
     7.0200   7.0513   7.1337   7.2604   7.2737   7.3062   7.3725   7.4488
     7.4809   7.5681   7.5992   7.6714   7.7432   7.7961   7.8922   7.9628
     7.9829   8.0434   8.0827   8.1744   8.2072   8.2457   8.3457   8.4302
     8.4887   8.5200

     the Fermi energy is     6.9998 ev

!    total energy              =    -501.50409261 Ry
     estimated scf accuracy    <       0.00000032 Ry
     smearing contrib. (-TS)   =      -0.15386444 Ry
     internal energy E=F+TS    =    -501.35022818 Ry

     The total energy is F=E-TS. E is the sum of the following terms:
     one-electron contribution =     189.32966541 Ry
     hartree contribution      =      22.50385368 Ry
     xc contribution           =    -150.29690452 Ry
     ewald contribution        =    -562.88684275 Ry

     convergence has been achieved in  19 iterations

     Forces acting on atoms (cartesian axes, Ry/au):

     atom    1 type  1   force =    -0.00157402   -0.00323228   -0.01027580
     atom    2 type  1   force =     0.01365843    0.02865498   -0.01455251
     atom    3 type  1   force =     0.00788410   -0.02251186    0.00451684
     atom    4 type  1   force =    -0.00578171    0.01689308    0.00357208
     atom    5 type  1   force =    -0.00632632   -0.00682855    0.00921004
     atom    6 type  1   force =    -0.01383543    0.00024147   -0.00262630
     atom    7 type  1   force =    -0.01063391   -0.02922334    0.00907396
     atom    8 type  1   force =    -0.00009231    0.00740884   -0.02072731
     atom    9 type  1   force =    -0.02343138    0.00227608    0.01543584
     atom   10 type  1   force =     0.02490249   -0.05556275    0.05016615
     atom   11 type  1   force =    -0.04638613   -0.01962343   -0.01257929
     atom   12 type  1   force =     0.00661960   -0.00119671    0.02085078
     atom   13 type  1   force =    -0.01841767   -0.00849037   -0.00959223
     atom   14 type  1   force =    -0.01023275    0.00646689    0.01271856
     atom   15 type  1   force =     0.01655417   -0.00892229   -0.01393133
     atom   16 type  1   force =     0.00719706   -0.03107380   -0.00251400
     atom   17 type  1   force =     0.01152438    0.02145087   -0.00202971
     atom   18 type  1   force =     0.00287298   -0.00342514    0.00350104
     atom   19 type  1   force =    -0.01781616   -0.01348975   -0.01062178
     atom   20 type  1   force =     0.03115860    0.02800190   -0.00759068
     atom   21 type  1   force =    -0.01654263    0.01092372    0.00694439
     atom   22 type  1   force =     0.00575244    0.00957487    0.01898455
     atom   23 type  1   force =    -0.00209570    0.02925939   -0.00775140
     atom   24 type  1   force =     0.00092622   -0.00234212   -0.00091554
     atom   25 type  1   force =     0.00700845   -0.01120636    0.04119520
     atom   26 type  1   force =     0.01432277   -0.01679092   -0.01005148
     atom   27 type  1   force =    -0.00693432   -0.00527564    0.00560132
     atom   28 type  1   force =     0.01859221   -0.03534412   -0.01675745
     atom   29 type  1   force =    -0.01633990   -0.01622035   -0.02513527
     atom   30 type  1   force =     0.01564738    0.02604313    0.00571473
     atom   31 type  1   force =    -0.00115911    0.00860372    0.00392047
     atom   32 type  1   force =    -0.01154450   -0.04492949    0.01540464
     atom   33 type  1   force =     0.01476464   -0.00748778    0.02063993
     atom   34 type  1   force =     0.03133556   -0.02744797   -0.02132440
     atom   35 type  1   force =     0.00089936   -0.04179471   -0.00031591
     atom   36 type  1   force =    -0.01099555    0.01611978    0.01213033
     atom   37 type  1   force =    -0.01628471    0.03499124   -0.04095016
     atom   38 type  1   force =     0.03731145   -0.04966365    0.06466680
     atom   39 type  1   force =     0.03385885    0.01366034   -0.01501156
     atom   40 type  1   force =    -0.03771946    0.02194572    0.01236653
     atom   41 type  1   force =    -0.01067269    0.00422084    0.06353955
     atom   42 type  1   force =     0.01386422    0.00896154   -0.01877211
     atom   43 type  1   force =     0.03504961    0.00304635    0.01902539
     atom   44 type  1   force =    -0.03293673   -0.01762779    0.00860559
     atom   45 type  1   force =     0.00393206    0.01135504   -0.01459431
     atom   46 type  1   force =    -0.03235779    0.04595737   -0.01069456
     atom   47 type  1   force =     0.00069469   -0.01388315   -0.00749411
     atom   48 type  1   force =     0.03473702    0.02322174   -0.01017841
     atom   49 type  1   force =     0.03902609    0.00062714   -0.01206561
     atom   50 type  1   force =    -0.00033439    0.00013384   -0.00902770
     atom   51 type  1   force =    -0.01120077   -0.04860846   -0.02265231
     atom   52 type  1   force =     0.02966794    0.04713572   -0.02068464
     atom   53 type  1   force =    -0.00449782    0.00802184   -0.01631731
     atom   54 type  1   force =    -0.02333450   -0.03233575    0.00961572
     atom   55 type  1   force =    -0.00616695   -0.02478970    0.00412712
     atom   56 type  1   force =    -0.03533447    0.02593861    0.02258519
     atom   57 type  1   force =    -0.02805348   -0.04958976   -0.06294017
     atom   58 type  1   force =     0.00540942    0.03726933   -0.00483405
     atom   59 type  1   force =     0.02099811    0.02188368    0.00140125
     atom   60 type  1   force =    -0.06185929    0.07977678   -0.01332627
     atom   61 type  1   force =     0.03215956    0.01625703    0.03200345
     atom   62 type  1   force =     0.00318417    0.02639740    0.00378499
     atom   63 type  1   force =    -0.00287364    0.02360030   -0.00973973
     atom   64 type  1   force =     0.00225218   -0.01740256   -0.02272702

     Total force =     0.319611     Total SCF correction =     0.001076


     Computing stress (Cartesian axis) and pressure

          total   stress  (Ry/bohr**3)                   (kbar)     P=      -42.74
  -0.00027494   0.00002649   0.00000966          -40.44        3.90        1.42
   0.00002649  -0.00031250  -0.00004839            3.90      -45.97       -7.12
   0.00000966  -0.00004839  -0.00028421            1.42       -7.12      -41.81

 
     init_run     :      1.10s CPU      4.96s WALL (       1 calls)
     electrons    :      2.04s CPU      2.21s WALL (       1 calls)
     forces       :      0.04s CPU      0.04s WALL (       1 calls)
     stress       :      0.15s CPU      0.16s WALL (       1 calls)

     Called by init_run:
     wfcinit      :      0.56s CPU      4.25s WALL (       1 calls)
                                        4.25s GPU  (       1 calls)
     potinit      :      0.05s CPU      0.15s WALL (       1 calls)
     hinit0       :      0.47s CPU      0.50s WALL (       1 calls)

     Called by electrons:
     c_bands      :      1.22s CPU      1.30s WALL (      20 calls)
     sum_band     :      0.40s CPU      0.45s WALL (      20 calls)
     v_of_rho     :      0.19s CPU      0.30s WALL (      20 calls)
     mix_rho      :      0.19s CPU      0.21s WALL (      20 calls)

     Called by c_bands:
     init_us_2    :      0.07s CPU      0.08s WALL (      41 calls)
     init_us_2:gp :      0.07s CPU      0.08s WALL (      41 calls)
     regterg      :      1.05s CPU      1.13s WALL (      20 calls)

     Called by *egterg:
     rdiaghg      :      0.43s CPU      1.20s WALL (      95 calls)
                                        1.18s GPU  (      95 calls)
     h_psi        :      0.99s CPU      3.96s WALL (      97 calls)
                                        3.96s GPU  (      97 calls)
     g_psi        :      0.00s CPU      0.00s WALL (      76 calls)
                                        0.00s GPU  (      76 calls)

     Called by h_psi:
     h_psi:calbec :      0.53s CPU      3.42s WALL (      97 calls)
                                        3.42s GPU  (      97 calls)
     vloc_psi     :      0.40s CPU      0.48s WALL (      97 calls)
                                        0.47s GPU  (      97 calls)
     add_vuspsi   :      0.04s CPU      0.06s WALL (      97 calls)
                                        0.06s GPU  (      97 calls)

     General routines
     calbec       :      0.54s CPU      3.42s WALL (     102 calls)
     fft          :      0.63s CPU      0.77s WALL (     167 calls)
                                        0.14s GPU  (     106 calls)
     ffts         :      0.05s CPU      0.06s WALL (      20 calls)
     fftw         :      0.48s CPU      0.64s WALL (    2112 calls)
                                        0.56s GPU  (    2112 calls)
 
     Parallel routines
 
     PWSCF        :      3.37s CPU      7.46s WALL

 
   This run was terminated on:  10:58:11  10May2023            

=------------------------------------------------------------------------------=
   JOB DONE.
=------------------------------------------------------------------------------=
