An instance of this daemon is already running

     Program PWSCF v.7.1 starts on 10May2023 at 11: 9:32 

     This program is part of the open-source Quantum ESPRESSO suite
     for quantum simulation of materials; please cite
         "P. Giannozzi et al., J. Phys.:Condens. Matter 21 395502 (2009);
         "P. Giannozzi et al., J. Phys.:Condens. Matter 29 465901 (2017);
         "P. Giannozzi et al., J. Chem. Phys. 152 154105 (2020);
          URL http://www.quantum-espresso.org", 
     in publications or presentations arising from this work. More details at
     http://www.quantum-espresso.org/quote

     Parallel version (MPI & OpenMP), running on       4 processor cores
     Number of MPI processes:                 4
     Threads/MPI process:                     1

     MPI processes distributed on     1 nodes
     753573 MiB available memory on the printing compute node when the environment starts
 
     Reading input from pw-si-96.in
Warning: card &CELL ignored
Warning: card / ignored

     Current dimensions of program PWSCF are:
     Max number of different atomic species (ntypx) = 10
     Max number of k-points (npk) =  40000
     Max angular momentum in pseudopotentials (lmaxx) =  4

     IMPORTANT: XC functional enforced from input :
     Exchange-correlation= PBE
                           (   1   4   3   4   0   0   0)
     Any further DFT definition will be discarded
     Please, verify this is what you really want


     gamma-point specific algorithms are used
 
     K-points division:     npool     =       2
     R & G space division:  proc/nbgrp/npool/nimage =       2
     Subspace diagonalization in iterative solution of the eigenvalue problem:
     a serial algorithm will be used

     Message from routine divide_et_impera:
     suboptimal parallelization: some nodes have no k-points
 
     Parallelization info
     --------------------
     sticks:   dense  smooth     PW     G-vecs:    dense   smooth      PW
     Min        1935    1935    516                90689    90689   12416
     Max        1942    1942    517                90690    90690   12421
     Sum        3877    3877   1033               181379   181379   24837
 
     Using Slab Decomposition
 


     bravais-lattice index     =            0
     lattice parameter (alat)  =      20.1469  a.u.
     unit-cell volume          =    8177.5965 (a.u.)^3
     number of atoms/cell      =           64
     number of atomic types    =            1
     number of electrons       =       256.00
     number of Kohn-Sham states=          154
     kinetic-energy cutoff     =      30.0000  Ry
     charge density cutoff     =     120.0000  Ry
     scf convergence threshold =      1.0E-06
     mixing beta               =       0.5000
     number of iterations used =            8  plain     mixing
     Exchange-correlation= PBE
                           (   1   4   3   4   0   0   0)

     GPU acceleration is ACTIVE.
     GPU-aware MPI enabled

     Message from routine print_cuda_info:
     High GPU oversubscription detected. Are you sure this is what you want?

     celldm(1)=  20.146915  celldm(2)=   0.000000  celldm(3)=   0.000000
     celldm(4)=   0.000000  celldm(5)=   0.000000  celldm(6)=   0.000000

     crystal axes: (cart. coord. in units of alat)
               a(1) = (   1.000000   0.000000   0.000000 )  
               a(2) = (   0.000000   1.000000   0.000000 )  
               a(3) = (   0.000000   0.000000   1.000000 )  

     reciprocal axes: (cart. coord. in units 2 pi/alat)
               b(1) = (  1.000000  0.000000  0.000000 )  
               b(2) = (  0.000000  1.000000  0.000000 )  
               b(3) = (  0.000000  0.000000  1.000000 )  


     PseudoPot. # 1 for Si read from file:
     /home/ppiaggi/pseudos/Si_ONCV_PBE_sr.upf
     MD5 check sum: 8553c464762ac42b85b1eed164b4d029
     Pseudo is Norm-conserving, Zval =  4.0
     Generated using ONCVPSP code by D. R. Hamann
     Using radial grid of 1510 points,  4 beta functions with: 
                l(1) =   0
                l(2) =   0
                l(3) =   1
                l(4) =   1

     atomic species   valence    mass     pseudopotential
        Si             4.00    28.08500     Si( 1.00)

     No symmetry found



   Cartesian axes

     site n.     atom                  positions (alat units)
         1           Si  tau(   1) = (   0.6008420   0.3682010   0.9987400  )
         2           Si  tau(   2) = (   0.8143010   0.7523140   0.3237760  )
         3           Si  tau(   3) = (   0.5996350   0.1913280   0.1821520  )
         4           Si  tau(   4) = (   0.4473470   0.2190020   0.7034350  )
         5           Si  tau(   5) = (   0.5237060   0.9433520   0.6723680  )
         6           Si  tau(   6) = (   0.8797950   0.6057570   0.1683020  )
         7           Si  tau(   7) = (   0.1637200   0.7781510   0.2240280  )
         8           Si  tau(   8) = (   0.0589107   0.9535030   0.2813420  )
         9           Si  tau(   9) = (   0.5947500   0.6482550   0.3476410  )
        10           Si  tau(  10) = (   0.6706800   0.3734780   0.5273370  )
        11           Si  tau(  11) = (   0.6439290   0.0699810   0.9454590  )
        12           Si  tau(  12) = (   0.1612160   0.1185750   0.8254630  )
        13           Si  tau(  13) = (   0.2409870   0.2063000   0.3875310  )
        14           Si  tau(  14) = (   0.4470000   0.6384080   0.8437830  )
        15           Si  tau(  15) = (   0.6169870   0.7171490   0.6097710  )
        16           Si  tau(  16) = (   0.1910030   0.1100100   0.1767450  )
        17           Si  tau(  17) = (   0.3523650   0.4250510   0.3017990  )
        18           Si  tau(  18) = (   0.9124230   0.0074760   0.1090910  )
        19           Si  tau(  19) = (   0.1340080   0.7683140   0.9791010  )
        20           Si  tau(  20) = (   0.8473070   0.6944300   0.6415880  )
        21           Si  tau(  21) = (   0.3565840   0.7971420   0.0995390  )
        22           Si  tau(  22) = (   0.5438070   0.8581260   0.2666750  )
        23           Si  tau(  23) = (   0.4173760   0.9452420   0.4449220  )
        24           Si  tau(  24) = (   0.5939840   0.5458750   0.1391310  )
        25           Si  tau(  25) = (   0.2342030   0.7034920   0.7731440  )
        26           Si  tau(  26) = (   0.0124264   0.4614760   0.4112100  )
        27           Si  tau(  27) = (   0.9845670   0.2492400   0.2679020  )
        28           Si  tau(  28) = (   0.8759400   0.2721850   0.8171980  )
        29           Si  tau(  29) = (   0.3981590   0.0255058   0.1238660  )
        30           Si  tau(  30) = (   0.1522720   0.0083622   0.5156130  )
        31           Si  tau(  31) = (   0.7783050   0.0265321   0.7645040  )
        32           Si  tau(  32) = (   0.1296650   0.5545570   0.2319200  )
        33           Si  tau(  33) = (   0.6666240   0.5555190   0.7992580  )
        34           Si  tau(  34) = (   0.3999100   0.6080990   0.4487300  )
        35           Si  tau(  35) = (   0.1471200   0.4827320   0.7935130  )
        36           Si  tau(  36) = (   0.6426480   0.2991580   0.7739210  )
        37           Si  tau(  37) = (   0.3791580   0.3072120   0.0644511  )
        38           Si  tau(  38) = (   0.9453060   0.6173920   0.9741530  )
        39           Si  tau(  39) = (   0.6629860   0.7356200   0.9899970  )
        40           Si  tau(  40) = (   0.4579060   0.1723530   0.4608660  )
        41           Si  tau(  41) = (   0.0972830   0.6481150   0.5621960  )
        42           Si  tau(  42) = (   0.1346370   0.4375510   0.0108738  )
        43           Si  tau(  43) = (   0.8396270   0.2056440   0.0461807  )
        44           Si  tau(  44) = (   0.8026530   0.3902820   0.2144500  )
        45           Si  tau(  45) = (   0.2508630   0.7660750   0.4419100  )
        46           Si  tau(  46) = (   0.0230921   0.9395880   0.9035140  )
        47           Si  tau(  47) = (   0.4035140   0.5759580   0.0343235  )
        48           Si  tau(  48) = (   0.6493790   0.0570534   0.3621240  )
        49           Si  tau(  49) = (   0.8386720   0.2320410   0.4683670  )
        50           Si  tau(  50) = (   0.9796350   0.1444280   0.6124520  )
        51           Si  tau(  51) = (   0.7285850   0.9097110   0.1681010  )
        52           Si  tau(  52) = (   0.5864620   0.3583890   0.3204550  )
        53           Si  tau(  53) = (   0.8463210   0.8030560   0.8554580  )
        54           Si  tau(  54) = (   0.2825930   0.9403570   0.6915070  )
        55           Si  tau(  55) = (   0.3937520   0.0951888   0.8944930  )
        56           Si  tau(  56) = (   0.5140760   0.8678580   0.9033320  )
        57           Si  tau(  57) = (   0.1259590   0.3141960   0.5238900  )
        58           Si  tau(  58) = (   0.0582353   0.2521680   0.9999710  )
        59           Si  tau(  59) = (   0.2992670   0.3497080   0.6787520  )
        60           Si  tau(  60) = (   0.9439420   0.8491670   0.4912640  )
        61           Si  tau(  61) = (   0.9125940   0.4994950   0.7781130  )
        62           Si  tau(  62) = (   0.8118920   0.5407410   0.4596400  )
        63           Si  tau(  63) = (   0.4746490   0.4952510   0.6344840  )
        64           Si  tau(  64) = (   0.7546880   0.9720400   0.5520820  )

     number of k points=     1  Fermi-Dirac smearing, width (Ry)=  0.0100
                       cart. coord. in units 2pi/alat
        k(    1) = (   0.0000000   0.0000000   0.0000000), wk =   2.0000000

     Dense  grid:    90690 G-vectors     FFT dimensions: (  72,  72,  72)

     Estimated max dynamical RAM per process >     145.67 MB

     Estimated total dynamical RAM >     560.53 MB

     Initial potential from superposition of free atoms

     starting charge     255.9608, renormalised to     256.0000
     Starting wfcs are  256 randomized atomic wfcs

     total cpu time spent up to now is        5.0 secs

     Self-consistent Calculation

     iteration #  1     ecut=    30.00 Ry     beta= 0.50
     Davidson diagonalization with overlap
     ethr =  1.00E-02,  avg # of iterations =  3.0

     Threshold (ethr) on eigenvalues was too large:
     Diagonalizing with lowered threshold

     Davidson diagonalization with overlap
     ethr =  3.99E-04,  avg # of iterations =  4.0

     total cpu time spent up to now is        5.3 secs

     total energy              =    -501.35256332 Ry
     estimated scf accuracy    <       1.22454807 Ry

     iteration #  2     ecut=    30.00 Ry     beta= 0.50
     Davidson diagonalization with overlap
     ethr =  4.78E-04,  avg # of iterations =  7.0

     total cpu time spent up to now is        5.4 secs

     total energy              =    -500.92210452 Ry
     estimated scf accuracy    <       4.72601777 Ry

     iteration #  3     ecut=    30.00 Ry     beta= 0.50
     Davidson diagonalization with overlap
     ethr =  4.78E-04,  avg # of iterations =  4.0

     total cpu time spent up to now is        5.5 secs

     total energy              =    -501.40789935 Ry
     estimated scf accuracy    <       1.97112059 Ry

     iteration #  4     ecut=    30.00 Ry     beta= 0.50
     Davidson diagonalization with overlap
     ethr =  4.78E-04,  avg # of iterations =  2.0

     total cpu time spent up to now is        5.6 secs

     total energy              =    -501.52798827 Ry
     estimated scf accuracy    <       0.50371371 Ry

     iteration #  5     ecut=    30.00 Ry     beta= 0.50
     Davidson diagonalization with overlap
     ethr =  1.97E-04,  avg # of iterations =  2.0

     total cpu time spent up to now is        5.7 secs

     total energy              =    -501.55367769 Ry
     estimated scf accuracy    <       0.45355287 Ry

     iteration #  6     ecut=    30.00 Ry     beta= 0.50
     Davidson diagonalization with overlap
     ethr =  1.77E-04,  avg # of iterations =  2.0

     total cpu time spent up to now is        5.8 secs

     total energy              =    -501.59393741 Ry
     estimated scf accuracy    <       0.08810194 Ry

     iteration #  7     ecut=    30.00 Ry     beta= 0.50
     Davidson diagonalization with overlap
     ethr =  3.44E-05,  avg # of iterations =  2.0

     total cpu time spent up to now is        5.9 secs

     total energy              =    -501.60237754 Ry
     estimated scf accuracy    <       0.02885029 Ry

     iteration #  8     ecut=    30.00 Ry     beta= 0.50
     Davidson diagonalization with overlap
     ethr =  1.13E-05,  avg # of iterations =  3.0

     total cpu time spent up to now is        6.0 secs

     total energy              =    -501.60526694 Ry
     estimated scf accuracy    <       0.02060474 Ry

     iteration #  9     ecut=    30.00 Ry     beta= 0.50
     Davidson diagonalization with overlap
     ethr =  8.05E-06,  avg # of iterations =  3.0

     total cpu time spent up to now is        6.1 secs

     total energy              =    -501.60691756 Ry
     estimated scf accuracy    <       0.00124118 Ry

     iteration # 10     ecut=    30.00 Ry     beta= 0.50
     Davidson diagonalization with overlap
     ethr =  4.85E-07,  avg # of iterations = 11.0

     total cpu time spent up to now is        6.3 secs

     total energy              =    -501.60700961 Ry
     estimated scf accuracy    <       0.00247759 Ry

     iteration # 11     ecut=    30.00 Ry     beta= 0.50
     Davidson diagonalization with overlap
     ethr =  4.85E-07,  avg # of iterations =  2.0

     total cpu time spent up to now is        6.4 secs

     total energy              =    -501.60722065 Ry
     estimated scf accuracy    <       0.00032793 Ry

     iteration # 12     ecut=    30.00 Ry     beta= 0.50
     Davidson diagonalization with overlap
     ethr =  1.28E-07,  avg # of iterations =  3.0

     total cpu time spent up to now is        6.5 secs

     total energy              =    -501.60725498 Ry
     estimated scf accuracy    <       0.00016281 Ry

     iteration # 13     ecut=    30.00 Ry     beta= 0.50
     Davidson diagonalization with overlap
     ethr =  6.36E-08,  avg # of iterations =  2.0

     total cpu time spent up to now is        6.6 secs

     total energy              =    -501.60726792 Ry
     estimated scf accuracy    <       0.00008966 Ry

     iteration # 14     ecut=    30.00 Ry     beta= 0.50
     Davidson diagonalization with overlap
     ethr =  3.50E-08,  avg # of iterations =  2.0

     total cpu time spent up to now is        6.7 secs

     total energy              =    -501.60727443 Ry
     estimated scf accuracy    <       0.00002881 Ry

     iteration # 15     ecut=    30.00 Ry     beta= 0.50
     Davidson diagonalization with overlap
     ethr =  1.13E-08,  avg # of iterations =  2.0

     total cpu time spent up to now is        6.8 secs

     total energy              =    -501.60727637 Ry
     estimated scf accuracy    <       0.00002236 Ry

     iteration # 16     ecut=    30.00 Ry     beta= 0.50
     Davidson diagonalization with overlap
     ethr =  8.74E-09,  avg # of iterations =  2.0

     total cpu time spent up to now is        6.9 secs

     total energy              =    -501.60727814 Ry
     estimated scf accuracy    <       0.00000549 Ry

     iteration # 17     ecut=    30.00 Ry     beta= 0.50
     Davidson diagonalization with overlap
     ethr =  2.14E-09,  avg # of iterations =  2.0

     total cpu time spent up to now is        7.0 secs

     total energy              =    -501.60727859 Ry
     estimated scf accuracy    <       0.00000159 Ry

     iteration # 18     ecut=    30.00 Ry     beta= 0.50
     Davidson diagonalization with overlap
     ethr =  6.19E-10,  avg # of iterations =  3.0

     total cpu time spent up to now is        7.1 secs

     total energy              =    -501.60727868 Ry
     estimated scf accuracy    <       0.00000452 Ry

     iteration # 19     ecut=    30.00 Ry     beta= 0.50
     Davidson diagonalization with overlap
     ethr =  6.19E-10,  avg # of iterations =  2.0

     total cpu time spent up to now is        7.2 secs

     End of self-consistent calculation

          k = 0.0000 0.0000 0.0000 ( 11372 PWs)   bands (ev):

    -5.3788  -4.3551  -4.2860  -4.2268  -4.2030  -4.1888  -3.9827  -3.4866
    -3.3257  -3.2475  -3.2125  -3.0668  -2.9837  -2.9352  -2.8989  -2.7721
    -2.7276  -2.6821  -2.5713  -2.1915  -2.0500  -1.9236  -1.8727  -1.7477
    -1.6088  -1.3334  -1.2963  -1.1241  -0.9156  -0.7439  -0.6521  -0.5424
    -0.3799  -0.2939  -0.2097  -0.0813  -0.0327   0.0697   0.1671   0.2383
     0.3074   0.3524   0.4451   0.4660   0.6852   0.7209   0.8452   0.9440
     0.9797   1.0280   1.1947   1.2696   1.2990   1.4499   1.5813   1.6608
     1.8313   1.8937   1.9726   2.0655   2.1251   2.2286   2.2484   2.3762
     2.4707   2.5354   2.6606   2.7776   2.8219   2.8965   2.9046   2.9853
     3.0361   3.1302   3.1935   3.2150   3.3216   3.3770   3.4572   3.4621
     3.7910   3.9756   4.1741   4.3110   4.3894   4.5234   4.5900   4.6086
     4.6864   4.7223   4.8073   4.8794   4.9310   4.9481   5.0623   5.1111
     5.2295   5.2415   5.3401   5.3867   5.4131   5.4496   5.5194   5.5422
     5.6085   5.6902   5.7509   5.8023   5.8324   5.8879   5.9753   6.0197
     6.1116   6.2056   6.2467   6.3213   6.3803   6.4339   6.4812   6.5245
     6.5875   6.6656   6.6944   6.7857   6.8406   6.9459   6.9729   7.0126
     7.0424   7.0989   7.1632   7.2281   7.3616   7.3875   7.4516   7.4917
     7.6223   7.6637   7.7332   7.7612   7.8495   7.8812   7.9637   8.0237
     8.0865   8.1999   8.2369   8.2746   8.3505   8.4289   8.4924   8.5757
     8.6120   8.7412

     the Fermi energy is     7.0437 ev

!    total energy              =    -501.60727883 Ry
     estimated scf accuracy    <       0.00000019 Ry
     smearing contrib. (-TS)   =      -0.14995448 Ry
     internal energy E=F+TS    =    -501.45732435 Ry

     The total energy is F=E-TS. E is the sum of the following terms:
     one-electron contribution =     188.52295211 Ry
     hartree contribution      =      23.38027028 Ry
     xc contribution           =    -150.91002962 Ry
     ewald contribution        =    -562.45051713 Ry

     convergence has been achieved in  19 iterations

     Forces acting on atoms (cartesian axes, Ry/au):

     atom    1 type  1   force =    -0.02962757   -0.01296189   -0.00155228
     atom    2 type  1   force =    -0.01994606   -0.00258309   -0.00384537
     atom    3 type  1   force =    -0.00173256   -0.03208536   -0.04551363
     atom    4 type  1   force =     0.07802582   -0.09818706    0.00283561
     atom    5 type  1   force =     0.00496852   -0.03731971   -0.00573806
     atom    6 type  1   force =    -0.00489411   -0.03243402    0.06015715
     atom    7 type  1   force =     0.04183389   -0.04554779   -0.00660911
     atom    8 type  1   force =    -0.03336054    0.03965788    0.00353516
     atom    9 type  1   force =     0.02363624    0.03150886    0.00848337
     atom   10 type  1   force =    -0.00980402    0.02006633    0.01328770
     atom   11 type  1   force =    -0.00039542    0.01226665    0.01945060
     atom   12 type  1   force =    -0.00109561   -0.01331105    0.00136068
     atom   13 type  1   force =     0.04662720   -0.03569671   -0.06193684
     atom   14 type  1   force =     0.00279587    0.04208037   -0.08163593
     atom   15 type  1   force =     0.00830640    0.00939478   -0.00172007
     atom   16 type  1   force =     0.00114649    0.02603218    0.03709338
     atom   17 type  1   force =    -0.00042635   -0.00634370   -0.00340153
     atom   18 type  1   force =     0.03742523   -0.00521190   -0.01077770
     atom   19 type  1   force =    -0.00199548   -0.03074793   -0.01763900
     atom   20 type  1   force =    -0.00282804   -0.01531587    0.01149816
     atom   21 type  1   force =     0.00169736   -0.00140864    0.00547615
     atom   22 type  1   force =    -0.05604219   -0.01115932    0.00562004
     atom   23 type  1   force =    -0.00306704   -0.00468524    0.00919877
     atom   24 type  1   force =     0.04049598    0.01871941    0.00942526
     atom   25 type  1   force =     0.00266053    0.00514797    0.00191135
     atom   26 type  1   force =     0.01090770    0.02155330   -0.03376590
     atom   27 type  1   force =    -0.01884287    0.01728888    0.02021602
     atom   28 type  1   force =    -0.01194834   -0.00923885   -0.00285851
     atom   29 type  1   force =    -0.00176071    0.00642296   -0.00994393
     atom   30 type  1   force =    -0.01312853    0.00154749   -0.01565448
     atom   31 type  1   force =     0.00521216   -0.00722306    0.01829438
     atom   32 type  1   force =    -0.02451515   -0.02931764   -0.01540796
     atom   33 type  1   force =    -0.01748844    0.00549663   -0.01491559
     atom   34 type  1   force =     0.03195778   -0.04447330   -0.02146154
     atom   35 type  1   force =     0.01484223    0.00974237   -0.00981874
     atom   36 type  1   force =     0.02561538    0.02259414    0.01061633
     atom   37 type  1   force =     0.00523506    0.03345087   -0.00009634
     atom   38 type  1   force =     0.05912507    0.01285200   -0.06088092
     atom   39 type  1   force =     0.03937223   -0.01533170    0.02520003
     atom   40 type  1   force =     0.00385998   -0.01443307    0.01602893
     atom   41 type  1   force =    -0.02425657    0.01947802    0.02574222
     atom   42 type  1   force =     0.05562882    0.11122456    0.03444068
     atom   43 type  1   force =    -0.02885464    0.01676275    0.00685738
     atom   44 type  1   force =    -0.00120215    0.00116949    0.00425515
     atom   45 type  1   force =     0.00191098    0.04425917   -0.01781033
     atom   46 type  1   force =    -0.02261674    0.02708723    0.02893088
     atom   47 type  1   force =    -0.04165976   -0.03313178    0.06277983
     atom   48 type  1   force =     0.00039735    0.01474290    0.01543227
     atom   49 type  1   force =    -0.01536362   -0.01177599   -0.04236432
     atom   50 type  1   force =     0.02214818    0.00592977    0.04558110
     atom   51 type  1   force =     0.00116877   -0.03702812   -0.01916492
     atom   52 type  1   force =    -0.02047416    0.00968148    0.00832412
     atom   53 type  1   force =     0.00133987    0.01374378   -0.02617111
     atom   54 type  1   force =    -0.00155043   -0.01115261    0.00687187
     atom   55 type  1   force =    -0.01079694   -0.00188855    0.00485242
     atom   56 type  1   force =    -0.03117532    0.01261900   -0.02962157
     atom   57 type  1   force =     0.00051267   -0.00081432    0.05276124
     atom   58 type  1   force =    -0.01573674   -0.11027130    0.00158221
     atom   59 type  1   force =    -0.11313783    0.08776058   -0.01988024
     atom   60 type  1   force =     0.00568928   -0.00635252   -0.01624484
     atom   61 type  1   force =     0.01578935    0.00264477    0.02494691
     atom   62 type  1   force =    -0.03432142    0.01903424    0.00573696
     atom   63 type  1   force =     0.01618668    0.00132976   -0.00374309
     atom   64 type  1   force =     0.00752625   -0.00585845   -0.00861047

     Total force =     0.407753     Total SCF correction =     0.000846


     Computing stress (Cartesian axis) and pressure

          total   stress  (Ry/bohr**3)                   (kbar)     P=      -30.65
  -0.00018243   0.00001294  -0.00002078          -26.84        1.90       -3.06
   0.00001294  -0.00016236  -0.00007238            1.90      -23.88      -10.65
  -0.00002078  -0.00007238  -0.00028036           -3.06      -10.65      -41.24

 
     init_run     :      1.10s CPU      4.94s WALL (       1 calls)
     electrons    :      2.00s CPU      2.18s WALL (       1 calls)
     forces       :      0.04s CPU      0.04s WALL (       1 calls)
     stress       :      0.15s CPU      0.16s WALL (       1 calls)

     Called by init_run:
     wfcinit      :      0.56s CPU      4.22s WALL (       1 calls)
                                        4.22s GPU  (       1 calls)
     potinit      :      0.05s CPU      0.15s WALL (       1 calls)
     hinit0       :      0.47s CPU      0.50s WALL (       1 calls)

     Called by electrons:
     c_bands      :      1.18s CPU      1.26s WALL (      20 calls)
     sum_band     :      0.41s CPU      0.45s WALL (      20 calls)
     v_of_rho     :      0.19s CPU      0.30s WALL (      20 calls)
     mix_rho      :      0.19s CPU      0.21s WALL (      20 calls)

     Called by c_bands:
     init_us_2    :      0.07s CPU      0.08s WALL (      41 calls)
     init_us_2:gp :      0.07s CPU      0.08s WALL (      41 calls)
     regterg      :      1.00s CPU      1.07s WALL (      20 calls)

     Called by *egterg:
     rdiaghg      :      0.41s CPU      1.17s WALL (      82 calls)
                                        1.15s GPU  (      82 calls)
     h_psi        :      0.97s CPU      3.92s WALL (      84 calls)
                                        3.91s GPU  (      84 calls)
     g_psi        :      0.00s CPU      0.00s WALL (      63 calls)
                                        0.00s GPU  (      63 calls)

     Called by h_psi:
     h_psi:calbec :      0.52s CPU      3.39s WALL (      84 calls)
                                        3.39s GPU  (      84 calls)
     vloc_psi     :      0.40s CPU      0.47s WALL (      84 calls)
                                        0.47s GPU  (      84 calls)
     add_vuspsi   :      0.03s CPU      0.05s WALL (      84 calls)
                                        0.05s GPU  (      84 calls)

     General routines
     calbec       :      0.53s CPU      3.39s WALL (      89 calls)
     fft          :      0.63s CPU      0.77s WALL (     167 calls)
                                        0.14s GPU  (     106 calls)
     ffts         :      0.05s CPU      0.05s WALL (      20 calls)
     fftw         :      0.49s CPU      0.64s WALL (    2092 calls)
                                        0.55s GPU  (    2092 calls)
 
     Parallel routines
 
     PWSCF        :      3.34s CPU      7.40s WALL

 
   This run was terminated on:  11: 9:40  10May2023            

=------------------------------------------------------------------------------=
   JOB DONE.
=------------------------------------------------------------------------------=
