An instance of this daemon is already running
An instance of this daemon is already running

     Program PWSCF v.7.1 starts on 10May2023 at 10:58:13 

     This program is part of the open-source Quantum ESPRESSO suite
     for quantum simulation of materials; please cite
         "P. Giannozzi et al., J. Phys.:Condens. Matter 21 395502 (2009);
         "P. Giannozzi et al., J. Phys.:Condens. Matter 29 465901 (2017);
         "P. Giannozzi et al., J. Chem. Phys. 152 154105 (2020);
          URL http://www.quantum-espresso.org", 
     in publications or presentations arising from this work. More details at
     http://www.quantum-espresso.org/quote

     Parallel version (MPI & OpenMP), running on       4 processor cores
     Number of MPI processes:                 4
     Threads/MPI process:                     1

     MPI processes distributed on     1 nodes
     753567 MiB available memory on the printing compute node when the environment starts
 
     Reading input from pw-si-26.in
Warning: card &CELL ignored
Warning: card / ignored

     Current dimensions of program PWSCF are:
     Max number of different atomic species (ntypx) = 10
     Max number of k-points (npk) =  40000
     Max angular momentum in pseudopotentials (lmaxx) =  4

     IMPORTANT: XC functional enforced from input :
     Exchange-correlation= PBE
                           (   1   4   3   4   0   0   0)
     Any further DFT definition will be discarded
     Please, verify this is what you really want


     gamma-point specific algorithms are used
 
     K-points division:     npool     =       2
     R & G space division:  proc/nbgrp/npool/nimage =       2
     Subspace diagonalization in iterative solution of the eigenvalue problem:
     a serial algorithm will be used

     Message from routine divide_et_impera:
     suboptimal parallelization: some nodes have no k-points
 
     Parallelization info
     --------------------
     sticks:   dense  smooth     PW     G-vecs:    dense   smooth      PW
     Min        1945    1945    519                91431    91431   12442
     Max        1948    1948    522                91436    91436   12443
     Sum        3893    3893   1041               182867   182867   24885
 
     Using Slab Decomposition
 


     bravais-lattice index     =            0
     lattice parameter (alat)  =      20.2029  a.u.
     unit-cell volume          =    8246.0109 (a.u.)^3
     number of atoms/cell      =           64
     number of atomic types    =            1
     number of electrons       =       256.00
     number of Kohn-Sham states=          154
     kinetic-energy cutoff     =      30.0000  Ry
     charge density cutoff     =     120.0000  Ry
     scf convergence threshold =      1.0E-06
     mixing beta               =       0.5000
     number of iterations used =            8  plain     mixing
     Exchange-correlation= PBE
                           (   1   4   3   4   0   0   0)

     GPU acceleration is ACTIVE.
     GPU-aware MPI enabled

     Message from routine print_cuda_info:
     High GPU oversubscription detected. Are you sure this is what you want?

     celldm(1)=  20.202943  celldm(2)=   0.000000  celldm(3)=   0.000000
     celldm(4)=   0.000000  celldm(5)=   0.000000  celldm(6)=   0.000000

     crystal axes: (cart. coord. in units of alat)
               a(1) = (   1.000000   0.000000   0.000000 )  
               a(2) = (   0.000000   1.000000   0.000000 )  
               a(3) = (   0.000000   0.000000   1.000000 )  

     reciprocal axes: (cart. coord. in units 2 pi/alat)
               b(1) = (  1.000000  0.000000  0.000000 )  
               b(2) = (  0.000000  1.000000  0.000000 )  
               b(3) = (  0.000000  0.000000  1.000000 )  


     PseudoPot. # 1 for Si read from file:
     /home/ppiaggi/pseudos/Si_ONCV_PBE_sr.upf
     MD5 check sum: 8553c464762ac42b85b1eed164b4d029
     Pseudo is Norm-conserving, Zval =  4.0
     Generated using ONCVPSP code by D. R. Hamann
     Using radial grid of 1510 points,  4 beta functions with: 
                l(1) =   0
                l(2) =   0
                l(3) =   1
                l(4) =   1

     atomic species   valence    mass     pseudopotential
        Si             4.00    28.08500     Si( 1.00)

     No symmetry found



   Cartesian axes

     site n.     atom                  positions (alat units)
         1           Si  tau(   1) = (   0.9834900   0.4800840   0.1435120  )
         2           Si  tau(   2) = (   0.1903870   0.3157100   0.6310250  )
         3           Si  tau(   3) = (   0.5294960   0.8033910   0.5565270  )
         4           Si  tau(   4) = (   0.4043960   0.4837860   0.1280750  )
         5           Si  tau(   5) = (   0.3682970   0.9699050   0.7285120  )
         6           Si  tau(   6) = (   0.7178630   0.8969040   0.8826960  )
         7           Si  tau(   7) = (   0.6610110   0.1984670   0.1135860  )
         8           Si  tau(   8) = (   0.0813292   0.6119030   0.7725560  )
         9           Si  tau(   9) = (   0.1968470   0.0342139   0.0369553  )
        10           Si  tau(  10) = (   0.2673600   0.6477940   0.0089329  )
        11           Si  tau(  11) = (   0.9212530   0.7433290   0.4077460  )
        12           Si  tau(  12) = (   0.9956910   0.8291050   0.8200730  )
        13           Si  tau(  13) = (   0.3129520   0.1095260   0.5336180  )
        14           Si  tau(  14) = (   0.1419650   0.6904730   0.1906670  )
        15           Si  tau(  15) = (   0.8507510   0.7506140   0.0093363  )
        16           Si  tau(  16) = (   0.6143730   0.3905570   0.2712500  )
        17           Si  tau(  17) = (   0.7501750   0.4725610   0.8226950  )
        18           Si  tau(  18) = (   0.0347131   0.0597494   0.8742410  )
        19           Si  tau(  19) = (   0.1824490   0.4591970   0.8853410  )
        20           Si  tau(  20) = (   0.9225160   0.5534450   0.9320150  )
        21           Si  tau(  21) = (   0.7979190   0.2850300   0.7415500  )
        22           Si  tau(  22) = (   0.0664976   0.3044590   0.0371392  )
        23           Si  tau(  23) = (   0.2780460   0.6969280   0.4216990  )
        24           Si  tau(  24) = (   0.7441740   0.8905480   0.2786570  )
        25           Si  tau(  25) = (   0.8712070   0.3045190   0.2954910  )
        26           Si  tau(  26) = (   0.3892080   0.9314290   0.4173340  )
        27           Si  tau(  27) = (   0.0847487   0.2687810   0.3788030  )
        28           Si  tau(  28) = (   0.1402280   0.4725430   0.4771360  )
        29           Si  tau(  29) = (   0.7913030   0.0778233   0.4682150  )
        30           Si  tau(  30) = (   0.6499680   0.6676220   0.7531100  )
        31           Si  tau(  31) = (   0.6764710   0.9484420   0.6257590  )
        32           Si  tau(  32) = (   0.4915720   0.2709920   0.9062470  )
        33           Si  tau(  33) = (   0.8580870   0.7847440   0.6487330  )
        34           Si  tau(  34) = (   0.0020235   0.2822590   0.8109340  )
        35           Si  tau(  35) = (   0.1078920   0.8541440   0.4748610  )
        36           Si  tau(  36) = (   0.5526640   0.0314257   0.2642940  )
        37           Si  tau(  37) = (   0.3979170   0.0740809   0.9153050  )
        38           Si  tau(  38) = (   0.2466370   0.7681700   0.6792850  )
        39           Si  tau(  39) = (   0.5503880   0.5146670   0.5070950  )
        40           Si  tau(  40) = (   0.3793530   0.4125070   0.7686690  )
        41           Si  tau(  41) = (   0.6458720   0.7176910   0.4157310  )
        42           Si  tau(  42) = (   0.7904710   0.1041300   0.9072380  )
        43           Si  tau(  43) = (   0.6235230   0.4662330   0.0117314  )
        44           Si  tau(  44) = (   0.5380060   0.9522150   0.0359652  )
        45           Si  tau(  45) = (   0.6004140   0.1295370   0.7163590  )
        46           Si  tau(  46) = (   0.9671560   0.1904660   0.5566430  )
        47           Si  tau(  47) = (   0.7877680   0.5675420   0.2572470  )
        48           Si  tau(  48) = (   0.4167610   0.6180650   0.6731620  )
        49           Si  tau(  49) = (   0.3420900   0.2046260   0.2976830  )
        50           Si  tau(  50) = (   0.6525730   0.7062340   0.0968437  )
        51           Si  tau(  51) = (   0.5998360   0.2182980   0.4271190  )
        52           Si  tau(  52) = (   0.1625130   0.0208839   0.2999350  )
        53           Si  tau(  53) = (   0.7821190   0.4249780   0.5425410  )
        54           Si  tau(  54) = (   0.4522290   0.6817830   0.2677900  )
        55           Si  tau(  55) = (   0.2894380   0.2621400   0.0915370  )
        56           Si  tau(  56) = (   0.4734310   0.2603290   0.6060210  )
        57           Si  tau(  57) = (   0.9321560   0.9784330   0.2521960  )
        58           Si  tau(  58) = (   0.1114830   0.0138551   0.6497380  )
        59           Si  tau(  59) = (   0.4562260   0.7293420   0.9218530  )
        60           Si  tau(  60) = (   0.9117980   0.1515390   0.1399280  )
        61           Si  tau(  61) = (   0.9536730   0.5626280   0.5663120  )
        62           Si  tau(  62) = (   0.0403630   0.8479840   0.0961104  )
        63           Si  tau(  63) = (   0.3359250   0.8686940   0.1694760  )
        64           Si  tau(  64) = (   0.3627840   0.4394600   0.3990570  )

     number of k points=     1  Fermi-Dirac smearing, width (Ry)=  0.0100
                       cart. coord. in units 2pi/alat
        k(    1) = (   0.0000000   0.0000000   0.0000000), wk =   2.0000000

     Dense  grid:    91434 G-vectors     FFT dimensions: (  72,  72,  72)

     Estimated max dynamical RAM per process >     146.74 MB

     Estimated total dynamical RAM >     564.64 MB

     Initial potential from superposition of free atoms

     starting charge     255.9608, renormalised to     256.0000
     Starting wfcs are  256 randomized atomic wfcs

     total cpu time spent up to now is        5.0 secs

     Self-consistent Calculation

     iteration #  1     ecut=    30.00 Ry     beta= 0.50
     Davidson diagonalization with overlap
     ethr =  1.00E-02,  avg # of iterations =  3.0

     Threshold (ethr) on eigenvalues was too large:
     Diagonalizing with lowered threshold

     Davidson diagonalization with overlap
     ethr =  3.94E-04,  avg # of iterations =  4.0

     total cpu time spent up to now is        5.3 secs

     total energy              =    -501.32872545 Ry
     estimated scf accuracy    <       1.18511633 Ry

     iteration #  2     ecut=    30.00 Ry     beta= 0.50
     Davidson diagonalization with overlap
     ethr =  4.63E-04,  avg # of iterations =  3.0

     total cpu time spent up to now is        5.4 secs

     total energy              =    -501.06560825 Ry
     estimated scf accuracy    <       3.00755587 Ry

     iteration #  3     ecut=    30.00 Ry     beta= 0.50
     Davidson diagonalization with overlap
     ethr =  4.63E-04,  avg # of iterations =  4.0

     total cpu time spent up to now is        5.5 secs

     total energy              =    -501.35316779 Ry
     estimated scf accuracy    <       2.05704580 Ry

     iteration #  4     ecut=    30.00 Ry     beta= 0.50
     Davidson diagonalization with overlap
     ethr =  4.63E-04,  avg # of iterations =  2.0

     total cpu time spent up to now is        5.6 secs

     total energy              =    -501.50836371 Ry
     estimated scf accuracy    <       0.58076157 Ry

     iteration #  5     ecut=    30.00 Ry     beta= 0.50
     Davidson diagonalization with overlap
     ethr =  2.27E-04,  avg # of iterations =  2.0

     total cpu time spent up to now is        5.7 secs

     total energy              =    -501.54694520 Ry
     estimated scf accuracy    <       0.19065310 Ry

     iteration #  6     ecut=    30.00 Ry     beta= 0.50
     Davidson diagonalization with overlap
     ethr =  7.45E-05,  avg # of iterations =  3.0

     total cpu time spent up to now is        5.8 secs

     total energy              =    -501.56639694 Ry
     estimated scf accuracy    <       0.17435668 Ry

     iteration #  7     ecut=    30.00 Ry     beta= 0.50
     Davidson diagonalization with overlap
     ethr =  6.81E-05,  avg # of iterations =  1.0

     total cpu time spent up to now is        5.9 secs

     total energy              =    -501.57988660 Ry
     estimated scf accuracy    <       0.00736127 Ry

     iteration #  8     ecut=    30.00 Ry     beta= 0.50
     Davidson diagonalization with overlap
     ethr =  2.88E-06,  avg # of iterations = 13.0

     total cpu time spent up to now is        6.0 secs

     total energy              =    -501.58081802 Ry
     estimated scf accuracy    <       0.01556724 Ry

     iteration #  9     ecut=    30.00 Ry     beta= 0.50
     Davidson diagonalization with overlap
     ethr =  2.88E-06,  avg # of iterations =  3.0

     total cpu time spent up to now is        6.2 secs

     total energy              =    -501.58218195 Ry
     estimated scf accuracy    <       0.00311251 Ry

     iteration # 10     ecut=    30.00 Ry     beta= 0.50
     Davidson diagonalization with overlap
     ethr =  1.22E-06,  avg # of iterations =  2.0

     total cpu time spent up to now is        6.2 secs

     total energy              =    -501.58237415 Ry
     estimated scf accuracy    <       0.00109756 Ry

     iteration # 11     ecut=    30.00 Ry     beta= 0.50
     Davidson diagonalization with overlap
     ethr =  4.29E-07,  avg # of iterations =  2.0

     total cpu time spent up to now is        6.3 secs

     total energy              =    -501.58244855 Ry
     estimated scf accuracy    <       0.00068332 Ry

     iteration # 12     ecut=    30.00 Ry     beta= 0.50
     Davidson diagonalization with overlap
     ethr =  2.67E-07,  avg # of iterations =  2.0

     total cpu time spent up to now is        6.4 secs

     total energy              =    -501.58251554 Ry
     estimated scf accuracy    <       0.00016147 Ry

     iteration # 13     ecut=    30.00 Ry     beta= 0.50
     Davidson diagonalization with overlap
     ethr =  6.31E-08,  avg # of iterations =  2.0

     total cpu time spent up to now is        6.5 secs

     total energy              =    -501.58252816 Ry
     estimated scf accuracy    <       0.00005047 Ry

     iteration # 14     ecut=    30.00 Ry     beta= 0.50
     Davidson diagonalization with overlap
     ethr =  1.97E-08,  avg # of iterations =  3.0

     total cpu time spent up to now is        6.6 secs

     total energy              =    -501.58253163 Ry
     estimated scf accuracy    <       0.00007226 Ry

     iteration # 15     ecut=    30.00 Ry     beta= 0.50
     Davidson diagonalization with overlap
     ethr =  1.97E-08,  avg # of iterations =  2.0

     total cpu time spent up to now is        6.7 secs

     total energy              =    -501.58253561 Ry
     estimated scf accuracy    <       0.00000554 Ry

     iteration # 16     ecut=    30.00 Ry     beta= 0.50
     Davidson diagonalization with overlap
     ethr =  2.16E-09,  avg # of iterations =  5.0

     total cpu time spent up to now is        6.9 secs

     total energy              =    -501.58253655 Ry
     estimated scf accuracy    <       0.00001428 Ry

     iteration # 17     ecut=    30.00 Ry     beta= 0.50
     Davidson diagonalization with overlap
     ethr =  2.16E-09,  avg # of iterations =  3.0

     total cpu time spent up to now is        7.0 secs

     total energy              =    -501.58253720 Ry
     estimated scf accuracy    <       0.00000437 Ry

     iteration # 18     ecut=    30.00 Ry     beta= 0.50
     Davidson diagonalization with overlap
     ethr =  1.71E-09,  avg # of iterations =  2.0

     total cpu time spent up to now is        7.1 secs

     total energy              =    -501.58253755 Ry
     estimated scf accuracy    <       0.00000138 Ry

     iteration # 19     ecut=    30.00 Ry     beta= 0.50
     Davidson diagonalization with overlap
     ethr =  5.38E-10,  avg # of iterations =  2.0

     total cpu time spent up to now is        7.1 secs

     End of self-consistent calculation

          k = 0.0000 0.0000 0.0000 ( 11492 PWs)   bands (ev):

    -5.3442  -4.4802  -4.2842  -4.2354  -4.0844  -4.0071  -3.9470  -3.4695
    -3.3558  -3.2037  -3.1726  -3.0815  -3.0106  -2.9798  -2.9060  -2.8183
    -2.7819  -2.6293  -2.5633  -2.1966  -2.0638  -1.9158  -1.8473  -1.7803
    -1.6689  -1.5445  -1.3260  -0.9245  -0.9037  -0.7632  -0.6880  -0.5911
    -0.4259  -0.2898  -0.1999  -0.1383  -0.0701   0.0107   0.1903   0.2378
     0.3238   0.3824   0.4409   0.5172   0.6634   0.6913   0.6936   0.7767
     0.9536   1.0471   1.1634   1.2527   1.2637   1.3377   1.3783   1.5439
     1.6076   1.7529   1.8892   1.9740   2.0382   2.1266   2.2442   2.3576
     2.5234   2.5751   2.6430   2.7375   2.8207   2.8260   2.8690   2.8961
     3.0003   3.0411   3.1427   3.1844   3.2759   3.3773   3.4448   3.5252
     3.6628   4.0887   4.1704   4.3375   4.3848   4.4251   4.5794   4.6033
     4.6552   4.7217   4.7859   4.8897   4.9585   4.9932   5.0505   5.1421
     5.1741   5.2128   5.2386   5.2817   5.3251   5.3397   5.3941   5.4380
     5.5796   5.6210   5.6714   5.7359   5.7911   5.8486   5.8689   5.9026
     6.0211   6.0544   6.0838   6.2554   6.2882   6.2987   6.3599   6.4421
     6.4627   6.5945   6.6912   6.7688   6.7784   6.8262   6.8702   6.9116
     6.9944   7.0508   7.0998   7.1095   7.2641   7.2955   7.3636   7.4224
     7.5732   7.5934   7.6424   7.6838   7.7796   7.8406   7.8854   7.9170
     8.0016   8.0374   8.1290   8.2577   8.3029   8.3483   8.4755   8.4943
     8.5470   8.6696

     the Fermi energy is     6.9667 ev

!    total energy              =    -501.58253752 Ry
     estimated scf accuracy    <       0.00000019 Ry
     smearing contrib. (-TS)   =      -0.15199749 Ry
     internal energy E=F+TS    =    -501.43054003 Ry

     The total energy is F=E-TS. E is the sum of the following terms:
     one-electron contribution =     190.10255463 Ry
     hartree contribution      =      21.85430593 Ry
     xc contribution           =    -150.33330703 Ry
     ewald contribution        =    -563.05409357 Ry

     convergence has been achieved in  19 iterations

     Forces acting on atoms (cartesian axes, Ry/au):

     atom    1 type  1   force =    -0.01236117    0.03700455    0.00372122
     atom    2 type  1   force =     0.00918217    0.00126526    0.03044567
     atom    3 type  1   force =    -0.06629886    0.03940200    0.06295084
     atom    4 type  1   force =     0.03196353    0.00812856    0.02598696
     atom    5 type  1   force =    -0.01853699   -0.01323406   -0.04858022
     atom    6 type  1   force =    -0.01062558   -0.03307965   -0.00265584
     atom    7 type  1   force =     0.01435581    0.00085326   -0.00607019
     atom    8 type  1   force =    -0.01427574    0.03612724   -0.03706319
     atom    9 type  1   force =    -0.00204909   -0.00386693    0.01771043
     atom   10 type  1   force =     0.00192716   -0.04309885   -0.00134687
     atom   11 type  1   force =    -0.01842445   -0.01320251    0.03265820
     atom   12 type  1   force =    -0.01432083    0.00639502    0.00202003
     atom   13 type  1   force =    -0.00170776    0.01701503    0.03370653
     atom   14 type  1   force =     0.02315271   -0.04626331    0.02395201
     atom   15 type  1   force =     0.01585883    0.02209046   -0.02709971
     atom   16 type  1   force =     0.01820663    0.00216426   -0.01254253
     atom   17 type  1   force =    -0.02518700    0.04794797    0.01742443
     atom   18 type  1   force =    -0.00974684   -0.00547502    0.00128342
     atom   19 type  1   force =     0.03262447   -0.00952273    0.00246928
     atom   20 type  1   force =     0.00117432    0.02305685    0.02369599
     atom   21 type  1   force =    -0.01733769   -0.05002917   -0.03933974
     atom   22 type  1   force =     0.01406678   -0.00808152   -0.00371599
     atom   23 type  1   force =    -0.03391087   -0.00039651   -0.00851050
     atom   24 type  1   force =    -0.05785452   -0.03114914    0.02619965
     atom   25 type  1   force =    -0.01698001    0.03554238    0.01143604
     atom   26 type  1   force =     0.01875892   -0.02637992   -0.01988874
     atom   27 type  1   force =    -0.00215891    0.00001605   -0.00127032
     atom   28 type  1   force =     0.03378174   -0.00206751   -0.00429228
     atom   29 type  1   force =    -0.02786548    0.00531511   -0.01069194
     atom   30 type  1   force =    -0.00848178    0.00864323    0.00377902
     atom   31 type  1   force =     0.05848951   -0.00948580    0.00859893
     atom   32 type  1   force =     0.00858675    0.01618075    0.01770938
     atom   33 type  1   force =    -0.03500761    0.00234213   -0.01869155
     atom   34 type  1   force =     0.04911268   -0.00740351   -0.01827240
     atom   35 type  1   force =     0.02543818    0.01627566    0.01065580
     atom   36 type  1   force =    -0.00065171    0.00383193    0.00029906
     atom   37 type  1   force =    -0.01072926    0.00287576    0.01232155
     atom   38 type  1   force =    -0.00722443    0.00230228   -0.00437509
     atom   39 type  1   force =     0.01782340    0.01246612   -0.01728289
     atom   40 type  1   force =    -0.03865660   -0.01782483   -0.01733871
     atom   41 type  1   force =     0.03112050   -0.07091496   -0.08694730
     atom   42 type  1   force =     0.03089394    0.03754394    0.02752598
     atom   43 type  1   force =    -0.03641671   -0.00514451    0.03394567
     atom   44 type  1   force =     0.00078754   -0.03628363    0.00026893
     atom   45 type  1   force =     0.01855220    0.01740478    0.05202488
     atom   46 type  1   force =    -0.00164439   -0.02591988    0.01025362
     atom   47 type  1   force =    -0.02643130   -0.01452031   -0.00377786
     atom   48 type  1   force =     0.04357648   -0.00437827    0.00235379
     atom   49 type  1   force =    -0.02050025    0.00208334    0.03787571
     atom   50 type  1   force =    -0.01212255   -0.02158351    0.02524667
     atom   51 type  1   force =     0.03199944   -0.00600839   -0.02831312
     atom   52 type  1   force =     0.00615136    0.00384839   -0.00191901
     atom   53 type  1   force =    -0.00593263   -0.03462933    0.00265359
     atom   54 type  1   force =     0.01809238   -0.00810191   -0.01063604
     atom   55 type  1   force =    -0.00534613    0.00816733   -0.02418449
     atom   56 type  1   force =    -0.04292454    0.02093930   -0.02863734
     atom   57 type  1   force =     0.04814865   -0.02300463    0.00440876
     atom   58 type  1   force =     0.00705670    0.01147319   -0.01490542
     atom   59 type  1   force =     0.03736118    0.02233632   -0.00580928
     atom   60 type  1   force =    -0.03233005    0.04193208   -0.05105803
     atom   61 type  1   force =     0.00617468    0.04108606    0.01369566
     atom   62 type  1   force =    -0.03881205    0.03670883   -0.00626316
     atom   63 type  1   force =     0.01440933   -0.01132536    0.00949282
     atom   64 type  1   force =     0.00402581   -0.00838973   -0.02729079

     Total force =     0.348666     Total SCF correction =     0.000852


     Computing stress (Cartesian axis) and pressure

          total   stress  (Ry/bohr**3)                   (kbar)     P=      -39.61
  -0.00030885  -0.00007188   0.00003052          -45.43      -10.57        4.49
  -0.00007188  -0.00023941   0.00000292          -10.57      -35.22        0.43
   0.00003052   0.00000292  -0.00025946            4.49        0.43      -38.17

 
     init_run     :      1.09s CPU      4.94s WALL (       1 calls)
     electrons    :      1.96s CPU      2.14s WALL (       1 calls)
     forces       :      0.04s CPU      0.04s WALL (       1 calls)
     stress       :      0.16s CPU      0.16s WALL (       1 calls)

     Called by init_run:
     wfcinit      :      0.55s CPU      4.21s WALL (       1 calls)
                                        4.21s GPU  (       1 calls)
     potinit      :      0.05s CPU      0.15s WALL (       1 calls)
     hinit0       :      0.47s CPU      0.50s WALL (       1 calls)

     Called by electrons:
     c_bands      :      1.15s CPU      1.23s WALL (      20 calls)
     sum_band     :      0.40s CPU      0.45s WALL (      20 calls)
     v_of_rho     :      0.18s CPU      0.30s WALL (      20 calls)
     mix_rho      :      0.19s CPU      0.21s WALL (      20 calls)

     Called by c_bands:
     init_us_2    :      0.07s CPU      0.08s WALL (      41 calls)
     init_us_2:gp :      0.07s CPU      0.07s WALL (      41 calls)
     regterg      :      0.97s CPU      1.04s WALL (      20 calls)

     Called by *egterg:
     rdiaghg      :      0.38s CPU      1.14s WALL (      82 calls)
                                        1.13s GPU  (      82 calls)
     h_psi        :      0.95s CPU      3.91s WALL (      84 calls)
                                        3.91s GPU  (      84 calls)
     g_psi        :      0.00s CPU      0.00s WALL (      63 calls)
                                        0.00s GPU  (      63 calls)

     Called by h_psi:
     h_psi:calbec :      0.51s CPU      3.38s WALL (      84 calls)
                                        3.38s GPU  (      84 calls)
     vloc_psi     :      0.39s CPU      0.47s WALL (      84 calls)
                                        0.47s GPU  (      84 calls)
     add_vuspsi   :      0.03s CPU      0.05s WALL (      84 calls)
                                        0.05s GPU  (      84 calls)

     General routines
     calbec       :      0.52s CPU      3.39s WALL (      89 calls)
     fft          :      0.63s CPU      0.77s WALL (     167 calls)
                                        0.14s GPU  (     106 calls)
     ffts         :      0.05s CPU      0.05s WALL (      20 calls)
     fftw         :      0.48s CPU      0.64s WALL (    2090 calls)
                                        0.56s GPU  (    2090 calls)
 
     Parallel routines
 
     PWSCF        :      3.29s CPU      7.36s WALL

 
   This run was terminated on:  10:58:20  10May2023            

=------------------------------------------------------------------------------=
   JOB DONE.
=------------------------------------------------------------------------------=
