An instance of this daemon is already running

     Program PWSCF v.7.1 starts on 10May2023 at 11: 3:14 

     This program is part of the open-source Quantum ESPRESSO suite
     for quantum simulation of materials; please cite
         "P. Giannozzi et al., J. Phys.:Condens. Matter 21 395502 (2009);
         "P. Giannozzi et al., J. Phys.:Condens. Matter 29 465901 (2017);
         "P. Giannozzi et al., J. Chem. Phys. 152 154105 (2020);
          URL http://www.quantum-espresso.org", 
     in publications or presentations arising from this work. More details at
     http://www.quantum-espresso.org/quote

     Parallel version (MPI & OpenMP), running on       4 processor cores
     Number of MPI processes:                 4
     Threads/MPI process:                     1

     MPI processes distributed on     1 nodes
     753551 MiB available memory on the printing compute node when the environment starts
 
     Reading input from pw-si-57.in
Warning: card &CELL ignored
Warning: card / ignored

     Current dimensions of program PWSCF are:
     Max number of different atomic species (ntypx) = 10
     Max number of k-points (npk) =  40000
     Max angular momentum in pseudopotentials (lmaxx) =  4

     IMPORTANT: XC functional enforced from input :
     Exchange-correlation= PBE
                           (   1   4   3   4   0   0   0)
     Any further DFT definition will be discarded
     Please, verify this is what you really want


     gamma-point specific algorithms are used
 
     K-points division:     npool     =       2
     R & G space division:  proc/nbgrp/npool/nimage =       2
     Subspace diagonalization in iterative solution of the eigenvalue problem:
     a serial algorithm will be used

     Message from routine divide_et_impera:
     suboptimal parallelization: some nodes have no k-points
 
     Parallelization info
     --------------------
     sticks:   dense  smooth     PW     G-vecs:    dense   smooth      PW
     Min        1995    1995    524                94845    94845   12836
     Max        1998    1998    525                94850    94850   12841
     Sum        3993    3993   1049               189695   189695   25677
 
     Using Slab Decomposition
 


     bravais-lattice index     =            0
     lattice parameter (alat)  =      20.4343  a.u.
     unit-cell volume          =    8532.5385 (a.u.)^3
     number of atoms/cell      =           64
     number of atomic types    =            1
     number of electrons       =       256.00
     number of Kohn-Sham states=          154
     kinetic-energy cutoff     =      30.0000  Ry
     charge density cutoff     =     120.0000  Ry
     scf convergence threshold =      1.0E-06
     mixing beta               =       0.5000
     number of iterations used =            8  plain     mixing
     Exchange-correlation= PBE
                           (   1   4   3   4   0   0   0)

     GPU acceleration is ACTIVE.
     GPU-aware MPI enabled

     Message from routine print_cuda_info:
     High GPU oversubscription detected. Are you sure this is what you want?

     celldm(1)=  20.434284  celldm(2)=   0.000000  celldm(3)=   0.000000
     celldm(4)=   0.000000  celldm(5)=   0.000000  celldm(6)=   0.000000

     crystal axes: (cart. coord. in units of alat)
               a(1) = (   1.000000   0.000000   0.000000 )  
               a(2) = (   0.000000   1.000000   0.000000 )  
               a(3) = (   0.000000   0.000000   1.000000 )  

     reciprocal axes: (cart. coord. in units 2 pi/alat)
               b(1) = (  1.000000  0.000000  0.000000 )  
               b(2) = (  0.000000  1.000000  0.000000 )  
               b(3) = (  0.000000  0.000000  1.000000 )  


     PseudoPot. # 1 for Si read from file:
     /home/ppiaggi/pseudos/Si_ONCV_PBE_sr.upf
     MD5 check sum: 8553c464762ac42b85b1eed164b4d029
     Pseudo is Norm-conserving, Zval =  4.0
     Generated using ONCVPSP code by D. R. Hamann
     Using radial grid of 1510 points,  4 beta functions with: 
                l(1) =   0
                l(2) =   0
                l(3) =   1
                l(4) =   1

     atomic species   valence    mass     pseudopotential
        Si             4.00    28.08500     Si( 1.00)

     No symmetry found



   Cartesian axes

     site n.     atom                  positions (alat units)
         1           Si  tau(   1) = (   0.0688912   0.1901640   0.2822640  )
         2           Si  tau(   2) = (   0.1910160   0.2539230   0.8566620  )
         3           Si  tau(   3) = (   0.2986180   0.3699070   0.4637210  )
         4           Si  tau(   4) = (   0.2225290   0.1782890   0.4024710  )
         5           Si  tau(   5) = (   0.6337960   0.8696240   0.5810890  )
         6           Si  tau(   6) = (   0.9343240   0.2859420   0.5685830  )
         7           Si  tau(   7) = (   0.8998690   0.5236800   0.4603740  )
         8           Si  tau(   8) = (   0.4008730   0.0227800   0.7188680  )
         9           Si  tau(   9) = (   0.9384650   0.0446432   0.6834570  )
        10           Si  tau(  10) = (   0.1450300   0.9763920   0.9437750  )
        11           Si  tau(  11) = (   0.4625870   0.4396160   0.7554990  )
        12           Si  tau(  12) = (   0.7044250   0.1474580   0.3626370  )
        13           Si  tau(  13) = (   0.0795258   0.7531930   0.8530450  )
        14           Si  tau(  14) = (   0.5919440   0.6297050   0.7391410  )
        15           Si  tau(  15) = (   0.2667730   0.5412120   0.3275590  )
        16           Si  tau(  16) = (   0.9947900   0.9616840   0.3033900  )
        17           Si  tau(  17) = (   0.1704410   0.9142890   0.4654280  )
        18           Si  tau(  18) = (   0.8816300   0.7228980   0.3660850  )
        19           Si  tau(  19) = (   0.1450700   0.9832060   0.7050680  )
        20           Si  tau(  20) = (   0.3993460   0.7672950   0.7395380  )
        21           Si  tau(  21) = (   0.2489040   0.8770610   0.1354820  )
        22           Si  tau(  22) = (   0.9185160   0.2333610   0.8608800  )
        23           Si  tau(  23) = (   0.6644570   0.9736620   0.8010890  )
        24           Si  tau(  24) = (   0.5483680   0.2239080   0.1681660  )
        25           Si  tau(  25) = (   0.4299320   0.0987010   0.3371900  )
        26           Si  tau(  26) = (   0.3980870   0.8787090   0.3282930  )
        27           Si  tau(  27) = (   0.7453560   0.1314230   0.0540405  )
        28           Si  tau(  28) = (   0.8777830   0.8301450   0.0050289  )
        29           Si  tau(  29) = (   0.0414343   0.7670220   0.1675510  )
        30           Si  tau(  30) = (   0.8374100   0.9589000   0.4834680  )
        31           Si  tau(  31) = (   0.5174120   0.0757283   0.5383550  )
        32           Si  tau(  32) = (   0.8758280   0.8740250   0.7899550  )
        33           Si  tau(  33) = (   0.5257930   0.6846100   0.5230210  )
        34           Si  tau(  34) = (   0.6183850   0.8828500   0.0144475  )
        35           Si  tau(  35) = (   0.9930390   0.7784580   0.5622000  )
        36           Si  tau(  36) = (   0.5749350   0.3575020   0.9403560  )
        37           Si  tau(  37) = (   0.7743870   0.9674510   0.2141190  )
        38           Si  tau(  38) = (   0.3550000   0.6489180   0.1533710  )
        39           Si  tau(  39) = (   0.6959440   0.2071580   0.5861130  )
        40           Si  tau(  40) = (   0.0678372   0.4594680   0.0932468  )
        41           Si  tau(  41) = (   0.9916520   0.0885259   0.0407226  )
        42           Si  tau(  42) = (   0.1727670   0.4501200   0.6395440  )
        43           Si  tau(  43) = (   0.8648850   0.3092500   0.3338680  )
        44           Si  tau(  44) = (   0.4142640   0.1839990   0.8506290  )
        45           Si  tau(  45) = (   0.0507233   0.5520800   0.2846510  )
        46           Si  tau(  46) = (   0.9596680   0.4470130   0.7283410  )
        47           Si  tau(  47) = (   0.6457080   0.4161960   0.2408150  )
        48           Si  tau(  48) = (   0.1887200   0.6062760   0.9953010  )
        49           Si  tau(  49) = (   0.1483250   0.2575480   0.0753031  )
        50           Si  tau(  50) = (   0.3941030   0.9140800   0.9401000  )
        51           Si  tau(  51) = (   0.1588920   0.1992690   0.6484910  )
        52           Si  tau(  52) = (   0.5841340   0.5951760   0.1385010  )
        53           Si  tau(  53) = (   0.3335320   0.7104230   0.4728500  )
        54           Si  tau(  54) = (   0.6538400   0.4616820   0.4631550  )
        55           Si  tau(  55) = (   0.5974300   0.7989910   0.2284600  )
        56           Si  tau(  56) = (   0.4842620   0.3472030   0.5426320  )
        57           Si  tau(  57) = (   0.3430290   0.1246380   0.0735078  )
        58           Si  tau(  58) = (   0.7817860   0.4699300   0.9126270  )
        59           Si  tau(  59) = (   0.8393840   0.6448340   0.7072700  )
        60           Si  tau(  60) = (   0.6935920   0.2056520   0.8205490  )
        61           Si  tau(  61) = (   0.6757810   0.6812090   0.9510360  )
        62           Si  tau(  62) = (   0.1942430   0.6891990   0.6562020  )
        63           Si  tau(  63) = (   0.8615430   0.3631640   0.1025230  )
        64           Si  tau(  64) = (   0.2612120   0.4574990   0.8357970  )

     number of k points=     1  Fermi-Dirac smearing, width (Ry)=  0.0100
                       cart. coord. in units 2pi/alat
        k(    1) = (   0.0000000   0.0000000   0.0000000), wk =   2.0000000

     Dense  grid:    94848 G-vectors     FFT dimensions: (  72,  72,  72)

     Estimated max dynamical RAM per process >     151.34 MB

     Estimated total dynamical RAM >     582.22 MB

     Initial potential from superposition of free atoms

     starting charge     255.9608, renormalised to     256.0000
     Starting wfcs are  256 randomized atomic wfcs

     total cpu time spent up to now is        5.0 secs

     Self-consistent Calculation

     iteration #  1     ecut=    30.00 Ry     beta= 0.50
     Davidson diagonalization with overlap
     ethr =  1.00E-02,  avg # of iterations =  3.0

     Threshold (ethr) on eigenvalues was too large:
     Diagonalizing with lowered threshold

     Davidson diagonalization with overlap
     ethr =  4.16E-04,  avg # of iterations =  4.0

     total cpu time spent up to now is        5.3 secs

     total energy              =    -501.34450511 Ry
     estimated scf accuracy    <       1.26690010 Ry

     iteration #  2     ecut=    30.00 Ry     beta= 0.50
     Davidson diagonalization with overlap
     ethr =  4.95E-04,  avg # of iterations =  8.0

     total cpu time spent up to now is        5.4 secs

     total energy              =    -500.82535858 Ry
     estimated scf accuracy    <       5.87828323 Ry

     iteration #  3     ecut=    30.00 Ry     beta= 0.50
     Davidson diagonalization with overlap
     ethr =  4.95E-04,  avg # of iterations =  3.0

     total cpu time spent up to now is        5.6 secs

     total energy              =    -501.40730468 Ry
     estimated scf accuracy    <       2.04018587 Ry

     iteration #  4     ecut=    30.00 Ry     beta= 0.50
     Davidson diagonalization with overlap
     ethr =  4.95E-04,  avg # of iterations =  2.0

     total cpu time spent up to now is        5.6 secs

     total energy              =    -501.51469807 Ry
     estimated scf accuracy    <       0.55681093 Ry

     iteration #  5     ecut=    30.00 Ry     beta= 0.50
     Davidson diagonalization with overlap
     ethr =  2.18E-04,  avg # of iterations =  2.0

     total cpu time spent up to now is        5.7 secs

     total energy              =    -501.54549677 Ry
     estimated scf accuracy    <       0.51460374 Ry

     iteration #  6     ecut=    30.00 Ry     beta= 0.50
     Davidson diagonalization with overlap
     ethr =  2.01E-04,  avg # of iterations =  2.0

     total cpu time spent up to now is        5.8 secs

     total energy              =    -501.59101257 Ry
     estimated scf accuracy    <       0.06555872 Ry

     iteration #  7     ecut=    30.00 Ry     beta= 0.50
     Davidson diagonalization with overlap
     ethr =  2.56E-05,  avg # of iterations =  3.0

     total cpu time spent up to now is        5.9 secs

     total energy              =    -501.59893646 Ry
     estimated scf accuracy    <       0.01633779 Ry

     iteration #  8     ecut=    30.00 Ry     beta= 0.50
     Davidson diagonalization with overlap
     ethr =  6.38E-06,  avg # of iterations =  9.0

     total cpu time spent up to now is        6.1 secs

     total energy              =    -501.60018329 Ry
     estimated scf accuracy    <       0.02607288 Ry

     iteration #  9     ecut=    30.00 Ry     beta= 0.50
     Davidson diagonalization with overlap
     ethr =  6.38E-06,  avg # of iterations =  2.0

     total cpu time spent up to now is        6.2 secs

     total energy              =    -501.60201797 Ry
     estimated scf accuracy    <       0.00232130 Ry

     iteration # 10     ecut=    30.00 Ry     beta= 0.50
     Davidson diagonalization with overlap
     ethr =  9.07E-07,  avg # of iterations =  4.0

     total cpu time spent up to now is        6.3 secs

     total energy              =    -501.60225538 Ry
     estimated scf accuracy    <       0.00325809 Ry

     iteration # 11     ecut=    30.00 Ry     beta= 0.50
     Davidson diagonalization with overlap
     ethr =  9.07E-07,  avg # of iterations =  2.0

     total cpu time spent up to now is        6.4 secs

     total energy              =    -501.60248502 Ry
     estimated scf accuracy    <       0.00033384 Ry

     iteration # 12     ecut=    30.00 Ry     beta= 0.50
     Davidson diagonalization with overlap
     ethr =  1.30E-07,  avg # of iterations =  3.0

     total cpu time spent up to now is        6.5 secs

     total energy              =    -501.60251501 Ry
     estimated scf accuracy    <       0.00032013 Ry

     iteration # 13     ecut=    30.00 Ry     beta= 0.50
     Davidson diagonalization with overlap
     ethr =  1.25E-07,  avg # of iterations =  2.0

     total cpu time spent up to now is        6.6 secs

     total energy              =    -501.60254224 Ry
     estimated scf accuracy    <       0.00017318 Ry

     iteration # 14     ecut=    30.00 Ry     beta= 0.50
     Davidson diagonalization with overlap
     ethr =  6.76E-08,  avg # of iterations =  1.0

     total cpu time spent up to now is        6.7 secs

     total energy              =    -501.60255286 Ry
     estimated scf accuracy    <       0.00004096 Ry

     iteration # 15     ecut=    30.00 Ry     beta= 0.50
     Davidson diagonalization with overlap
     ethr =  1.60E-08,  avg # of iterations =  2.0

     total cpu time spent up to now is        6.8 secs

     total energy              =    -501.60255723 Ry
     estimated scf accuracy    <       0.00001667 Ry

     iteration # 16     ecut=    30.00 Ry     beta= 0.50
     Davidson diagonalization with overlap
     ethr =  6.51E-09,  avg # of iterations =  2.0

     total cpu time spent up to now is        6.9 secs

     total energy              =    -501.60255851 Ry
     estimated scf accuracy    <       0.00000921 Ry

     iteration # 17     ecut=    30.00 Ry     beta= 0.50
     Davidson diagonalization with overlap
     ethr =  3.60E-09,  avg # of iterations =  1.0

     total cpu time spent up to now is        7.0 secs

     total energy              =    -501.60255914 Ry
     estimated scf accuracy    <       0.00000177 Ry

     iteration # 18     ecut=    30.00 Ry     beta= 0.50
     Davidson diagonalization with overlap
     ethr =  6.90E-10,  avg # of iterations =  3.0

     total cpu time spent up to now is        7.1 secs

     total energy              =    -501.60255939 Ry
     estimated scf accuracy    <       0.00000182 Ry

     iteration # 19     ecut=    30.00 Ry     beta= 0.50
     Davidson diagonalization with overlap
     ethr =  6.90E-10,  avg # of iterations =  2.0

     total cpu time spent up to now is        7.2 secs

     End of self-consistent calculation

          k = 0.0000 0.0000 0.0000 ( 11852 PWs)   bands (ev):

    -5.6901  -4.7383  -4.6785  -4.6234  -4.5599  -4.4618  -4.3276  -3.8982
    -3.7846  -3.6442  -3.5671  -3.4825  -3.4508  -3.4136  -3.2529  -3.2206
    -3.1263  -2.9619  -2.7052  -2.6674  -2.4602  -2.3226  -2.2520  -2.0681
    -2.0056  -1.9793  -1.7457  -1.5190  -1.3108  -1.1398  -1.0501  -0.8016
    -0.6935  -0.6790  -0.6327  -0.5038  -0.4585  -0.3836  -0.2524  -0.2175
    -0.1351  -0.0998   0.0576   0.1502   0.1720   0.2267   0.2617   0.4478
     0.5157   0.6830   0.8022   0.8821   0.9348   1.0152   1.1135   1.1959
     1.2795   1.4012   1.4312   1.6430   1.7101   1.8481   1.9707   2.0660
     2.0957   2.1242   2.2778   2.3334   2.4000   2.5051   2.5622   2.6101
     2.7249   2.7723   2.9630   2.9940   3.0376   3.1747   3.2962   3.4838
     3.5189   3.5827   3.6416   3.6894   3.8699   3.9931   4.1070   4.1428
     4.2255   4.2821   4.3097   4.3568   4.4254   4.5272   4.5845   4.6073
     4.6334   4.7813   4.8688   4.8891   5.0063   5.0223   5.0293   5.0530
     5.1895   5.2139   5.3041   5.3150   5.3698   5.4669   5.4728   5.5246
     5.6117   5.6805   5.7198   5.7443   5.8594   5.9393   6.0183   6.0283
     6.1322   6.1992   6.2560   6.3682   6.3931   6.4346   6.4881   6.5306
     6.5767   6.5945   6.7367   6.7759   6.8433   6.9186   6.9283   6.9858
     7.1502   7.1971   7.2539   7.3004   7.3943   7.4154   7.5704   7.6176
     7.7136   7.7733   7.8170   7.8630   7.9444   7.9716   8.0502   8.0947
     8.1358   8.2565

     the Fermi energy is     6.5704 ev

!    total energy              =    -501.60255930 Ry
     estimated scf accuracy    <       0.00000030 Ry
     smearing contrib. (-TS)   =      -0.15247627 Ry
     internal energy E=F+TS    =    -501.45008303 Ry

     The total energy is F=E-TS. E is the sum of the following terms:
     one-electron contribution =     160.94951237 Ry
     hartree contribution      =      32.78692142 Ry
     xc contribution           =    -150.29804995 Ry
     ewald contribution        =    -544.88846687 Ry

     convergence has been achieved in  19 iterations

     Forces acting on atoms (cartesian axes, Ry/au):

     atom    1 type  1   force =    -0.12739194   -0.01179663   -0.08654103
     atom    2 type  1   force =     0.01952755   -0.00168745    0.00685644
     atom    3 type  1   force =    -0.06806233    0.02038391   -0.01694913
     atom    4 type  1   force =     0.10904579   -0.03062935    0.09758661
     atom    5 type  1   force =     0.03272377    0.04440496    0.01054972
     atom    6 type  1   force =     0.00336831   -0.01062560    0.01208231
     atom    7 type  1   force =    -0.01246743   -0.01745909    0.00995443
     atom    8 type  1   force =    -0.02040392   -0.05855122   -0.01805639
     atom    9 type  1   force =    -0.00575786    0.06207659   -0.03716663
     atom   10 type  1   force =     0.02739007   -0.03579988   -0.03657649
     atom   11 type  1   force =     0.03573987   -0.00371335    0.00332670
     atom   12 type  1   force =     0.02152588   -0.01327749   -0.00769682
     atom   13 type  1   force =     0.00744403    0.01470645    0.01670131
     atom   14 type  1   force =    -0.00095244   -0.00441320    0.01263232
     atom   15 type  1   force =     0.00249532    0.04552185    0.00659273
     atom   16 type  1   force =    -0.00308827    0.01022878    0.00728261
     atom   17 type  1   force =    -0.01266871   -0.01136275    0.01280266
     atom   18 type  1   force =     0.01530161    0.00678400   -0.00327852
     atom   19 type  1   force =     0.04046284    0.00576622   -0.00558054
     atom   20 type  1   force =     0.00195000    0.02742117    0.01091271
     atom   21 type  1   force =     0.04405470   -0.00423789    0.00165072
     atom   22 type  1   force =     0.00093673   -0.01716196   -0.00359642
     atom   23 type  1   force =    -0.00818594   -0.00167091   -0.00226524
     atom   24 type  1   force =     0.00870176    0.00234237   -0.00010697
     atom   25 type  1   force =    -0.00800538   -0.00053512   -0.00036392
     atom   26 type  1   force =    -0.00129033   -0.01097380   -0.04234714
     atom   27 type  1   force =     0.01119793    0.00693827    0.01799947
     atom   28 type  1   force =    -0.01148531   -0.01550843    0.02166116
     atom   29 type  1   force =    -0.01174646    0.00376055    0.01152717
     atom   30 type  1   force =    -0.00289844    0.00102308    0.01528582
     atom   31 type  1   force =     0.01198633   -0.00074108    0.00113197
     atom   32 type  1   force =    -0.03141201   -0.07438966    0.03419157
     atom   33 type  1   force =     0.09560305   -0.02238252    0.02896928
     atom   34 type  1   force =    -0.01961115    0.01730662   -0.01695159
     atom   35 type  1   force =     0.00375644   -0.01000942   -0.02340782
     atom   36 type  1   force =    -0.00666929   -0.01859014   -0.02985876
     atom   37 type  1   force =    -0.00329820   -0.00263964   -0.01485657
     atom   38 type  1   force =    -0.00091381    0.00072549   -0.01301223
     atom   39 type  1   force =     0.01234140    0.02397650   -0.00329592
     atom   40 type  1   force =    -0.02367102   -0.03237730   -0.00327306
     atom   41 type  1   force =    -0.04791445    0.03096721   -0.02106329
     atom   42 type  1   force =    -0.02275633    0.01724298   -0.00667790
     atom   43 type  1   force =     0.01639366   -0.01066920   -0.00134572
     atom   44 type  1   force =    -0.02449400    0.03283960    0.06002831
     atom   45 type  1   force =     0.00645334    0.03493106    0.02697657
     atom   46 type  1   force =    -0.00153956   -0.01248993   -0.00230325
     atom   47 type  1   force =     0.01656477   -0.03260940    0.00677150
     atom   48 type  1   force =     0.01843349   -0.00113755   -0.02933341
     atom   49 type  1   force =     0.00218569   -0.01566033    0.03489474
     atom   50 type  1   force =     0.00606144    0.00585469    0.01787423
     atom   51 type  1   force =    -0.04492964   -0.00486064   -0.04429645
     atom   52 type  1   force =    -0.03370389    0.03533734   -0.02100167
     atom   53 type  1   force =    -0.10573391    0.01805505   -0.03605710
     atom   54 type  1   force =     0.01758263    0.02095582   -0.02656094
     atom   55 type  1   force =    -0.00373959    0.03535181    0.00333160
     atom   56 type  1   force =     0.05637238   -0.01311826    0.07548467
     atom   57 type  1   force =     0.01126772   -0.01107312   -0.01419013
     atom   58 type  1   force =    -0.00324656   -0.00240869    0.01343338
     atom   59 type  1   force =    -0.00923996    0.02429160    0.00089728
     atom   60 type  1   force =     0.02188168   -0.02735590   -0.00566272
     atom   61 type  1   force =     0.02160830   -0.01867412   -0.00063143
     atom   62 type  1   force =    -0.00205346   -0.00728472   -0.00634921
     atom   63 type  1   force =    -0.03557496   -0.00086039   -0.01282424
     atom   64 type  1   force =     0.01454803    0.01954217    0.01408867

     Total force =     0.401663     Total SCF correction =     0.001037


     Computing stress (Cartesian axis) and pressure

          total   stress  (Ry/bohr**3)                   (kbar)     P=      -39.79
  -0.00024412  -0.00000624   0.00007883          -35.91       -0.92       11.60
  -0.00000624  -0.00033393  -0.00001164           -0.92      -49.12       -1.71
   0.00007883  -0.00001164  -0.00023349           11.60       -1.71      -34.35

 
     init_run     :      1.09s CPU      4.95s WALL (       1 calls)
     electrons    :      1.98s CPU      2.13s WALL (       1 calls)
     forces       :      0.04s CPU      0.04s WALL (       1 calls)
     stress       :      0.16s CPU      0.16s WALL (       1 calls)

     Called by init_run:
     wfcinit      :      0.55s CPU      4.23s WALL (       1 calls)
                                        4.23s GPU  (       1 calls)
     potinit      :      0.05s CPU      0.14s WALL (       1 calls)
     hinit0       :      0.47s CPU      0.50s WALL (       1 calls)

     Called by electrons:
     c_bands      :      1.13s CPU      1.20s WALL (      20 calls)
     sum_band     :      0.42s CPU      0.46s WALL (      20 calls)
     v_of_rho     :      0.20s CPU      0.30s WALL (      20 calls)
     mix_rho      :      0.19s CPU      0.21s WALL (      20 calls)

     Called by c_bands:
     init_us_2    :      0.07s CPU      0.08s WALL (      41 calls)
     init_us_2:gp :      0.07s CPU      0.07s WALL (      41 calls)
     regterg      :      0.96s CPU      1.02s WALL (      20 calls)

     Called by *egterg:
     rdiaghg      :      0.38s CPU      1.14s WALL (      79 calls)
                                        1.13s GPU  (      79 calls)
     h_psi        :      0.94s CPU      3.91s WALL (      81 calls)
                                        3.90s GPU  (      81 calls)
     g_psi        :      0.00s CPU      0.00s WALL (      60 calls)
                                        0.00s GPU  (      60 calls)

     Called by h_psi:
     h_psi:calbec :      0.51s CPU      3.40s WALL (      81 calls)
                                        3.39s GPU  (      81 calls)
     vloc_psi     :      0.38s CPU      0.45s WALL (      81 calls)
                                        0.45s GPU  (      81 calls)
     add_vuspsi   :      0.03s CPU      0.05s WALL (      81 calls)
                                        0.05s GPU  (      81 calls)

     General routines
     calbec       :      0.52s CPU      3.40s WALL (      86 calls)
     fft          :      0.63s CPU      0.77s WALL (     167 calls)
                                        0.13s GPU  (     106 calls)
     ffts         :      0.05s CPU      0.06s WALL (      20 calls)
     fftw         :      0.48s CPU      0.63s WALL (    2082 calls)
                                        0.54s GPU  (    2082 calls)
 
     Parallel routines
 
     PWSCF        :      3.31s CPU      7.37s WALL

 
   This run was terminated on:  11: 3:21  10May2023            

=------------------------------------------------------------------------------=
   JOB DONE.
=------------------------------------------------------------------------------=
