An instance of this daemon is already running
An instance of this daemon is already running
An instance of this daemon is already running

     Program PWSCF v.7.1 starts on 10May2023 at 11: 6:28 

     This program is part of the open-source Quantum ESPRESSO suite
     for quantum simulation of materials; please cite
         "P. Giannozzi et al., J. Phys.:Condens. Matter 21 395502 (2009);
         "P. Giannozzi et al., J. Phys.:Condens. Matter 29 465901 (2017);
         "P. Giannozzi et al., J. Chem. Phys. 152 154105 (2020);
          URL http://www.quantum-espresso.org", 
     in publications or presentations arising from this work. More details at
     http://www.quantum-espresso.org/quote

     Parallel version (MPI & OpenMP), running on       4 processor cores
     Number of MPI processes:                 4
     Threads/MPI process:                     1

     MPI processes distributed on     1 nodes
     753565 MiB available memory on the printing compute node when the environment starts
 
     Reading input from pw-si-77.in
Warning: card &CELL ignored
Warning: card / ignored

     Current dimensions of program PWSCF are:
     Max number of different atomic species (ntypx) = 10
     Max number of k-points (npk) =  40000
     Max angular momentum in pseudopotentials (lmaxx) =  4

     IMPORTANT: XC functional enforced from input :
     Exchange-correlation= PBE
                           (   1   4   3   4   0   0   0)
     Any further DFT definition will be discarded
     Please, verify this is what you really want


     gamma-point specific algorithms are used
 
     K-points division:     npool     =       2
     R & G space division:  proc/nbgrp/npool/nimage =       2
     Subspace diagonalization in iterative solution of the eigenvalue problem:
     a serial algorithm will be used

     Message from routine divide_et_impera:
     suboptimal parallelization: some nodes have no k-points
 
     Parallelization info
     --------------------
     sticks:   dense  smooth     PW     G-vecs:    dense   smooth      PW
     Min        1999    1999    528                95529    95529   12909
     Max        2002    2002    529                95534    95534   12912
     Sum        4001    4001   1057               191063   191063   25821
 
     Using Slab Decomposition
 


     bravais-lattice index     =            0
     lattice parameter (alat)  =      20.4860  a.u.
     unit-cell volume          =    8597.5136 (a.u.)^3
     number of atoms/cell      =           64
     number of atomic types    =            1
     number of electrons       =       256.00
     number of Kohn-Sham states=          154
     kinetic-energy cutoff     =      30.0000  Ry
     charge density cutoff     =     120.0000  Ry
     scf convergence threshold =      1.0E-06
     mixing beta               =       0.5000
     number of iterations used =            8  plain     mixing
     Exchange-correlation= PBE
                           (   1   4   3   4   0   0   0)

     GPU acceleration is ACTIVE.
     GPU-aware MPI enabled

     Message from routine print_cuda_info:
     High GPU oversubscription detected. Are you sure this is what you want?

     celldm(1)=  20.486021  celldm(2)=   0.000000  celldm(3)=   0.000000
     celldm(4)=   0.000000  celldm(5)=   0.000000  celldm(6)=   0.000000

     crystal axes: (cart. coord. in units of alat)
               a(1) = (   1.000000   0.000000   0.000000 )  
               a(2) = (   0.000000   1.000000   0.000000 )  
               a(3) = (   0.000000   0.000000   1.000000 )  

     reciprocal axes: (cart. coord. in units 2 pi/alat)
               b(1) = (  1.000000  0.000000  0.000000 )  
               b(2) = (  0.000000  1.000000  0.000000 )  
               b(3) = (  0.000000  0.000000  1.000000 )  


     PseudoPot. # 1 for Si read from file:
     /home/ppiaggi/pseudos/Si_ONCV_PBE_sr.upf
     MD5 check sum: 8553c464762ac42b85b1eed164b4d029
     Pseudo is Norm-conserving, Zval =  4.0
     Generated using ONCVPSP code by D. R. Hamann
     Using radial grid of 1510 points,  4 beta functions with: 
                l(1) =   0
                l(2) =   0
                l(3) =   1
                l(4) =   1

     atomic species   valence    mass     pseudopotential
        Si             4.00    28.08500     Si( 1.00)

     No symmetry found



   Cartesian axes

     site n.     atom                  positions (alat units)
         1           Si  tau(   1) = (   0.5931310   0.4464700   0.2276050  )
         2           Si  tau(   2) = (   0.4521070   0.8890030   0.7994160  )
         3           Si  tau(   3) = (   0.0074353   0.2681220   0.8458220  )
         4           Si  tau(   4) = (   0.0096875   0.2587740   0.5557460  )
         5           Si  tau(   5) = (   0.3410820   0.8419050   0.6218790  )
         6           Si  tau(   6) = (   0.7828380   0.9277620   0.9642140  )
         7           Si  tau(   7) = (   0.0035057   0.6502590   0.3082170  )
         8           Si  tau(   8) = (   0.0803700   0.4891440   0.6912830  )
         9           Si  tau(   9) = (   0.2601040   0.2486460   0.7210570  )
        10           Si  tau(  10) = (   0.3581300   0.6093330   0.6791960  )
        11           Si  tau(  11) = (   0.5642950   0.5879540   0.6847890  )
        12           Si  tau(  12) = (   0.0754193   0.4828650   0.9817170  )
        13           Si  tau(  13) = (   0.6350490   0.3352080   0.6343430  )
        14           Si  tau(  14) = (   0.3061300   0.4436570   0.8475080  )
        15           Si  tau(  15) = (   0.5476470   0.8810210   0.3828320  )
        16           Si  tau(  16) = (   0.9367770   0.6730030   0.0695338  )
        17           Si  tau(  17) = (   0.1726310   0.9680770   0.5922620  )
        18           Si  tau(  18) = (   0.0691380   0.1175710   0.7132680  )
        19           Si  tau(  19) = (   0.8133050   0.4511450   0.6069310  )
        20           Si  tau(  20) = (   0.1423530   0.2906120   0.3597240  )
        21           Si  tau(  21) = (   0.6442330   0.0860178   0.6912810  )
        22           Si  tau(  22) = (   0.9656990   0.9137680   0.1170750  )
        23           Si  tau(  23) = (   0.1294990   0.8387250   0.2825010  )
        24           Si  tau(  24) = (   0.3348250   0.0665637   0.1731330  )
        25           Si  tau(  25) = (   0.2431530   0.8737390   0.0712153  )
        26           Si  tau(  26) = (   0.5095750   0.0939048   0.3178930  )
        27           Si  tau(  27) = (   0.4032630   0.0946094   0.5372490  )
        28           Si  tau(  28) = (   0.2003970   0.5363360   0.3917940  )
        29           Si  tau(  29) = (   0.9859170   0.1537680   0.0755697  )
        30           Si  tau(  30) = (   0.3135790   0.3114840   0.5171040  )
        31           Si  tau(  31) = (   0.3458800   0.0836949   0.8431230  )
        32           Si  tau(  32) = (   0.9741970   0.9040630   0.8092080  )
        33           Si  tau(  33) = (   0.1858760   0.0485670   0.3860940  )
        34           Si  tau(  34) = (   0.9808250   0.4083880   0.1879970  )
        35           Si  tau(  35) = (   0.8048370   0.8861040   0.4673590  )
        36           Si  tau(  36) = (   0.1572510   0.6678010   0.5625050  )
        37           Si  tau(  37) = (   0.8347360   0.6194400   0.4491490  )
        38           Si  tau(  38) = (   0.5501830   0.6767120   0.1522000  )
        39           Si  tau(  39) = (   0.3459950   0.7039400   0.9123490  )
        40           Si  tau(  40) = (   0.8224740   0.1177320   0.5386940  )
        41           Si  tau(  41) = (   0.8767720   0.5379140   0.8181610  )
        42           Si  tau(  42) = (   0.3108430   0.6553270   0.1890820  )
        43           Si  tau(  43) = (   0.4990680   0.3602070   0.0410435  )
        44           Si  tau(  44) = (   0.5125730   0.3419430   0.4336630  )
        45           Si  tau(  45) = (   0.7738830   0.3149770   0.9496170  )
        46           Si  tau(  46) = (   0.6911430   0.1385230   0.9000400  )
        47           Si  tau(  47) = (   0.1072110   0.7355060   0.8978670  )
        48           Si  tau(  48) = (   0.1561960   0.0409419   0.9317050  )
        49           Si  tau(  49) = (   0.3527310   0.7938650   0.3902960  )
        50           Si  tau(  50) = (   0.8038580   0.9640460   0.2730610  )
        51           Si  tau(  51) = (   0.2803640   0.4431340   0.0673443  )
        52           Si  tau(  52) = (   0.9860230   0.8179640   0.5977430  )
        53           Si  tau(  53) = (   0.6155260   0.7608740   0.9214020  )
        54           Si  tau(  54) = (   0.4407740   0.5740430   0.4545700  )
        55           Si  tau(  55) = (   0.7490930   0.7301540   0.7334380  )
        56           Si  tau(  56) = (   0.7216320   0.1633760   0.3394050  )
        57           Si  tau(  57) = (   0.6068560   0.4285940   0.8805200  )
        58           Si  tau(  58) = (   0.6104470   0.8727990   0.6193950  )
        59           Si  tau(  59) = (   0.7853600   0.3176800   0.1654700  )
        60           Si  tau(  60) = (   0.6171440   0.9274390   0.1335750  )
        61           Si  tau(  61) = (   0.6358410   0.6747350   0.3620920  )
        62           Si  tau(  62) = (   0.4986250   0.1073050   0.0017980  )
        63           Si  tau(  63) = (   0.1925470   0.2269110   0.1171910  )
        64           Si  tau(  64) = (   0.7241910   0.5847700   0.0285838  )

     number of k points=     1  Fermi-Dirac smearing, width (Ry)=  0.0100
                       cart. coord. in units 2pi/alat
        k(    1) = (   0.0000000   0.0000000   0.0000000), wk =   2.0000000

     Dense  grid:    95532 G-vectors     FFT dimensions: (  72,  72,  72)

     Estimated max dynamical RAM per process >     152.37 MB

     Estimated total dynamical RAM >     586.14 MB

     Initial potential from superposition of free atoms

     starting charge     255.9608, renormalised to     256.0000
     Starting wfcs are  256 randomized atomic wfcs

     total cpu time spent up to now is        5.0 secs

     Self-consistent Calculation

     iteration #  1     ecut=    30.00 Ry     beta= 0.50
     Davidson diagonalization with overlap
     ethr =  1.00E-02,  avg # of iterations =  3.0

     Threshold (ethr) on eigenvalues was too large:
     Diagonalizing with lowered threshold

     Davidson diagonalization with overlap
     ethr =  4.47E-04,  avg # of iterations =  4.0

     total cpu time spent up to now is        5.3 secs

     total energy              =    -501.17293174 Ry
     estimated scf accuracy    <       1.38770663 Ry

     iteration #  2     ecut=    30.00 Ry     beta= 0.50
     Davidson diagonalization with overlap
     ethr =  5.42E-04,  avg # of iterations =  5.0

     total cpu time spent up to now is        5.5 secs

     total energy              =    -500.56387655 Ry
     estimated scf accuracy    <       7.72354484 Ry

     iteration #  3     ecut=    30.00 Ry     beta= 0.50
     Davidson diagonalization with overlap
     ethr =  5.42E-04,  avg # of iterations =  5.0

     total cpu time spent up to now is        5.6 secs

     total energy              =    -501.26180111 Ry
     estimated scf accuracy    <       2.35913194 Ry

     iteration #  4     ecut=    30.00 Ry     beta= 0.50
     Davidson diagonalization with overlap
     ethr =  5.42E-04,  avg # of iterations =  2.0

     total cpu time spent up to now is        5.7 secs

     total energy              =    -501.39873782 Ry
     estimated scf accuracy    <       0.93590760 Ry

     iteration #  5     ecut=    30.00 Ry     beta= 0.50
     Davidson diagonalization with overlap
     ethr =  3.66E-04,  avg # of iterations =  2.0

     total cpu time spent up to now is        5.8 secs

     total energy              =    -501.44763050 Ry
     estimated scf accuracy    <       0.72426175 Ry

     iteration #  6     ecut=    30.00 Ry     beta= 0.50
     Davidson diagonalization with overlap
     ethr =  2.83E-04,  avg # of iterations =  1.0

     total cpu time spent up to now is        5.9 secs

     total energy              =    -501.50768955 Ry
     estimated scf accuracy    <       0.05020795 Ry

     iteration #  7     ecut=    30.00 Ry     beta= 0.50
     Davidson diagonalization with overlap
     ethr =  1.96E-05,  avg # of iterations = 15.0

     total cpu time spent up to now is        6.0 secs

     total energy              =    -501.51461249 Ry
     estimated scf accuracy    <       0.05788811 Ry

     iteration #  8     ecut=    30.00 Ry     beta= 0.50
     Davidson diagonalization with overlap
     ethr =  1.96E-05,  avg # of iterations =  2.0

     total cpu time spent up to now is        6.1 secs

     total energy              =    -501.52024156 Ry
     estimated scf accuracy    <       0.01694952 Ry

     iteration #  9     ecut=    30.00 Ry     beta= 0.50
     Davidson diagonalization with overlap
     ethr =  6.62E-06,  avg # of iterations =  3.0

     total cpu time spent up to now is        6.2 secs

     total energy              =    -501.52157825 Ry
     estimated scf accuracy    <       0.00286652 Ry

     iteration # 10     ecut=    30.00 Ry     beta= 0.50
     Davidson diagonalization with overlap
     ethr =  1.12E-06,  avg # of iterations =  8.0

     total cpu time spent up to now is        6.4 secs

     total energy              =    -501.52180442 Ry
     estimated scf accuracy    <       0.00370235 Ry

     iteration # 11     ecut=    30.00 Ry     beta= 0.50
     Davidson diagonalization with overlap
     ethr =  1.12E-06,  avg # of iterations =  2.0

     total cpu time spent up to now is        6.5 secs

     total energy              =    -501.52209964 Ry
     estimated scf accuracy    <       0.00027229 Ry

     iteration # 12     ecut=    30.00 Ry     beta= 0.50
     Davidson diagonalization with overlap
     ethr =  1.06E-07,  avg # of iterations =  4.0

     total cpu time spent up to now is        6.6 secs

     total energy              =    -501.52213651 Ry
     estimated scf accuracy    <       0.00031480 Ry

     iteration # 13     ecut=    30.00 Ry     beta= 0.50
     Davidson diagonalization with overlap
     ethr =  1.06E-07,  avg # of iterations =  3.0

     total cpu time spent up to now is        6.7 secs

     total energy              =    -501.52215596 Ry
     estimated scf accuracy    <       0.00032657 Ry

     iteration # 14     ecut=    30.00 Ry     beta= 0.50
     Davidson diagonalization with overlap
     ethr =  1.06E-07,  avg # of iterations =  1.0

     total cpu time spent up to now is        6.8 secs

     total energy              =    -501.52217204 Ry
     estimated scf accuracy    <       0.00003770 Ry

     iteration # 15     ecut=    30.00 Ry     beta= 0.50
     Davidson diagonalization with overlap
     ethr =  1.47E-08,  avg # of iterations =  4.0

     total cpu time spent up to now is        6.9 secs

     total energy              =    -501.52217691 Ry
     estimated scf accuracy    <       0.00005324 Ry

     iteration # 16     ecut=    30.00 Ry     beta= 0.50
     Davidson diagonalization with overlap
     ethr =  1.47E-08,  avg # of iterations =  2.0

     total cpu time spent up to now is        7.0 secs

     total energy              =    -501.52218026 Ry
     estimated scf accuracy    <       0.00001111 Ry

     iteration # 17     ecut=    30.00 Ry     beta= 0.50
     Davidson diagonalization with overlap
     ethr =  4.34E-09,  avg # of iterations =  2.0

     total cpu time spent up to now is        7.1 secs

     total energy              =    -501.52218117 Ry
     estimated scf accuracy    <       0.00000325 Ry

     iteration # 18     ecut=    30.00 Ry     beta= 0.50
     Davidson diagonalization with overlap
     ethr =  1.27E-09,  avg # of iterations =  3.0

     total cpu time spent up to now is        7.2 secs

     total energy              =    -501.52218145 Ry
     estimated scf accuracy    <       0.00000272 Ry

     iteration # 19     ecut=    30.00 Ry     beta= 0.50
     Davidson diagonalization with overlap
     ethr =  1.06E-09,  avg # of iterations =  2.0

     total cpu time spent up to now is        7.3 secs

     End of self-consistent calculation

          k = 0.0000 0.0000 0.0000 ( 11924 PWs)   bands (ev):

    -5.6833  -4.8837  -4.8750  -4.5428  -4.4149  -4.3121  -4.2028  -3.8874
    -3.7943  -3.6548  -3.5286  -3.4153  -3.3725  -3.2928  -3.2058  -3.1364
    -3.0456  -2.9397  -2.8523  -2.6178  -2.4695  -2.3369  -2.2577  -2.1312
    -2.0812  -2.0233  -1.7647  -1.3426  -1.2357  -1.1236  -1.0307  -0.8303
    -0.7899  -0.7120  -0.6222  -0.6048  -0.4223  -0.3256  -0.2571  -0.1798
    -0.1655  -0.0705   0.0300   0.1125   0.1360   0.1880   0.2217   0.4123
     0.5103   0.6403   0.7592   0.7906   0.8730   0.9313   1.0507   1.0561
     1.1467   1.2479   1.4838   1.5854   1.7249   1.8414   1.9700   2.0713
     2.1611   2.2119   2.3000   2.3711   2.4329   2.4731   2.5494   2.6390
     2.6802   2.7304   2.8078   2.8989   2.9793   3.0686   3.1211   3.3843
     3.3917   3.6301   3.7753   3.8570   3.8665   3.9739   4.0376   4.0864
     4.1352   4.1680   4.3101   4.3726   4.4330   4.4881   4.5146   4.5819
     4.6526   4.7026   4.7402   4.7699   4.8721   4.9032   5.0380   5.0873
     5.1270   5.1777   5.2584   5.2743   5.3268   5.4117   5.4192   5.5134
     5.5506   5.6228   5.7086   5.7663   5.8009   5.9085   5.9807   6.0349
     6.0855   6.1031   6.2080   6.2292   6.2735   6.3259   6.3840   6.4743
     6.5780   6.6529   6.7215   6.7599   6.7873   6.8656   6.8958   6.9630
     7.0006   7.1292   7.2118   7.2289   7.3324   7.3637   7.4126   7.5336
     7.6023   7.6410   7.7365   7.7462   7.8125   7.9634   8.0316   8.0696
     8.1278   8.1566

     the Fermi energy is     6.5215 ev

!    total energy              =    -501.52218106 Ry
     estimated scf accuracy    <       0.00000075 Ry
     smearing contrib. (-TS)   =      -0.14058336 Ry
     internal energy E=F+TS    =    -501.38159770 Ry

     The total energy is F=E-TS. E is the sum of the following terms:
     one-electron contribution =     164.39181079 Ry
     hartree contribution      =      30.44762431 Ry
     xc contribution           =    -149.69389907 Ry
     ewald contribution        =    -546.52713372 Ry

     convergence has been achieved in  19 iterations

     Forces acting on atoms (cartesian axes, Ry/au):

     atom    1 type  1   force =     0.03193438    0.01288412   -0.01070129
     atom    2 type  1   force =    -0.00684924   -0.01066192    0.01754741
     atom    3 type  1   force =    -0.03581210    0.05044902    0.06996737
     atom    4 type  1   force =    -0.03716298    0.02758460   -0.02404991
     atom    5 type  1   force =     0.01769585   -0.01899035   -0.03289130
     atom    6 type  1   force =     0.01420439    0.01013770   -0.01043559
     atom    7 type  1   force =     0.01701898   -0.02572091   -0.03370746
     atom    8 type  1   force =    -0.00581956   -0.02524726    0.02440204
     atom    9 type  1   force =    -0.01116610    0.03330635    0.01909012
     atom   10 type  1   force =    -0.03958422    0.00135207   -0.00006922
     atom   11 type  1   force =     0.05417727   -0.02003662    0.01380749
     atom   12 type  1   force =    -0.00272986   -0.00952249   -0.00584858
     atom   13 type  1   force =    -0.03645775   -0.00090277   -0.01778135
     atom   14 type  1   force =    -0.03847119   -0.00163296   -0.06015203
     atom   15 type  1   force =     0.02817324    0.00873114    0.02768055
     atom   16 type  1   force =    -0.00003689    0.00275411    0.01350478
     atom   17 type  1   force =    -0.01647050    0.00564846   -0.02862290
     atom   18 type  1   force =     0.02681287   -0.01706617   -0.00289737
     atom   19 type  1   force =     0.05634536    0.00939311    0.00792874
     atom   20 type  1   force =    -0.00079775    0.00639840    0.01256983
     atom   21 type  1   force =     0.01062323    0.02906407   -0.01758060
     atom   22 type  1   force =    -0.02841675    0.01786700    0.01071952
     atom   23 type  1   force =     0.01558683    0.01533602   -0.01971838
     atom   24 type  1   force =     0.01539892   -0.00699930   -0.00113119
     atom   25 type  1   force =    -0.02154336   -0.02016330   -0.00254003
     atom   26 type  1   force =     0.00622270    0.00009963    0.02467750
     atom   27 type  1   force =     0.00003660   -0.01016847   -0.00943287
     atom   28 type  1   force =    -0.00501162   -0.00271703   -0.01982730
     atom   29 type  1   force =     0.02661618   -0.00870024   -0.03792991
     atom   30 type  1   force =    -0.01708544   -0.00981888   -0.01576003
     atom   31 type  1   force =     0.03231029   -0.01419816   -0.00675963
     atom   32 type  1   force =    -0.00036354   -0.01115712    0.00199846
     atom   33 type  1   force =     0.01164680   -0.01084077   -0.00218552
     atom   34 type  1   force =     0.03243198    0.02095896    0.00870132
     atom   35 type  1   force =     0.00543539   -0.03152882    0.05574946
     atom   36 type  1   force =    -0.00964705   -0.01098609    0.01545442
     atom   37 type  1   force =    -0.02257111    0.02872985    0.01130151
     atom   38 type  1   force =    -0.00466952   -0.00561765    0.00425865
     atom   39 type  1   force =    -0.01291252    0.03155312    0.01144630
     atom   40 type  1   force =    -0.01260133    0.01121646   -0.02121802
     atom   41 type  1   force =     0.00951988   -0.01283472   -0.01971176
     atom   42 type  1   force =     0.02432735    0.00065641    0.00769517
     atom   43 type  1   force =    -0.07117594   -0.04939548    0.04066239
     atom   44 type  1   force =     0.01149510    0.01556848    0.00674738
     atom   45 type  1   force =     0.07695516    0.03546880   -0.01659543
     atom   46 type  1   force =    -0.01398614   -0.12930183   -0.02127947
     atom   47 type  1   force =    -0.00017539   -0.00576321    0.03108411
     atom   48 type  1   force =    -0.04257173   -0.01248838    0.03202060
     atom   49 type  1   force =    -0.03482413   -0.02752418    0.01763075
     atom   50 type  1   force =    -0.00755465    0.01643594   -0.05203033
     atom   51 type  1   force =     0.00320338   -0.01063562    0.00183283
     atom   52 type  1   force =     0.00636441    0.00934677   -0.00517502
     atom   53 type  1   force =     0.02609041    0.01697604    0.01183027
     atom   54 type  1   force =    -0.01046551   -0.01074117    0.01947435
     atom   55 type  1   force =    -0.00833630   -0.01171471    0.01015804
     atom   56 type  1   force =     0.01572354   -0.00631720   -0.02562462
     atom   57 type  1   force =     0.02860637    0.07048431   -0.05941710
     atom   58 type  1   force =     0.00851047    0.01426406   -0.02244618
     atom   59 type  1   force =    -0.02833448    0.00722107    0.04620652
     atom   60 type  1   force =     0.00392975   -0.00430011   -0.01015121
     atom   61 type  1   force =    -0.00991723   -0.01069373   -0.00928041
     atom   62 type  1   force =    -0.01650063    0.03047633    0.02309891
     atom   63 type  1   force =    -0.00876471    0.01863482    0.02857718
     atom   64 type  1   force =     0.00139013    0.00539041   -0.00487195

     Total force =     0.353079     Total SCF correction =     0.001680


     Computing stress (Cartesian axis) and pressure

          total   stress  (Ry/bohr**3)                   (kbar)     P=      -50.38
  -0.00027109  -0.00000873   0.00001751          -39.88       -1.28        2.58
  -0.00000873  -0.00045174   0.00003329           -1.28      -66.45        4.90
   0.00001751   0.00003329  -0.00030457            2.58        4.90      -44.80

 
     init_run     :      1.11s CPU      4.96s WALL (       1 calls)
     electrons    :      2.11s CPU      2.25s WALL (       1 calls)
     forces       :      0.03s CPU      0.04s WALL (       1 calls)
     stress       :      0.16s CPU      0.16s WALL (       1 calls)

     Called by init_run:
     wfcinit      :      0.57s CPU      4.23s WALL (       1 calls)
                                        4.23s GPU  (       1 calls)
     potinit      :      0.06s CPU      0.15s WALL (       1 calls)
     hinit0       :      0.46s CPU      0.50s WALL (       1 calls)

     Called by electrons:
     c_bands      :      1.25s CPU      1.32s WALL (      20 calls)
     sum_band     :      0.41s CPU      0.44s WALL (      20 calls)
     v_of_rho     :      0.20s CPU      0.30s WALL (      20 calls)
     mix_rho      :      0.20s CPU      0.22s WALL (      20 calls)

     Called by c_bands:
     init_us_2    :      0.07s CPU      0.08s WALL (      41 calls)
     init_us_2:gp :      0.07s CPU      0.08s WALL (      41 calls)
     regterg      :      1.08s CPU      1.14s WALL (      20 calls)

     Called by *egterg:
     rdiaghg      :      0.46s CPU      1.22s WALL (      92 calls)
                                        1.20s GPU  (      92 calls)
     h_psi        :      0.99s CPU      3.95s WALL (      94 calls)
                                        3.94s GPU  (      94 calls)
     g_psi        :      0.00s CPU      0.00s WALL (      73 calls)
                                        0.00s GPU  (      73 calls)

     Called by h_psi:
     h_psi:calbec :      0.53s CPU      3.41s WALL (      94 calls)
                                        3.41s GPU  (      94 calls)
     vloc_psi     :      0.40s CPU      0.47s WALL (      94 calls)
                                        0.47s GPU  (      94 calls)
     add_vuspsi   :      0.04s CPU      0.06s WALL (      94 calls)
                                        0.05s GPU  (      94 calls)

     General routines
     calbec       :      0.54s CPU      3.41s WALL (      99 calls)
     fft          :      0.64s CPU      0.77s WALL (     167 calls)
                                        0.14s GPU  (     106 calls)
     ffts         :      0.05s CPU      0.06s WALL (      20 calls)
     fftw         :      0.49s CPU      0.64s WALL (    2110 calls)
                                        0.56s GPU  (    2110 calls)
 
     Parallel routines
 
     PWSCF        :      3.45s CPU      7.49s WALL

 
   This run was terminated on:  11: 6:36  10May2023            

=------------------------------------------------------------------------------=
   JOB DONE.
=------------------------------------------------------------------------------=
