An instance of this daemon is already running

     Program PWSCF v.7.1 starts on 10May2023 at 11: 6: 9 

     This program is part of the open-source Quantum ESPRESSO suite
     for quantum simulation of materials; please cite
         "P. Giannozzi et al., J. Phys.:Condens. Matter 21 395502 (2009);
         "P. Giannozzi et al., J. Phys.:Condens. Matter 29 465901 (2017);
         "P. Giannozzi et al., J. Chem. Phys. 152 154105 (2020);
          URL http://www.quantum-espresso.org", 
     in publications or presentations arising from this work. More details at
     http://www.quantum-espresso.org/quote

     Parallel version (MPI & OpenMP), running on       4 processor cores
     Number of MPI processes:                 4
     Threads/MPI process:                     1

     MPI processes distributed on     1 nodes
     753578 MiB available memory on the printing compute node when the environment starts
 
     Reading input from pw-si-75.in
Warning: card &CELL ignored
Warning: card / ignored

     Current dimensions of program PWSCF are:
     Max number of different atomic species (ntypx) = 10
     Max number of k-points (npk) =  40000
     Max angular momentum in pseudopotentials (lmaxx) =  4

     IMPORTANT: XC functional enforced from input :
     Exchange-correlation= PBE
                           (   1   4   3   4   0   0   0)
     Any further DFT definition will be discarded
     Please, verify this is what you really want


     gamma-point specific algorithms are used
 
     K-points division:     npool     =       2
     R & G space division:  proc/nbgrp/npool/nimage =       2
     Subspace diagonalization in iterative solution of the eigenvalue problem:
     a serial algorithm will be used

     Message from routine divide_et_impera:
     suboptimal parallelization: some nodes have no k-points
 
     Parallelization info
     --------------------
     sticks:   dense  smooth     PW     G-vecs:    dense   smooth      PW
     Min        1997    1997    524                95411    95411   12860
     Max        2004    2004    525                95412    95412   12865
     Sum        4001    4001   1049               190823   190823   25725
 
     Using Slab Decomposition
 


     bravais-lattice index     =            0
     lattice parameter (alat)  =      20.4732  a.u.
     unit-cell volume          =    8581.4245 (a.u.)^3
     number of atoms/cell      =           64
     number of atomic types    =            1
     number of electrons       =       256.00
     number of Kohn-Sham states=          154
     kinetic-energy cutoff     =      30.0000  Ry
     charge density cutoff     =     120.0000  Ry
     scf convergence threshold =      1.0E-06
     mixing beta               =       0.5000
     number of iterations used =            8  plain     mixing
     Exchange-correlation= PBE
                           (   1   4   3   4   0   0   0)

     GPU acceleration is ACTIVE.
     GPU-aware MPI enabled

     Message from routine print_cuda_info:
     High GPU oversubscription detected. Are you sure this is what you want?

     celldm(1)=  20.473235  celldm(2)=   0.000000  celldm(3)=   0.000000
     celldm(4)=   0.000000  celldm(5)=   0.000000  celldm(6)=   0.000000

     crystal axes: (cart. coord. in units of alat)
               a(1) = (   1.000000   0.000000   0.000000 )  
               a(2) = (   0.000000   1.000000   0.000000 )  
               a(3) = (   0.000000   0.000000   1.000000 )  

     reciprocal axes: (cart. coord. in units 2 pi/alat)
               b(1) = (  1.000000  0.000000  0.000000 )  
               b(2) = (  0.000000  1.000000  0.000000 )  
               b(3) = (  0.000000  0.000000  1.000000 )  


     PseudoPot. # 1 for Si read from file:
     /home/ppiaggi/pseudos/Si_ONCV_PBE_sr.upf
     MD5 check sum: 8553c464762ac42b85b1eed164b4d029
     Pseudo is Norm-conserving, Zval =  4.0
     Generated using ONCVPSP code by D. R. Hamann
     Using radial grid of 1510 points,  4 beta functions with: 
                l(1) =   0
                l(2) =   0
                l(3) =   1
                l(4) =   1

     atomic species   valence    mass     pseudopotential
        Si             4.00    28.08500     Si( 1.00)

     No symmetry found



   Cartesian axes

     site n.     atom                  positions (alat units)
         1           Si  tau(   1) = (   0.5634990   0.7680820   0.7706790  )
         2           Si  tau(   2) = (   0.9687160   0.9182460   0.6551460  )
         3           Si  tau(   3) = (   0.5813830   0.6836210   0.2089420  )
         4           Si  tau(   4) = (   0.0557284   0.6030280   0.2941750  )
         5           Si  tau(   5) = (   0.2333030   0.8278770   0.6047190  )
         6           Si  tau(   6) = (   0.8723480   0.4689340   0.3350610  )
         7           Si  tau(   7) = (   0.1841930   0.8270270   0.0516483  )
         8           Si  tau(   8) = (   0.2573880   0.3787400   0.6651840  )
         9           Si  tau(   9) = (   0.3259750   0.4745430   0.0902789  )
        10           Si  tau(  10) = (   0.6486710   0.3697780   0.0936828  )
        11           Si  tau(  11) = (   0.1757670   0.6113120   0.5014870  )
        12           Si  tau(  12) = (   0.7173840   0.9793160   0.4154180  )
        13           Si  tau(  13) = (   0.4920550   0.4755850   0.2211310  )
        14           Si  tau(  14) = (   0.8816030   0.7223360   0.6304840  )
        15           Si  tau(  15) = (   0.4597820   0.7913550   0.5261850  )
        16           Si  tau(  16) = (   0.0478482   0.5701030   0.6872310  )
        17           Si  tau(  17) = (   0.1462300   0.3832180   0.2951350  )
        18           Si  tau(  18) = (   0.6821940   0.8865440   0.9182930  )
        19           Si  tau(  19) = (   0.8508290   0.7604230   0.3854430  )
        20           Si  tau(  20) = (   0.7510140   0.7221380   0.0493476  )
        21           Si  tau(  21) = (   0.4027680   0.6915770   0.8866380  )
        22           Si  tau(  22) = (   0.9481040   0.5364320   0.0105856  )
        23           Si  tau(  23) = (   0.7494260   0.2737760   0.3274770  )
        24           Si  tau(  24) = (   0.0968554   0.2010420   0.1507600  )
        25           Si  tau(  25) = (   0.0006054   0.3848140   0.5301270  )
        26           Si  tau(  26) = (   0.0519917   0.8928070   0.4132510  )
        27           Si  tau(  27) = (   0.9646000   0.1442860   0.5877770  )
        28           Si  tau(  28) = (   0.4606630   0.3924710   0.7347700  )
        29           Si  tau(  29) = (   0.2566480   0.2774890   0.4841210  )
        30           Si  tau(  30) = (   0.9546470   0.1071240   0.9242740  )
        31           Si  tau(  31) = (   0.1675550   0.0052640   0.2360600  )
        32           Si  tau(  32) = (   0.4900390   0.5022060   0.9252820  )
        33           Si  tau(  33) = (   0.8189400   0.9900070   0.7785660  )
        34           Si  tau(  34) = (   0.1945090   0.7225220   0.8253800  )
        35           Si  tau(  35) = (   0.6511990   0.0732348   0.6107970  )
        36           Si  tau(  36) = (   0.3338330   0.2268900   0.0470867  )
        37           Si  tau(  37) = (   0.4598930   0.1942980   0.2186940  )
        38           Si  tau(  38) = (   0.4829730   0.9537330   0.6958560  )
        39           Si  tau(  39) = (   0.9144020   0.1008310   0.3751190  )
        40           Si  tau(  40) = (   0.6766130   0.6296200   0.5972870  )
        41           Si  tau(  41) = (   0.7002930   0.5737590   0.3856130  )
        42           Si  tau(  42) = (   0.5202300   0.0001455   0.9988410  )
        43           Si  tau(  43) = (   0.3657660   0.0386604   0.3410020  )
        44           Si  tau(  44) = (   0.7021430   0.2088120   0.8166620  )
        45           Si  tau(  45) = (   0.4847330   0.1523140   0.8465560  )
        46           Si  tau(  46) = (   0.9289330   0.7735920   0.1753700  )
        47           Si  tau(  47) = (   0.4090310   0.8237980   0.0924653  )
        48           Si  tau(  48) = (   0.4621000   0.3592550   0.4216240  )
        49           Si  tau(  49) = (   0.1148890   0.9397690   0.8553060  )
        50           Si  tau(  50) = (   0.9253810   0.0001327   0.1478850  )
        51           Si  tau(  51) = (   0.3923040   0.5747180   0.5258010  )
        52           Si  tau(  52) = (   0.8934060   0.4687620   0.7814640  )
        53           Si  tau(  53) = (   0.2677430   0.0724856   0.7728930  )
        54           Si  tau(  54) = (   0.1339850   0.6138720   0.1014230  )
        55           Si  tau(  55) = (   0.6818080   0.4210770   0.6661040  )
        56           Si  tau(  56) = (   0.5130530   0.8660910   0.3371450  )
        57           Si  tau(  57) = (   0.1742480   0.2495850   0.8386730  )
        58           Si  tau(  58) = (   0.6331070   0.2815410   0.5247970  )
        59           Si  tau(  59) = (   0.6307150   0.0881174   0.2149620  )
        60           Si  tau(  60) = (   0.9099930   0.3512210   0.1370990  )
        61           Si  tau(  61) = (   0.7654610   0.1740490   0.0526211  )
        62           Si  tau(  62) = (   0.6971890   0.5767750   0.9114590  )
        63           Si  tau(  63) = (   0.1982220   0.0579180   0.5433220  )
        64           Si  tau(  64) = (   0.9553190   0.2698320   0.7692280  )

     number of k points=     1  Fermi-Dirac smearing, width (Ry)=  0.0100
                       cart. coord. in units 2pi/alat
        k(    1) = (   0.0000000   0.0000000   0.0000000), wk =   2.0000000

     Dense  grid:    95412 G-vectors     FFT dimensions: (  72,  72,  72)

     Estimated max dynamical RAM per process >     152.13 MB

     Estimated total dynamical RAM >     585.21 MB

     Initial potential from superposition of free atoms

     starting charge     255.9608, renormalised to     256.0000
     Starting wfcs are  256 randomized atomic wfcs

     total cpu time spent up to now is        5.0 secs

     Self-consistent Calculation

     iteration #  1     ecut=    30.00 Ry     beta= 0.50
     Davidson diagonalization with overlap
     ethr =  1.00E-02,  avg # of iterations =  3.0

     Threshold (ethr) on eigenvalues was too large:
     Diagonalizing with lowered threshold

     Davidson diagonalization with overlap
     ethr =  4.31E-04,  avg # of iterations =  4.0

     total cpu time spent up to now is        5.3 secs

     total energy              =    -501.38675597 Ry
     estimated scf accuracy    <       1.31571056 Ry

     iteration #  2     ecut=    30.00 Ry     beta= 0.50
     Davidson diagonalization with overlap
     ethr =  5.14E-04,  avg # of iterations =  4.0

     total cpu time spent up to now is        5.4 secs

     total energy              =    -501.05842740 Ry
     estimated scf accuracy    <       3.03966171 Ry

     iteration #  3     ecut=    30.00 Ry     beta= 0.50
     Davidson diagonalization with overlap
     ethr =  5.14E-04,  avg # of iterations =  3.0

     total cpu time spent up to now is        5.5 secs

     total energy              =    -501.33267725 Ry
     estimated scf accuracy    <       3.07660127 Ry

     iteration #  4     ecut=    30.00 Ry     beta= 0.50
     Davidson diagonalization with overlap
     ethr =  5.14E-04,  avg # of iterations =  2.0

     total cpu time spent up to now is        5.6 secs

     total energy              =    -501.53418259 Ry
     estimated scf accuracy    <       0.55701356 Ry

     iteration #  5     ecut=    30.00 Ry     beta= 0.50
     Davidson diagonalization with overlap
     ethr =  2.18E-04,  avg # of iterations =  2.0

     total cpu time spent up to now is        5.7 secs

     total energy              =    -501.56534663 Ry
     estimated scf accuracy    <       0.50484784 Ry

     iteration #  6     ecut=    30.00 Ry     beta= 0.50
     Davidson diagonalization with overlap
     ethr =  1.97E-04,  avg # of iterations =  2.0

     total cpu time spent up to now is        5.8 secs

     total energy              =    -501.60902012 Ry
     estimated scf accuracy    <       0.07169525 Ry

     iteration #  7     ecut=    30.00 Ry     beta= 0.50
     Davidson diagonalization with overlap
     ethr =  2.80E-05,  avg # of iterations = 15.0

     total cpu time spent up to now is        5.9 secs

     total energy              =    -501.61899005 Ry
     estimated scf accuracy    <       0.01112944 Ry

     iteration #  8     ecut=    30.00 Ry     beta= 0.50
     Davidson diagonalization with overlap
     ethr =  4.35E-06,  avg # of iterations = 18.0

     total cpu time spent up to now is        6.2 secs

     total energy              =    -501.61900666 Ry
     estimated scf accuracy    <       0.02524094 Ry

     iteration #  9     ecut=    30.00 Ry     beta= 0.50
     Davidson diagonalization with overlap
     ethr =  4.35E-06,  avg # of iterations =  2.0

     total cpu time spent up to now is        6.3 secs

     total energy              =    -501.62110968 Ry
     estimated scf accuracy    <       0.00275730 Ry

     iteration # 10     ecut=    30.00 Ry     beta= 0.50
     Davidson diagonalization with overlap
     ethr =  1.08E-06,  avg # of iterations =  2.0

     total cpu time spent up to now is        6.4 secs

     total energy              =    -501.62138255 Ry
     estimated scf accuracy    <       0.00048110 Ry

     iteration # 11     ecut=    30.00 Ry     beta= 0.50
     Davidson diagonalization with overlap
     ethr =  1.88E-07,  avg # of iterations =  3.0

     total cpu time spent up to now is        6.5 secs

     total energy              =    -501.62141275 Ry
     estimated scf accuracy    <       0.00041823 Ry

     iteration # 12     ecut=    30.00 Ry     beta= 0.50
     Davidson diagonalization with overlap
     ethr =  1.63E-07,  avg # of iterations =  3.0

     total cpu time spent up to now is        6.6 secs

     total energy              =    -501.62144690 Ry
     estimated scf accuracy    <       0.00030964 Ry

     iteration # 13     ecut=    30.00 Ry     beta= 0.50
     Davidson diagonalization with overlap
     ethr =  1.21E-07,  avg # of iterations =  2.0

     total cpu time spent up to now is        6.7 secs

     total energy              =    -501.62146254 Ry
     estimated scf accuracy    <       0.00017756 Ry

     iteration # 14     ecut=    30.00 Ry     beta= 0.50
     Davidson diagonalization with overlap
     ethr =  6.94E-08,  avg # of iterations =  1.0

     total cpu time spent up to now is        6.7 secs

     total energy              =    -501.62147570 Ry
     estimated scf accuracy    <       0.00001239 Ry

     iteration # 15     ecut=    30.00 Ry     beta= 0.50
     Davidson diagonalization with overlap
     ethr =  4.84E-09,  avg # of iterations =  4.0

     total cpu time spent up to now is        6.9 secs

     total energy              =    -501.62147790 Ry
     estimated scf accuracy    <       0.00001622 Ry

     iteration # 16     ecut=    30.00 Ry     beta= 0.50
     Davidson diagonalization with overlap
     ethr =  4.84E-09,  avg # of iterations =  2.0

     total cpu time spent up to now is        7.0 secs

     total energy              =    -501.62147890 Ry
     estimated scf accuracy    <       0.00000651 Ry

     iteration # 17     ecut=    30.00 Ry     beta= 0.50
     Davidson diagonalization with overlap
     ethr =  2.54E-09,  avg # of iterations =  2.0

     total cpu time spent up to now is        7.1 secs

     total energy              =    -501.62147946 Ry
     estimated scf accuracy    <       0.00000260 Ry

     iteration # 18     ecut=    30.00 Ry     beta= 0.50
     Davidson diagonalization with overlap
     ethr =  1.02E-09,  avg # of iterations =  2.0

     total cpu time spent up to now is        7.1 secs

     End of self-consistent calculation

          k = 0.0000 0.0000 0.0000 ( 11924 PWs)   bands (ev):

    -5.7295  -4.9087  -4.7993  -4.6798  -4.6091  -4.4300  -4.3368  -3.9890
    -3.8586  -3.7182  -3.6729  -3.6053  -3.5240  -3.4178  -3.3655  -3.2819
    -3.1912  -3.0889  -2.9168  -2.7977  -2.6402  -2.4877  -2.3472  -2.0629
    -1.9557  -1.8099  -1.6403  -1.6320  -1.4818  -1.2995  -1.2805  -1.0610
    -0.9030  -0.8440  -0.7300  -0.6653  -0.4630  -0.4174  -0.3605  -0.2492
    -0.1880  -0.1276  -0.0899   0.0139   0.1224   0.1745   0.2584   0.3513
     0.3914   0.4386   0.5770   0.6678   0.8410   0.9015   1.0046   1.1896
     1.2942   1.3924   1.4849   1.5972   1.7971   1.8479   1.9263   2.0103
     2.0608   2.1511   2.2312   2.2773   2.4344   2.4937   2.5500   2.6026
     2.6533   2.7306   2.7912   2.9235   3.0277   3.0798   3.1729   3.2113
     3.3269   3.4213   3.6160   3.6857   3.7892   3.8595   3.9187   4.0047
     4.0777   4.1388   4.1561   4.2529   4.3345   4.4088   4.4755   4.5657
     4.5856   4.6426   4.7226   4.8065   4.8208   4.8448   4.8774   5.0506
     5.1078   5.1545   5.1973   5.2269   5.3074   5.3588   5.4178   5.4768
     5.5225   5.5655   5.6482   5.6796   5.7435   5.8179   5.9216   5.9935
     6.0953   6.1347   6.1851   6.2574   6.3134   6.3913   6.4120   6.4826
     6.5403   6.5783   6.6668   6.7327   6.8106   6.8889   6.9259   6.9810
     7.0046   7.0901   7.1639   7.1931   7.2780   7.3631   7.4002   7.4433
     7.5265   7.6443   7.6802   7.8045   7.8673   7.9125   8.0053   8.0894
     8.1637   8.1817

     the Fermi energy is     6.5171 ev

!    total energy              =    -501.62147920 Ry
     estimated scf accuracy    <       0.00000066 Ry
     smearing contrib. (-TS)   =      -0.14706367 Ry
     internal energy E=F+TS    =    -501.47441553 Ry

     The total energy is F=E-TS. E is the sum of the following terms:
     one-electron contribution =     159.97239068 Ry
     hartree contribution      =      32.58751174 Ry
     xc contribution           =    -150.46509624 Ry
     ewald contribution        =    -543.56922171 Ry

     convergence has been achieved in  18 iterations

     Forces acting on atoms (cartesian axes, Ry/au):

     atom    1 type  1   force =     0.03483613   -0.01667408   -0.01092240
     atom    2 type  1   force =     0.04923676   -0.00353610   -0.00387835
     atom    3 type  1   force =    -0.00017630    0.01191194    0.01245045
     atom    4 type  1   force =    -0.01151833   -0.02414043    0.07645905
     atom    5 type  1   force =     0.00823418   -0.01814065   -0.01010700
     atom    6 type  1   force =     0.06929628   -0.02802108    0.00589519
     atom    7 type  1   force =     0.01093773    0.02209324    0.00682342
     atom    8 type  1   force =    -0.00994394    0.03271389    0.04549917
     atom    9 type  1   force =    -0.02731268   -0.03129133   -0.02014728
     atom   10 type  1   force =     0.00525124    0.01516118   -0.00316525
     atom   11 type  1   force =    -0.01896112    0.01576938   -0.00524195
     atom   12 type  1   force =    -0.00178351   -0.02375090   -0.02165603
     atom   13 type  1   force =     0.03637287   -0.00019181    0.03800247
     atom   14 type  1   force =    -0.00763333   -0.03316297   -0.03974139
     atom   15 type  1   force =    -0.02841747   -0.02107759    0.04830293
     atom   16 type  1   force =     0.03737355    0.04858035   -0.03633186
     atom   17 type  1   force =     0.00316925   -0.02480227    0.02133978
     atom   18 type  1   force =     0.01830343   -0.02708771   -0.01091901
     atom   19 type  1   force =     0.01103768    0.02132482    0.02023942
     atom   20 type  1   force =     0.00238445    0.03443126    0.04626534
     atom   21 type  1   force =    -0.01998786    0.02565320    0.01658213
     atom   22 type  1   force =    -0.02614341   -0.02134947   -0.02624420
     atom   23 type  1   force =     0.02386909   -0.03563670   -0.00773759
     atom   24 type  1   force =     0.01227678    0.02155173   -0.00654520
     atom   25 type  1   force =     0.01355339   -0.01611186   -0.02202493
     atom   26 type  1   force =     0.00572297    0.01503209   -0.00227270
     atom   27 type  1   force =     0.05130108    0.01308713   -0.02507906
     atom   28 type  1   force =     0.02879497    0.00744569    0.01400203
     atom   29 type  1   force =    -0.01429858   -0.01578383   -0.07276486
     atom   30 type  1   force =    -0.00132943   -0.02052076    0.02951708
     atom   31 type  1   force =    -0.01304238   -0.03680467   -0.00106734
     atom   32 type  1   force =    -0.02112396   -0.02762716    0.00951623
     atom   33 type  1   force =    -0.05669274    0.03715191    0.03827912
     atom   34 type  1   force =    -0.00110098   -0.00160722   -0.03661936
     atom   35 type  1   force =     0.00189714    0.00110770    0.00004558
     atom   36 type  1   force =    -0.04885102    0.03389701   -0.03211892
     atom   37 type  1   force =    -0.05866167    0.04300662    0.05082182
     atom   38 type  1   force =    -0.02788872    0.01962114   -0.02240107
     atom   39 type  1   force =    -0.03715340   -0.00230458   -0.02100264
     atom   40 type  1   force =     0.00107108    0.02866404    0.03127300
     atom   41 type  1   force =    -0.03974803    0.04979094   -0.02055421
     atom   42 type  1   force =    -0.00022479   -0.00430662    0.03795612
     atom   43 type  1   force =    -0.03155584   -0.00799257    0.00646557
     atom   44 type  1   force =     0.02492370   -0.00540677    0.00934836
     atom   45 type  1   force =    -0.03418319    0.01030352    0.00272309
     atom   46 type  1   force =    -0.00345740    0.02186579    0.00252439
     atom   47 type  1   force =    -0.01422873   -0.00148865   -0.04944633
     atom   48 type  1   force =    -0.03902567    0.01411695   -0.03696090
     atom   49 type  1   force =    -0.01716357   -0.01198384    0.01165523
     atom   50 type  1   force =     0.01534992    0.00585937    0.01702743
     atom   51 type  1   force =     0.00997178   -0.02886047    0.00122835
     atom   52 type  1   force =    -0.06656895    0.02376071    0.05962255
     atom   53 type  1   force =     0.04616017   -0.02987666   -0.04959412
     atom   54 type  1   force =     0.03780435    0.01546032   -0.03755237
     atom   55 type  1   force =     0.00614641    0.03061214    0.06455857
     atom   56 type  1   force =     0.03123413    0.00870891   -0.01043908
     atom   57 type  1   force =    -0.02967990    0.04280583    0.00789920
     atom   58 type  1   force =    -0.00113071   -0.05318661   -0.04053498
     atom   59 type  1   force =     0.08223160   -0.01952761   -0.01604992
     atom   60 type  1   force =    -0.00593482   -0.01245680    0.00120087
     atom   61 type  1   force =     0.00583517    0.02166131   -0.00930826
     atom   62 type  1   force =     0.00903876   -0.06233630   -0.03075852
     atom   63 type  1   force =    -0.00161978    0.02188927    0.00187457
     atom   64 type  1   force =     0.02292614   -0.04799334    0.00378861

     Total force =     0.395785     Total SCF correction =     0.001626


     Computing stress (Cartesian axis) and pressure

          total   stress  (Ry/bohr**3)                   (kbar)     P=      -31.08
  -0.00016934   0.00002149  -0.00005954          -24.91        3.16       -8.76
   0.00002149  -0.00019991   0.00003571            3.16      -29.41        5.25
  -0.00005954   0.00003571  -0.00026454           -8.76        5.25      -38.91

 
     init_run     :      1.10s CPU      4.94s WALL (       1 calls)
     electrons    :      1.97s CPU      2.12s WALL (       1 calls)
     forces       :      0.04s CPU      0.04s WALL (       1 calls)
     stress       :      0.16s CPU      0.16s WALL (       1 calls)

     Called by init_run:
     wfcinit      :      0.56s CPU      4.22s WALL (       1 calls)
                                        4.22s GPU  (       1 calls)
     potinit      :      0.05s CPU      0.14s WALL (       1 calls)
     hinit0       :      0.47s CPU      0.50s WALL (       1 calls)

     Called by electrons:
     c_bands      :      1.18s CPU      1.25s WALL (      19 calls)
     sum_band     :      0.38s CPU      0.42s WALL (      19 calls)
     v_of_rho     :      0.18s CPU      0.29s WALL (      19 calls)
     mix_rho      :      0.18s CPU      0.20s WALL (      19 calls)

     Called by c_bands:
     init_us_2    :      0.07s CPU      0.07s WALL (      39 calls)
     init_us_2:gp :      0.07s CPU      0.07s WALL (      39 calls)
     regterg      :      1.02s CPU      1.08s WALL (      19 calls)

     Called by *egterg:
     rdiaghg      :      0.44s CPU      1.20s WALL (      94 calls)
                                        1.18s GPU  (      94 calls)
     h_psi        :      0.95s CPU      3.89s WALL (      96 calls)
                                        3.89s GPU  (      96 calls)
     g_psi        :      0.00s CPU      0.00s WALL (      76 calls)
                                        0.00s GPU  (      76 calls)

     Called by h_psi:
     h_psi:calbec :      0.52s CPU      3.39s WALL (      96 calls)
                                        3.39s GPU  (      96 calls)
     vloc_psi     :      0.37s CPU      0.44s WALL (      96 calls)
                                        0.44s GPU  (      96 calls)
     add_vuspsi   :      0.04s CPU      0.05s WALL (      96 calls)
                                        0.05s GPU  (      96 calls)

     General routines
     calbec       :      0.53s CPU      3.39s WALL (     101 calls)
     fft          :      0.62s CPU      0.76s WALL (     159 calls)
                                        0.13s GPU  (     101 calls)
     ffts         :      0.05s CPU      0.06s WALL (      19 calls)
     fftw         :      0.46s CPU      0.60s WALL (    2015 calls)
                                        0.52s GPU  (    2015 calls)
 
     Parallel routines
 
     PWSCF        :      3.31s CPU      7.35s WALL

 
   This run was terminated on:  11: 6:16  10May2023            

=------------------------------------------------------------------------------=
   JOB DONE.
=------------------------------------------------------------------------------=
