An instance of this daemon is already running

     Program PWSCF v.7.1 starts on 10May2023 at 11: 0: 9 

     This program is part of the open-source Quantum ESPRESSO suite
     for quantum simulation of materials; please cite
         "P. Giannozzi et al., J. Phys.:Condens. Matter 21 395502 (2009);
         "P. Giannozzi et al., J. Phys.:Condens. Matter 29 465901 (2017);
         "P. Giannozzi et al., J. Chem. Phys. 152 154105 (2020);
          URL http://www.quantum-espresso.org", 
     in publications or presentations arising from this work. More details at
     http://www.quantum-espresso.org/quote

     Parallel version (MPI & OpenMP), running on       4 processor cores
     Number of MPI processes:                 4
     Threads/MPI process:                     1

     MPI processes distributed on     1 nodes
     753548 MiB available memory on the printing compute node when the environment starts
 
     Reading input from pw-si-38.in
Warning: card &CELL ignored
Warning: card / ignored

     Current dimensions of program PWSCF are:
     Max number of different atomic species (ntypx) = 10
     Max number of k-points (npk) =  40000
     Max angular momentum in pseudopotentials (lmaxx) =  4

     IMPORTANT: XC functional enforced from input :
     Exchange-correlation= PBE
                           (   1   4   3   4   0   0   0)
     Any further DFT definition will be discarded
     Please, verify this is what you really want


     gamma-point specific algorithms are used
 
     K-points division:     npool     =       2
     R & G space division:  proc/nbgrp/npool/nimage =       2
     Subspace diagonalization in iterative solution of the eigenvalue problem:
     a serial algorithm will be used

     Message from routine divide_et_impera:
     suboptimal parallelization: some nodes have no k-points
 
     Parallelization info
     --------------------
     sticks:   dense  smooth     PW     G-vecs:    dense   smooth      PW
     Min        1935    1935    516                90689    90689   12416
     Max        1942    1942    517                90690    90690   12421
     Sum        3877    3877   1033               181379   181379   24837
 
     Using Slab Decomposition
 


     bravais-lattice index     =            0
     lattice parameter (alat)  =      20.1483  a.u.
     unit-cell volume          =    8179.2273 (a.u.)^3
     number of atoms/cell      =           64
     number of atomic types    =            1
     number of electrons       =       256.00
     number of Kohn-Sham states=          154
     kinetic-energy cutoff     =      30.0000  Ry
     charge density cutoff     =     120.0000  Ry
     scf convergence threshold =      1.0E-06
     mixing beta               =       0.5000
     number of iterations used =            8  plain     mixing
     Exchange-correlation= PBE
                           (   1   4   3   4   0   0   0)

     GPU acceleration is ACTIVE.
     GPU-aware MPI enabled

     Message from routine print_cuda_info:
     High GPU oversubscription detected. Are you sure this is what you want?

     celldm(1)=  20.148254  celldm(2)=   0.000000  celldm(3)=   0.000000
     celldm(4)=   0.000000  celldm(5)=   0.000000  celldm(6)=   0.000000

     crystal axes: (cart. coord. in units of alat)
               a(1) = (   1.000000   0.000000   0.000000 )  
               a(2) = (   0.000000   1.000000   0.000000 )  
               a(3) = (   0.000000   0.000000   1.000000 )  

     reciprocal axes: (cart. coord. in units 2 pi/alat)
               b(1) = (  1.000000  0.000000  0.000000 )  
               b(2) = (  0.000000  1.000000  0.000000 )  
               b(3) = (  0.000000  0.000000  1.000000 )  


     PseudoPot. # 1 for Si read from file:
     /home/ppiaggi/pseudos/Si_ONCV_PBE_sr.upf
     MD5 check sum: 8553c464762ac42b85b1eed164b4d029
     Pseudo is Norm-conserving, Zval =  4.0
     Generated using ONCVPSP code by D. R. Hamann
     Using radial grid of 1510 points,  4 beta functions with: 
                l(1) =   0
                l(2) =   0
                l(3) =   1
                l(4) =   1

     atomic species   valence    mass     pseudopotential
        Si             4.00    28.08500     Si( 1.00)

     No symmetry found



   Cartesian axes

     site n.     atom                  positions (alat units)
         1           Si  tau(   1) = (   0.4594770   0.5514990   0.6428940  )
         2           Si  tau(   2) = (   0.5368150   0.5697110   0.8944290  )
         3           Si  tau(   3) = (   0.9904680   0.8562990   0.9998260  )
         4           Si  tau(   4) = (   0.4042850   0.3237330   0.6895290  )
         5           Si  tau(   5) = (   0.5644490   0.9485290   0.5068440  )
         6           Si  tau(   6) = (   0.1811640   0.2957510   0.8524150  )
         7           Si  tau(   7) = (   0.2125970   0.5597770   0.6194370  )
         8           Si  tau(   8) = (   0.9516110   0.4335910   0.6986280  )
         9           Si  tau(   9) = (   0.8767090   0.5908750   0.9480470  )
        10           Si  tau(  10) = (   0.3404100   0.7619960   0.0021899  )
        11           Si  tau(  11) = (   0.1407190   0.8059660   0.8514060  )
        12           Si  tau(  12) = (   0.6560430   0.1982190   0.6578070  )
        13           Si  tau(  13) = (   0.9952810   0.7281140   0.4354540  )
        14           Si  tau(  14) = (   0.8249830   0.3010900   0.1905070  )
        15           Si  tau(  15) = (   0.2586700   0.1361300   0.0074345  )
        16           Si  tau(  16) = (   0.5530910   0.2605180   0.1650400  )
        17           Si  tau(  17) = (   0.8462330   0.5528470   0.5466950  )
        18           Si  tau(  18) = (   0.9452940   0.1349590   0.8853000  )
        19           Si  tau(  19) = (   0.0725582   0.8102940   0.6298930  )
        20           Si  tau(  20) = (   0.9248740   0.5454380   0.1930930  )
        21           Si  tau(  21) = (   0.6614430   0.5843280   0.1568650  )
        22           Si  tau(  22) = (   0.0332741   0.3376190   0.3883260  )
        23           Si  tau(  23) = (   0.0363072   0.0015206   0.2968020  )
        24           Si  tau(  24) = (   0.9019940   0.1679180   0.6236390  )
        25           Si  tau(  25) = (   0.7878630   0.3504210   0.8178380  )
        26           Si  tau(  26) = (   0.6988720   0.9868300   0.1786880  )
        27           Si  tau(  27) = (   0.2969370   0.8002760   0.5573920  )
        28           Si  tau(  28) = (   0.8457790   0.8117180   0.7269390  )
        29           Si  tau(  29) = (   0.1576190   0.3150650   0.5969500  )
        30           Si  tau(  30) = (   0.7765240   0.8916230   0.9311370  )
        31           Si  tau(  31) = (   0.2901220   0.5258110   0.9517440  )
        32           Si  tau(  32) = (   0.1206200   0.5319730   0.3580900  )
        33           Si  tau(  33) = (   0.6340550   0.4198760   0.5122810  )
        34           Si  tau(  34) = (   0.6458120   0.1129100   0.3785180  )
        35           Si  tau(  35) = (   0.5110860   0.4329740   0.3088660  )
        36           Si  tau(  36) = (   0.7357240   0.6216520   0.7433250  )
        37           Si  tau(  37) = (   0.7382540   0.6682360   0.3641650  )
        38           Si  tau(  38) = (   0.3649170   0.1102740   0.1980410  )
        39           Si  tau(  39) = (   0.0871481   0.5885370   0.8274390  )
        40           Si  tau(  40) = (   0.4941990   0.8943790   0.1575320  )
        41           Si  tau(  41) = (   0.0585817   0.7744770   0.2109070  )
        42           Si  tau(  42) = (   0.6405130   0.3777580   0.9862900  )
        43           Si  tau(  43) = (   0.2567220   0.9157960   0.3666200  )
        44           Si  tau(  44) = (   0.3787680   0.6202040   0.4022100  )
        45           Si  tau(  45) = (   0.5862460   0.0962344   0.8297390  )
        46           Si  tau(  46) = (   0.7927490   0.9621960   0.5775370  )
        47           Si  tau(  47) = (   0.2753460   0.7318280   0.2179430  )
        48           Si  tau(  48) = (   0.2858420   0.0451626   0.6400520  )
        49           Si  tau(  49) = (   0.4419730   0.2304530   0.9289120  )
        50           Si  tau(  50) = (   0.2741910   0.4683430   0.1821550  )
        51           Si  tau(  51) = (   0.7660240   0.1363430   0.0035479  )
        52           Si  tau(  52) = (   0.4389350   0.1616520   0.5378870  )
        53           Si  tau(  53) = (   0.5215950   0.7750220   0.6663200  )
        54           Si  tau(  54) = (   0.0829522   0.0366270   0.5241590  )
        55           Si  tau(  55) = (   0.6345510   0.7501210   0.0146254  )
        56           Si  tau(  56) = (   0.3193600   0.2971600   0.3677690  )
        57           Si  tau(  57) = (   0.2914510   0.9853380   0.8327150  )
        58           Si  tau(  58) = (   0.8231960   0.2982490   0.4291670  )
        59           Si  tau(  59) = (   0.1044990   0.2602850   0.1865760  )
        60           Si  tau(  60) = (   0.5411650   0.7957430   0.3519880  )
        61           Si  tau(  61) = (   0.9962740   0.3655010   0.9923320  )
        62           Si  tau(  62) = (   0.8268150   0.9008340   0.3751320  )
        63           Si  tau(  63) = (   0.4933630   0.8925330   0.8434600  )
        64           Si  tau(  64) = (   0.0468357   0.0617831   0.0584068  )

     number of k points=     1  Fermi-Dirac smearing, width (Ry)=  0.0100
                       cart. coord. in units 2pi/alat
        k(    1) = (   0.0000000   0.0000000   0.0000000), wk =   2.0000000

     Dense  grid:    90690 G-vectors     FFT dimensions: (  72,  72,  72)

     Estimated max dynamical RAM per process >     145.69 MB

     Estimated total dynamical RAM >     560.61 MB

     Initial potential from superposition of free atoms

     starting charge     255.9608, renormalised to     256.0000
     Starting wfcs are  256 randomized atomic wfcs

     total cpu time spent up to now is        5.0 secs

     Self-consistent Calculation

     iteration #  1     ecut=    30.00 Ry     beta= 0.50
     Davidson diagonalization with overlap
     ethr =  1.00E-02,  avg # of iterations =  3.0

     Threshold (ethr) on eigenvalues was too large:
     Diagonalizing with lowered threshold

     Davidson diagonalization with overlap
     ethr =  4.29E-04,  avg # of iterations =  4.0

     total cpu time spent up to now is        5.3 secs

     total energy              =    -501.14007727 Ry
     estimated scf accuracy    <       1.31753259 Ry

     iteration #  2     ecut=    30.00 Ry     beta= 0.50
     Davidson diagonalization with overlap
     ethr =  5.15E-04,  avg # of iterations =  4.0

     total cpu time spent up to now is        5.4 secs

     total energy              =    -500.42906154 Ry
     estimated scf accuracy    <       9.89687829 Ry

     iteration #  3     ecut=    30.00 Ry     beta= 0.50
     Davidson diagonalization with overlap
     ethr =  5.15E-04,  avg # of iterations =  4.0

     total cpu time spent up to now is        5.5 secs

     total energy              =    -501.32882607 Ry
     estimated scf accuracy    <       1.40230318 Ry

     iteration #  4     ecut=    30.00 Ry     beta= 0.50
     Davidson diagonalization with overlap
     ethr =  5.15E-04,  avg # of iterations =  2.0

     total cpu time spent up to now is        5.6 secs

     total energy              =    -501.39440698 Ry
     estimated scf accuracy    <       0.69417759 Ry

     iteration #  5     ecut=    30.00 Ry     beta= 0.50
     Davidson diagonalization with overlap
     ethr =  2.71E-04,  avg # of iterations =  2.0

     total cpu time spent up to now is        5.7 secs

     total energy              =    -501.43018451 Ry
     estimated scf accuracy    <       0.61244921 Ry

     iteration #  6     ecut=    30.00 Ry     beta= 0.50
     Davidson diagonalization with overlap
     ethr =  2.39E-04,  avg # of iterations =  2.0

     total cpu time spent up to now is        5.8 secs

     total energy              =    -501.48267071 Ry
     estimated scf accuracy    <       0.04806095 Ry

     iteration #  7     ecut=    30.00 Ry     beta= 0.50
     Davidson diagonalization with overlap
     ethr =  1.88E-05,  avg # of iterations =  8.0

     total cpu time spent up to now is        6.0 secs

     total energy              =    -501.48887019 Ry
     estimated scf accuracy    <       0.03080888 Ry

     iteration #  8     ecut=    30.00 Ry     beta= 0.50
     Davidson diagonalization with overlap
     ethr =  1.20E-05,  avg # of iterations =  3.0

     total cpu time spent up to now is        6.1 secs

     total energy              =    -501.49200486 Ry
     estimated scf accuracy    <       0.02038341 Ry

     iteration #  9     ecut=    30.00 Ry     beta= 0.50
     Davidson diagonalization with overlap
     ethr =  7.96E-06,  avg # of iterations =  2.0

     total cpu time spent up to now is        6.2 secs

     total energy              =    -501.49349232 Ry
     estimated scf accuracy    <       0.00167788 Ry

     iteration # 10     ecut=    30.00 Ry     beta= 0.50
     Davidson diagonalization with overlap
     ethr =  6.55E-07,  avg # of iterations = 11.0

     total cpu time spent up to now is        6.3 secs

     total energy              =    -501.49373534 Ry
     estimated scf accuracy    <       0.00058903 Ry

     iteration # 11     ecut=    30.00 Ry     beta= 0.50
     Davidson diagonalization with overlap
     ethr =  2.30E-07,  avg # of iterations =  4.0

     total cpu time spent up to now is        6.4 secs

     total energy              =    -501.49374019 Ry
     estimated scf accuracy    <       0.00074550 Ry

     iteration # 12     ecut=    30.00 Ry     beta= 0.50
     Davidson diagonalization with overlap
     ethr =  2.30E-07,  avg # of iterations =  2.0

     total cpu time spent up to now is        6.5 secs

     total energy              =    -501.49381117 Ry
     estimated scf accuracy    <       0.00032835 Ry

     iteration # 13     ecut=    30.00 Ry     beta= 0.50
     Davidson diagonalization with overlap
     ethr =  1.28E-07,  avg # of iterations =  1.0

     total cpu time spent up to now is        6.6 secs

     total energy              =    -501.49383429 Ry
     estimated scf accuracy    <       0.00005272 Ry

     iteration # 14     ecut=    30.00 Ry     beta= 0.50
     Davidson diagonalization with overlap
     ethr =  2.06E-08,  avg # of iterations =  2.0

     total cpu time spent up to now is        6.7 secs

     total energy              =    -501.49383820 Ry
     estimated scf accuracy    <       0.00003097 Ry

     iteration # 15     ecut=    30.00 Ry     beta= 0.50
     Davidson diagonalization with overlap
     ethr =  1.21E-08,  avg # of iterations =  3.0

     total cpu time spent up to now is        6.8 secs

     total energy              =    -501.49384113 Ry
     estimated scf accuracy    <       0.00002794 Ry

     iteration # 16     ecut=    30.00 Ry     beta= 0.50
     Davidson diagonalization with overlap
     ethr =  1.09E-08,  avg # of iterations =  2.0

     total cpu time spent up to now is        6.9 secs

     total energy              =    -501.49384325 Ry
     estimated scf accuracy    <       0.00000260 Ry

     iteration # 17     ecut=    30.00 Ry     beta= 0.50
     Davidson diagonalization with overlap
     ethr =  1.02E-09,  avg # of iterations =  4.0

     total cpu time spent up to now is        7.0 secs

     total energy              =    -501.49384355 Ry
     estimated scf accuracy    <       0.00000118 Ry

     iteration # 18     ecut=    30.00 Ry     beta= 0.50
     Davidson diagonalization with overlap
     ethr =  4.59E-10,  avg # of iterations =  3.0

     total cpu time spent up to now is        7.1 secs

     total energy              =    -501.49384365 Ry
     estimated scf accuracy    <       0.00000142 Ry

     iteration # 19     ecut=    30.00 Ry     beta= 0.50
     Davidson diagonalization with overlap
     ethr =  4.59E-10,  avg # of iterations =  2.0

     total cpu time spent up to now is        7.2 secs

     End of self-consistent calculation

          k = 0.0000 0.0000 0.0000 ( 11372 PWs)   bands (ev):

    -5.3362  -4.4378  -4.2852  -4.2125  -4.1613  -4.0631  -3.9737  -3.3421
    -3.2708  -3.2443  -3.0877  -3.0418  -3.0176  -2.8931  -2.8309  -2.7955
    -2.7454  -2.6042  -2.4438  -2.1834  -2.0024  -1.9233  -1.8782  -1.6948
    -1.5561  -1.4689  -1.2168  -0.9493  -0.7186  -0.6339  -0.4677  -0.4395
    -0.2975  -0.2063  -0.1196  -0.0933   0.0320   0.0723   0.1287   0.2331
     0.3113   0.3550   0.4233   0.5484   0.6662   0.8324   0.8969   1.0062
     1.0221   1.0717   1.1405   1.2554   1.3064   1.4374   1.5041   1.6129
     1.7283   1.7507   1.8270   2.0031   2.1337   2.3388   2.4043   2.4669
     2.5221   2.5986   2.6099   2.7140   2.7418   2.8578   2.9600   2.9948
     3.0704   3.1286   3.2033   3.3243   3.3940   3.4424   3.4634   3.6193
     3.7100   4.0854   4.3015   4.3274   4.3727   4.4325   4.6220   4.6707
     4.7307   4.8097   4.8973   4.9409   4.9816   5.0134   5.0844   5.1483
     5.1799   5.2716   5.3756   5.4284   5.4549   5.4936   5.5317   5.6257
     5.6503   5.6958   5.7751   5.8659   5.9099   5.9215   5.9609   5.9951
     6.1284   6.1955   6.2421   6.3484   6.4467   6.4670   6.5700   6.5853
     6.6656   6.6910   6.8025   6.8402   6.8786   6.9913   7.0130   7.0810
     7.1373   7.1860   7.2574   7.3202   7.3503   7.4477   7.4651   7.5689
     7.6244   7.6436   7.6967   7.8202   7.8857   7.9095   8.0089   8.0308
     8.0996   8.1255   8.1822   8.2608   8.3561   8.3621   8.4402   8.5175
     8.5671   8.6511

     the Fermi energy is     7.1069 ev

!    total energy              =    -501.49384355 Ry
     estimated scf accuracy    <       0.00000028 Ry
     smearing contrib. (-TS)   =      -0.15140004 Ry
     internal energy E=F+TS    =    -501.34244351 Ry

     The total energy is F=E-TS. E is the sum of the following terms:
     one-electron contribution =     191.35980985 Ry
     hartree contribution      =      22.08000724 Ry
     xc contribution           =    -150.61265496 Ry
     ewald contribution        =    -564.16960564 Ry

     convergence has been achieved in  19 iterations

     Forces acting on atoms (cartesian axes, Ry/au):

     atom    1 type  1   force =     0.00246594   -0.01307017    0.00873859
     atom    2 type  1   force =    -0.00645294    0.00184890   -0.01444455
     atom    3 type  1   force =    -0.01769001   -0.00798082    0.03114823
     atom    4 type  1   force =    -0.01520402    0.02330338    0.04347584
     atom    5 type  1   force =     0.01582059    0.01039317    0.02966018
     atom    6 type  1   force =    -0.00259382    0.01832810    0.00111533
     atom    7 type  1   force =     0.00626887   -0.01217995   -0.01592719
     atom    8 type  1   force =     0.04645235    0.00164997    0.01025177
     atom    9 type  1   force =     0.01552439   -0.02615662    0.00627217
     atom   10 type  1   force =    -0.00246763   -0.00547897    0.00097552
     atom   11 type  1   force =     0.03333624    0.02256889   -0.00828449
     atom   12 type  1   force =     0.02290617    0.03622377   -0.03223949
     atom   13 type  1   force =    -0.02718041   -0.04985383   -0.01061144
     atom   14 type  1   force =     0.00874285    0.02185279   -0.02701736
     atom   15 type  1   force =    -0.03668013   -0.02344465   -0.02018542
     atom   16 type  1   force =    -0.01155665   -0.02341525    0.00470753
     atom   17 type  1   force =    -0.01818180    0.00652588   -0.03563232
     atom   18 type  1   force =    -0.00638750    0.03883051   -0.06463809
     atom   19 type  1   force =    -0.00492213    0.01969181    0.01461184
     atom   20 type  1   force =    -0.02469260   -0.01082299   -0.02093308
     atom   21 type  1   force =     0.02508047   -0.03628338    0.00889324
     atom   22 type  1   force =     0.00984929   -0.01429873    0.00586604
     atom   23 type  1   force =     0.00814960   -0.01983904    0.01485802
     atom   24 type  1   force =    -0.01296521   -0.02353862    0.00105665
     atom   25 type  1   force =    -0.00514795   -0.02570642    0.00736126
     atom   26 type  1   force =     0.00752080    0.02499813    0.01607393
     atom   27 type  1   force =     0.01697905   -0.00416518    0.00655778
     atom   28 type  1   force =     0.00905733   -0.01231095    0.01473997
     atom   29 type  1   force =     0.01015258    0.03022255    0.00484176
     atom   30 type  1   force =     0.03642530    0.02701771   -0.00344471
     atom   31 type  1   force =    -0.00929928    0.00465505    0.00806188
     atom   32 type  1   force =     0.01050596    0.03229105    0.00715703
     atom   33 type  1   force =     0.00987479    0.00998899    0.00312793
     atom   34 type  1   force =     0.01292514    0.02155719   -0.02914991
     atom   35 type  1   force =    -0.02623329    0.02143954    0.00718536
     atom   36 type  1   force =    -0.01555885    0.00653014    0.00658829
     atom   37 type  1   force =     0.01225959    0.01446720   -0.00928238
     atom   38 type  1   force =     0.02812733   -0.01498728    0.03223118
     atom   39 type  1   force =     0.01247373   -0.02013999   -0.00873301
     atom   40 type  1   force =    -0.00033919    0.00388030   -0.01108107
     atom   41 type  1   force =    -0.00860022   -0.00237973   -0.00924503
     atom   42 type  1   force =    -0.01627027    0.02660603    0.00550260
     atom   43 type  1   force =    -0.01184952    0.01991044   -0.03169976
     atom   44 type  1   force =     0.02032111    0.02915306    0.00372901
     atom   45 type  1   force =     0.01498911   -0.02581978    0.06974836
     atom   46 type  1   force =    -0.04123082    0.04621432    0.00503042
     atom   47 type  1   force =     0.00486757   -0.00262320    0.00250586
     atom   48 type  1   force =    -0.02606509   -0.00219558   -0.09553234
     atom   49 type  1   force =     0.03052104    0.03937770   -0.01918252
     atom   50 type  1   force =    -0.01159649   -0.00087627    0.00460214
     atom   51 type  1   force =    -0.05091368   -0.03298169    0.02095985
     atom   52 type  1   force =     0.03244359   -0.00288158   -0.03698595
     atom   53 type  1   force =    -0.00075355   -0.03029407   -0.02775135
     atom   54 type  1   force =    -0.00893325   -0.00998991    0.01255301
     atom   55 type  1   force =    -0.04522127   -0.00595114   -0.00819385
     atom   56 type  1   force =     0.01298280   -0.02212619   -0.00773127
     atom   57 type  1   force =    -0.01004868   -0.04031134    0.09089593
     atom   58 type  1   force =    -0.03651252   -0.01052342    0.01776461
     atom   59 type  1   force =     0.00819957    0.01079555   -0.01207306
     atom   60 type  1   force =    -0.00851124   -0.04629221    0.00419878
     atom   61 type  1   force =    -0.00695248    0.01260431    0.00476897
     atom   62 type  1   force =     0.02644281   -0.02275896   -0.04460986
     atom   63 type  1   force =    -0.01475561    0.01235125    0.02613078
     atom   64 type  1   force =     0.03010215    0.00640023    0.04066184

     Total force =     0.328150     Total SCF correction =     0.001027


     Computing stress (Cartesian axis) and pressure

          total   stress  (Ry/bohr**3)                   (kbar)     P=      -35.77
  -0.00022255  -0.00001624  -0.00007761          -32.74       -2.39      -11.42
  -0.00001624  -0.00023709  -0.00004491           -2.39      -34.88       -6.61
  -0.00007761  -0.00004491  -0.00026975          -11.42       -6.61      -39.68

 
     init_run     :      1.13s CPU      4.95s WALL (       1 calls)
     electrons    :      2.01s CPU      2.19s WALL (       1 calls)
     forces       :      0.04s CPU      0.04s WALL (       1 calls)
     stress       :      0.15s CPU      0.16s WALL (       1 calls)

     Called by init_run:
     wfcinit      :      0.59s CPU      4.23s WALL (       1 calls)
                                        4.23s GPU  (       1 calls)
     potinit      :      0.05s CPU      0.14s WALL (       1 calls)
     hinit0       :      0.47s CPU      0.50s WALL (       1 calls)

     Called by electrons:
     c_bands      :      1.18s CPU      1.27s WALL (      20 calls)
     sum_band     :      0.40s CPU      0.46s WALL (      20 calls)
     v_of_rho     :      0.19s CPU      0.30s WALL (      20 calls)
     mix_rho      :      0.19s CPU      0.21s WALL (      20 calls)

     Called by c_bands:
     init_us_2    :      0.07s CPU      0.08s WALL (      41 calls)
     init_us_2:gp :      0.07s CPU      0.07s WALL (      41 calls)
     regterg      :      1.00s CPU      1.09s WALL (      20 calls)

     Called by *egterg:
     rdiaghg      :      0.41s CPU      1.18s WALL (      87 calls)
                                        1.16s GPU  (      87 calls)
     h_psi        :      1.00s CPU      3.93s WALL (      89 calls)
                                        3.93s GPU  (      89 calls)
     g_psi        :      0.00s CPU      0.00s WALL (      68 calls)
                                        0.00s GPU  (      68 calls)

     Called by h_psi:
     h_psi:calbec :      0.56s CPU      3.40s WALL (      89 calls)
                                        3.40s GPU  (      89 calls)
     vloc_psi     :      0.39s CPU      0.47s WALL (      89 calls)
                                        0.46s GPU  (      89 calls)
     add_vuspsi   :      0.03s CPU      0.05s WALL (      89 calls)
                                        0.05s GPU  (      89 calls)

     General routines
     calbec       :      0.56s CPU      3.41s WALL (      94 calls)
     fft          :      0.63s CPU      0.76s WALL (     167 calls)
                                        0.14s GPU  (     106 calls)
     ffts         :      0.05s CPU      0.05s WALL (      20 calls)
     fftw         :      0.48s CPU      0.63s WALL (    2104 calls)
                                        0.55s GPU  (    2104 calls)
 
     Parallel routines
 
     PWSCF        :      3.38s CPU      7.42s WALL

 
   This run was terminated on:  11: 0:17  10May2023            

=------------------------------------------------------------------------------=
   JOB DONE.
=------------------------------------------------------------------------------=
