An instance of this daemon is already running
An instance of this daemon is already running

     Program PWSCF v.7.1 starts on 10May2023 at 11: 7:26 

     This program is part of the open-source Quantum ESPRESSO suite
     for quantum simulation of materials; please cite
         "P. Giannozzi et al., J. Phys.:Condens. Matter 21 395502 (2009);
         "P. Giannozzi et al., J. Phys.:Condens. Matter 29 465901 (2017);
         "P. Giannozzi et al., J. Chem. Phys. 152 154105 (2020);
          URL http://www.quantum-espresso.org", 
     in publications or presentations arising from this work. More details at
     http://www.quantum-espresso.org/quote

     Parallel version (MPI & OpenMP), running on       4 processor cores
     Number of MPI processes:                 4
     Threads/MPI process:                     1

     MPI processes distributed on     1 nodes
     753572 MiB available memory on the printing compute node when the environment starts
 
     Reading input from pw-si-83.in
Warning: card &CELL ignored
Warning: card / ignored

     Current dimensions of program PWSCF are:
     Max number of different atomic species (ntypx) = 10
     Max number of k-points (npk) =  40000
     Max angular momentum in pseudopotentials (lmaxx) =  4

     IMPORTANT: XC functional enforced from input :
     Exchange-correlation= PBE
                           (   1   4   3   4   0   0   0)
     Any further DFT definition will be discarded
     Please, verify this is what you really want


     gamma-point specific algorithms are used
 
     K-points division:     npool     =       2
     R & G space division:  proc/nbgrp/npool/nimage =       2
     Subspace diagonalization in iterative solution of the eigenvalue problem:
     a serial algorithm will be used

     Message from routine divide_et_impera:
     suboptimal parallelization: some nodes have no k-points
 
     Parallelization info
     --------------------
     sticks:   dense  smooth     PW     G-vecs:    dense   smooth      PW
     Min        1941    1941    516                90975    90975   12416
     Max        1944    1944    517                90980    90980   12421
     Sum        3885    3885   1033               181955   181955   24837
 
     Using Slab Decomposition
 


     bravais-lattice index     =            0
     lattice parameter (alat)  =      20.1585  a.u.
     unit-cell volume          =    8191.7412 (a.u.)^3
     number of atoms/cell      =           64
     number of atomic types    =            1
     number of electrons       =       256.00
     number of Kohn-Sham states=          154
     kinetic-energy cutoff     =      30.0000  Ry
     charge density cutoff     =     120.0000  Ry
     scf convergence threshold =      1.0E-06
     mixing beta               =       0.5000
     number of iterations used =            8  plain     mixing
     Exchange-correlation= PBE
                           (   1   4   3   4   0   0   0)

     GPU acceleration is ACTIVE.
     GPU-aware MPI enabled

     Message from routine print_cuda_info:
     High GPU oversubscription detected. Are you sure this is what you want?

     celldm(1)=  20.158525  celldm(2)=   0.000000  celldm(3)=   0.000000
     celldm(4)=   0.000000  celldm(5)=   0.000000  celldm(6)=   0.000000

     crystal axes: (cart. coord. in units of alat)
               a(1) = (   1.000000   0.000000   0.000000 )  
               a(2) = (   0.000000   1.000000   0.000000 )  
               a(3) = (   0.000000   0.000000   1.000000 )  

     reciprocal axes: (cart. coord. in units 2 pi/alat)
               b(1) = (  1.000000  0.000000  0.000000 )  
               b(2) = (  0.000000  1.000000  0.000000 )  
               b(3) = (  0.000000  0.000000  1.000000 )  


     PseudoPot. # 1 for Si read from file:
     /home/ppiaggi/pseudos/Si_ONCV_PBE_sr.upf
     MD5 check sum: 8553c464762ac42b85b1eed164b4d029
     Pseudo is Norm-conserving, Zval =  4.0
     Generated using ONCVPSP code by D. R. Hamann
     Using radial grid of 1510 points,  4 beta functions with: 
                l(1) =   0
                l(2) =   0
                l(3) =   1
                l(4) =   1

     atomic species   valence    mass     pseudopotential
        Si             4.00    28.08500     Si( 1.00)

     No symmetry found



   Cartesian axes

     site n.     atom                  positions (alat units)
         1           Si  tau(   1) = (   0.2078650   0.1281070   0.2065410  )
         2           Si  tau(   2) = (   0.8777330   0.1290560   0.3521510  )
         3           Si  tau(   3) = (   0.8642860   0.4284210   0.3602620  )
         4           Si  tau(   4) = (   0.6768810   0.2004360   0.1382030  )
         5           Si  tau(   5) = (   0.1867500   0.8509630   0.3225580  )
         6           Si  tau(   6) = (   0.5095020   0.0447896   0.9845930  )
         7           Si  tau(   7) = (   0.6977190   0.8138360   0.2769210  )
         8           Si  tau(   8) = (   0.2639220   0.0822318   0.6019690  )
         9           Si  tau(   9) = (   0.6674820   0.4989350   0.0108901  )
        10           Si  tau(  10) = (   0.4411350   0.8444150   0.3216300  )
        11           Si  tau(  11) = (   0.7741300   0.7964080   0.0506541  )
        12           Si  tau(  12) = (   0.7099780   0.9938380   0.9301850  )
        13           Si  tau(  13) = (   0.5229090   0.3690390   0.6883070  )
        14           Si  tau(  14) = (   0.1297000   0.3155010   0.6010100  )
        15           Si  tau(  15) = (   0.3780440   0.8561220   0.0334382  )
        16           Si  tau(  16) = (   0.8581870   0.8742420   0.5081830  )
        17           Si  tau(  17) = (   0.2595070   0.5836100   0.9363010  )
        18           Si  tau(  18) = (   0.6403900   0.3021950   0.9069840  )
        19           Si  tau(  19) = (   0.9557960   0.3504150   0.9094150  )
        20           Si  tau(  20) = (   0.9867370   0.0303944   0.6359920  )
        21           Si  tau(  21) = (   0.9185080   0.1426450   0.1466840  )
        22           Si  tau(  22) = (   0.4943380   0.0678835   0.2491600  )
        23           Si  tau(  23) = (   0.8907050   0.5146120   0.7768880  )
        24           Si  tau(  24) = (   0.5479620   0.5156470   0.3609360  )
        25           Si  tau(  25) = (   0.4651040   0.6272540   0.7162610  )
        26           Si  tau(  26) = (   0.9492660   0.8638620   0.2673620  )
        27           Si  tau(  27) = (   0.1203980   0.0449831   0.4113970  )
        28           Si  tau(  28) = (   0.3223150   0.6457820   0.1797850  )
        29           Si  tau(  29) = (   0.0832873   0.3097450   0.2234930  )
        30           Si  tau(  30) = (   0.8519650   0.4040650   0.1209750  )
        31           Si  tau(  31) = (   0.6635960   0.0216563   0.4242740  )
        32           Si  tau(  32) = (   0.1567250   0.1018160   0.8421470  )
        33           Si  tau(  33) = (   0.1504420   0.7121740   0.7294340  )
        34           Si  tau(  34) = (   0.5181720   0.3506890   0.2182120  )
        35           Si  tau(  35) = (   0.9168560   0.6602970   0.9419180  )
        36           Si  tau(  36) = (   0.9718200   0.8301280   0.8041370  )
        37           Si  tau(  37) = (   0.3878220   0.5255320   0.5263320  )
        38           Si  tau(  38) = (   0.7460450   0.4217710   0.6302310  )
        39           Si  tau(  39) = (   0.5758450   0.7609260   0.5539140  )
        40           Si  tau(  40) = (   0.1523270   0.3110250   0.8228650  )
        41           Si  tau(  41) = (   0.3557520   0.1851910   0.4062270  )
        42           Si  tau(  42) = (   0.7519590   0.1974530   0.6985650  )
        43           Si  tau(  43) = (   0.9564020   0.6396190   0.5937660  )
        44           Si  tau(  44) = (   0.2144830   0.9835780   0.0465489  )
        45           Si  tau(  45) = (   0.6809240   0.6269260   0.8292860  )
        46           Si  tau(  46) = (   0.5707970   0.6551270   0.1586450  )
        47           Si  tau(  47) = (   0.7452690   0.8425050   0.7479560  )
        48           Si  tau(  48) = (   0.2477370   0.6908200   0.5181230  )
        49           Si  tau(  49) = (   0.5697550   0.2725390   0.4739150  )
        50           Si  tau(  50) = (   0.3740850   0.8891640   0.5868200  )
        51           Si  tau(  51) = (   0.0686203   0.5376160   0.0448475  )
        52           Si  tau(  52) = (   0.4575270   0.1557720   0.7384070  )
        53           Si  tau(  53) = (   0.3678170   0.3896880   0.8743750  )
        54           Si  tau(  54) = (   0.0477140   0.6618000   0.2338280  )
        55           Si  tau(  55) = (   0.9925020   0.9612920   0.0379983  )
        56           Si  tau(  56) = (   0.2945300   0.4275320   0.1982000  )
        57           Si  tau(  57) = (   0.9253530   0.2689870   0.5126610  )
        58           Si  tau(  58) = (   0.0675435   0.5443390   0.4180570  )
        59           Si  tau(  59) = (   0.6152490   0.0176813   0.6304320  )
        60           Si  tau(  60) = (   0.3429730   0.7956560   0.8094260  )
        61           Si  tau(  61) = (   0.7604240   0.6264890   0.4480080  )
        62           Si  tau(  62) = (   0.8811280   0.1281130   0.8626480  )
        63           Si  tau(  63) = (   0.2647210   0.4017000   0.4014670  )
        64           Si  tau(  64) = (   0.3868110   0.2338810   0.0250935  )

     number of k points=     1  Fermi-Dirac smearing, width (Ry)=  0.0100
                       cart. coord. in units 2pi/alat
        k(    1) = (   0.0000000   0.0000000   0.0000000), wk =   2.0000000

     Dense  grid:    90978 G-vectors     FFT dimensions: (  72,  72,  72)

     Estimated max dynamical RAM per process >     145.90 MB

     Estimated total dynamical RAM >     561.40 MB

     Initial potential from superposition of free atoms

     starting charge     255.9608, renormalised to     256.0000
     Starting wfcs are  256 randomized atomic wfcs

     total cpu time spent up to now is        5.1 secs

     Self-consistent Calculation

     iteration #  1     ecut=    30.00 Ry     beta= 0.50
     Davidson diagonalization with overlap
     ethr =  1.00E-02,  avg # of iterations =  3.0

     Threshold (ethr) on eigenvalues was too large:
     Diagonalizing with lowered threshold

     Davidson diagonalization with overlap
     ethr =  3.83E-04,  avg # of iterations =  4.0

     total cpu time spent up to now is        5.4 secs

     total energy              =    -501.32765638 Ry
     estimated scf accuracy    <       1.17662754 Ry

     iteration #  2     ecut=    30.00 Ry     beta= 0.50
     Davidson diagonalization with overlap
     ethr =  4.60E-04,  avg # of iterations =  4.0

     total cpu time spent up to now is        5.5 secs

     total energy              =    -500.94652413 Ry
     estimated scf accuracy    <       4.04040798 Ry

     iteration #  3     ecut=    30.00 Ry     beta= 0.50
     Davidson diagonalization with overlap
     ethr =  4.60E-04,  avg # of iterations =  5.0

     total cpu time spent up to now is        5.6 secs

     total energy              =    -501.37238275 Ry
     estimated scf accuracy    <       1.84225371 Ry

     iteration #  4     ecut=    30.00 Ry     beta= 0.50
     Davidson diagonalization with overlap
     ethr =  4.60E-04,  avg # of iterations =  2.0

     total cpu time spent up to now is        5.7 secs

     total energy              =    -501.47210103 Ry
     estimated scf accuracy    <       0.56641899 Ry

     iteration #  5     ecut=    30.00 Ry     beta= 0.50
     Davidson diagonalization with overlap
     ethr =  2.21E-04,  avg # of iterations =  2.0

     total cpu time spent up to now is        5.8 secs

     total energy              =    -501.50678689 Ry
     estimated scf accuracy    <       0.46932732 Ry

     iteration #  6     ecut=    30.00 Ry     beta= 0.50
     Davidson diagonalization with overlap
     ethr =  1.83E-04,  avg # of iterations =  2.0

     total cpu time spent up to now is        5.9 secs

     total energy              =    -501.54994775 Ry
     estimated scf accuracy    <       0.04857676 Ry

     iteration #  7     ecut=    30.00 Ry     beta= 0.50
     Davidson diagonalization with overlap
     ethr =  1.90E-05,  avg # of iterations = 14.0

     total cpu time spent up to now is        6.0 secs

     total energy              =    -501.55666196 Ry
     estimated scf accuracy    <       0.01054559 Ry

     iteration #  8     ecut=    30.00 Ry     beta= 0.50
     Davidson diagonalization with overlap
     ethr =  4.12E-06,  avg # of iterations = 11.0

     total cpu time spent up to now is        6.2 secs

     total energy              =    -501.55725094 Ry
     estimated scf accuracy    <       0.02187276 Ry

     iteration #  9     ecut=    30.00 Ry     beta= 0.50
     Davidson diagonalization with overlap
     ethr =  4.12E-06,  avg # of iterations =  2.0

     total cpu time spent up to now is        6.3 secs

     total energy              =    -501.55889332 Ry
     estimated scf accuracy    <       0.00144384 Ry

     iteration # 10     ecut=    30.00 Ry     beta= 0.50
     Davidson diagonalization with overlap
     ethr =  5.64E-07,  avg # of iterations =  5.0

     total cpu time spent up to now is        6.4 secs

     total energy              =    -501.55903509 Ry
     estimated scf accuracy    <       0.00129716 Ry

     iteration # 11     ecut=    30.00 Ry     beta= 0.50
     Davidson diagonalization with overlap
     ethr =  5.07E-07,  avg # of iterations =  2.0

     total cpu time spent up to now is        6.5 secs

     total energy              =    -501.55913878 Ry
     estimated scf accuracy    <       0.00044782 Ry

     iteration # 12     ecut=    30.00 Ry     beta= 0.50
     Davidson diagonalization with overlap
     ethr =  1.75E-07,  avg # of iterations =  2.0

     total cpu time spent up to now is        6.6 secs

     total energy              =    -501.55918232 Ry
     estimated scf accuracy    <       0.00013894 Ry

     iteration # 13     ecut=    30.00 Ry     beta= 0.50
     Davidson diagonalization with overlap
     ethr =  5.43E-08,  avg # of iterations =  2.0

     total cpu time spent up to now is        6.7 secs

     total energy              =    -501.55919197 Ry
     estimated scf accuracy    <       0.00010157 Ry

     iteration # 14     ecut=    30.00 Ry     beta= 0.50
     Davidson diagonalization with overlap
     ethr =  3.97E-08,  avg # of iterations =  2.0

     total cpu time spent up to now is        6.8 secs

     total energy              =    -501.55919888 Ry
     estimated scf accuracy    <       0.00001602 Ry

     iteration # 15     ecut=    30.00 Ry     beta= 0.50
     Davidson diagonalization with overlap
     ethr =  6.26E-09,  avg # of iterations =  4.0

     total cpu time spent up to now is        6.9 secs

     total energy              =    -501.55920061 Ry
     estimated scf accuracy    <       0.00002408 Ry

     iteration # 16     ecut=    30.00 Ry     beta= 0.50
     Davidson diagonalization with overlap
     ethr =  6.26E-09,  avg # of iterations =  2.0

     total cpu time spent up to now is        7.0 secs

     total energy              =    -501.55920255 Ry
     estimated scf accuracy    <       0.00000188 Ry

     iteration # 17     ecut=    30.00 Ry     beta= 0.50
     Davidson diagonalization with overlap
     ethr =  7.33E-10,  avg # of iterations =  4.0

     total cpu time spent up to now is        7.1 secs

     End of self-consistent calculation

          k = 0.0000 0.0000 0.0000 ( 11372 PWs)   bands (ev):

    -5.3934  -4.5743  -4.3513  -4.2849  -4.1779  -4.0312  -3.9226  -3.4443
    -3.3708  -3.3059  -3.2532  -3.1562  -3.1200  -2.9416  -2.9175  -2.7456
    -2.6928  -2.5740  -2.4030  -2.1827  -2.1171  -1.9310  -1.8979  -1.8213
    -1.6969  -1.4811  -1.2618  -1.0135  -0.9194  -0.7669  -0.5954  -0.4508
    -0.3615  -0.2992  -0.2381  -0.0827  -0.0127   0.0846   0.1595   0.2299
     0.2935   0.3718   0.5103   0.6059   0.6467   0.7069   0.8116   0.9042
     0.9394   0.9865   1.1380   1.2649   1.2907   1.4393   1.4877   1.6121
     1.6510   1.7042   1.8495   2.0251   2.2077   2.3076   2.3494   2.4280
     2.5488   2.5999   2.6404   2.7177   2.7433   2.8351   2.9598   2.9679
     3.0707   3.1567   3.1808   3.2362   3.2963   3.4354   3.5070   3.6123
     3.6908   3.9577   4.1227   4.2587   4.3157   4.4604   4.5352   4.6093
     4.6860   4.8112   4.8798   4.9079   4.9294   4.9911   5.0710   5.1710
     5.2155   5.2429   5.3167   5.3704   5.3862   5.4454   5.5331   5.5441
     5.6462   5.6756   5.7819   5.8105   5.8385   5.9291   5.9934   6.0532
     6.0951   6.1392   6.1944   6.2616   6.2974   6.4130   6.5221   6.5536
     6.5818   6.6760   6.7318   6.7709   6.8231   6.9114   6.9521   7.0045
     7.0713   7.0953   7.3031   7.3453   7.3962   7.4373   7.5050   7.5557
     7.6099   7.6868   7.7765   7.8571   7.8895   7.9533   8.0181   8.0354
     8.1194   8.2569   8.3066   8.3228   8.3799   8.4333   8.4831   8.5571
     8.5754   8.6631

     the Fermi energy is     7.0627 ev

!    total energy              =    -501.55920242 Ry
     estimated scf accuracy    <       0.00000068 Ry
     smearing contrib. (-TS)   =      -0.13466915 Ry
     internal energy E=F+TS    =    -501.42453327 Ry

     The total energy is F=E-TS. E is the sum of the following terms:
     one-electron contribution =     186.18568644 Ry
     hartree contribution      =      24.40596037 Ry
     xc contribution           =    -150.77192194 Ry
     ewald contribution        =    -561.24425814 Ry

     convergence has been achieved in  17 iterations

     Forces acting on atoms (cartesian axes, Ry/au):

     atom    1 type  1   force =     0.03008439    0.01599135    0.03144116
     atom    2 type  1   force =    -0.00698193   -0.03905293    0.06152015
     atom    3 type  1   force =     0.02416344    0.02079415   -0.00583092
     atom    4 type  1   force =     0.02105861   -0.00066091   -0.04586311
     atom    5 type  1   force =     0.00714920   -0.03077790    0.01980290
     atom    6 type  1   force =    -0.04158902    0.01285483    0.00579203
     atom    7 type  1   force =     0.01725157   -0.02261725    0.01070519
     atom    8 type  1   force =    -0.00685330    0.03640673    0.00144037
     atom    9 type  1   force =     0.00802778    0.00321734    0.02624816
     atom   10 type  1   force =    -0.00327044    0.02227803    0.00721101
     atom   11 type  1   force =    -0.00449640    0.02830286    0.01099953
     atom   12 type  1   force =     0.05486761   -0.04059827   -0.02026707
     atom   13 type  1   force =    -0.01760823    0.01232467    0.02256816
     atom   14 type  1   force =     0.00297641   -0.02898016   -0.03568589
     atom   15 type  1   force =     0.06389413   -0.02345368   -0.01966828
     atom   16 type  1   force =    -0.00347976   -0.00229079   -0.00131565
     atom   17 type  1   force =     0.00784105    0.00840947    0.00469118
     atom   18 type  1   force =    -0.01476012   -0.02821361    0.00797162
     atom   19 type  1   force =    -0.01783092   -0.01773667    0.03771367
     atom   20 type  1   force =     0.00365656   -0.00121825    0.02441300
     atom   21 type  1   force =    -0.02507372    0.04559428   -0.03368022
     atom   22 type  1   force =     0.01085341   -0.02393034    0.02527603
     atom   23 type  1   force =    -0.03628782    0.01635027   -0.03781195
     atom   24 type  1   force =     0.01784611    0.03151188    0.00868747
     atom   25 type  1   force =     0.03745686   -0.00016542   -0.00384165
     atom   26 type  1   force =    -0.00567036    0.00436170   -0.01140638
     atom   27 type  1   force =    -0.03020344   -0.00543803    0.00375185
     atom   28 type  1   force =     0.01246818    0.02221947   -0.02928578
     atom   29 type  1   force =    -0.00689302    0.00674203   -0.00010687
     atom   30 type  1   force =     0.01130493   -0.01960289   -0.00055315
     atom   31 type  1   force =     0.03864873    0.01068587   -0.06687101
     atom   32 type  1   force =    -0.01506163   -0.05447792   -0.01869195
     atom   33 type  1   force =    -0.00493057   -0.00487336   -0.00093688
     atom   34 type  1   force =    -0.01727786   -0.01307734   -0.02649611
     atom   35 type  1   force =    -0.01975138    0.02488487    0.00030526
     atom   36 type  1   force =     0.01872737    0.02260203   -0.00788436
     atom   37 type  1   force =     0.06119460   -0.00760971    0.01195420
     atom   38 type  1   force =    -0.00943486   -0.00579686   -0.01986749
     atom   39 type  1   force =     0.00138419    0.00880564   -0.01470606
     atom   40 type  1   force =     0.02811490    0.04559647   -0.01289068
     atom   41 type  1   force =     0.01578066    0.00964827   -0.01021340
     atom   42 type  1   force =     0.00539112    0.00808997   -0.01431342
     atom   43 type  1   force =    -0.00291070    0.01061674   -0.00183466
     atom   44 type  1   force =    -0.05922607    0.03472369   -0.01478174
     atom   45 type  1   force =     0.00522361    0.00643787   -0.01902314
     atom   46 type  1   force =    -0.01687318   -0.01656699    0.01774334
     atom   47 type  1   force =    -0.02101970    0.01162774   -0.00574208
     atom   48 type  1   force =    -0.04141002    0.05491932    0.00015459
     atom   49 type  1   force =    -0.01305953   -0.00399689   -0.00159069
     atom   50 type  1   force =     0.01502850   -0.02686713    0.00321872
     atom   51 type  1   force =    -0.00528820   -0.01697287    0.03198882
     atom   52 type  1   force =    -0.00655120   -0.02032689    0.00380500
     atom   53 type  1   force =    -0.01485168    0.02295390   -0.03491219
     atom   54 type  1   force =     0.02889291    0.01125354    0.00380643
     atom   55 type  1   force =    -0.01332951   -0.02118908   -0.00770518
     atom   56 type  1   force =     0.00567183   -0.00587603   -0.07575872
     atom   57 type  1   force =    -0.00102077    0.00912605    0.02273875
     atom   58 type  1   force =     0.00548173   -0.00508941    0.01778947
     atom   59 type  1   force =    -0.00667696   -0.01330064    0.04841062
     atom   60 type  1   force =    -0.00213968   -0.00837247   -0.00059649
     atom   61 type  1   force =    -0.03498744   -0.00364887    0.00030595
     atom   62 type  1   force =     0.01583356   -0.00092448    0.00568581
     atom   63 type  1   force =    -0.06285300   -0.05782018    0.08120675
     atom   64 type  1   force =     0.01337848   -0.00780684    0.04078600

     Total force =     0.341561     Total SCF correction =     0.001565


     Computing stress (Cartesian axis) and pressure

          total   stress  (Ry/bohr**3)                   (kbar)     P=      -32.85
  -0.00027328  -0.00001801  -0.00002946          -40.20       -2.65       -4.33
  -0.00001801  -0.00006242   0.00004127           -2.65       -9.18        6.07
  -0.00002946   0.00004127  -0.00033424           -4.33        6.07      -49.17

 
     init_run     :      1.08s CPU      5.01s WALL (       1 calls)
     electrons    :      1.88s CPU      2.03s WALL (       1 calls)
     forces       :      0.04s CPU      0.04s WALL (       1 calls)
     stress       :      0.15s CPU      0.16s WALL (       1 calls)

     Called by init_run:
     wfcinit      :      0.54s CPU      4.29s WALL (       1 calls)
                                        4.29s GPU  (       1 calls)
     potinit      :      0.05s CPU      0.15s WALL (       1 calls)
     hinit0       :      0.46s CPU      0.50s WALL (       1 calls)

     Called by electrons:
     c_bands      :      1.16s CPU      1.22s WALL (      18 calls)
     sum_band     :      0.36s CPU      0.40s WALL (      18 calls)
     v_of_rho     :      0.17s CPU      0.28s WALL (      18 calls)
     mix_rho      :      0.16s CPU      0.18s WALL (      18 calls)

     Called by c_bands:
     init_us_2    :      0.06s CPU      0.07s WALL (      37 calls)
     init_us_2:gp :      0.06s CPU      0.07s WALL (      37 calls)
     regterg      :      1.00s CPU      1.06s WALL (      18 calls)

     Called by *egterg:
     rdiaghg      :      0.43s CPU      1.18s WALL (      89 calls)
                                        1.17s GPU  (      89 calls)
     h_psi        :      0.93s CPU      3.96s WALL (      91 calls)
                                        3.96s GPU  (      91 calls)
     g_psi        :      0.00s CPU      0.00s WALL (      72 calls)
                                        0.00s GPU  (      72 calls)

     Called by h_psi:
     h_psi:calbec :      0.51s CPU      3.45s WALL (      91 calls)
                                        3.45s GPU  (      91 calls)
     vloc_psi     :      0.37s CPU      0.44s WALL (      91 calls)
                                        0.44s GPU  (      91 calls)
     add_vuspsi   :      0.03s CPU      0.05s WALL (      91 calls)
                                        0.05s GPU  (      91 calls)

     General routines
     calbec       :      0.51s CPU      3.46s WALL (      96 calls)
     fft          :      0.61s CPU      0.75s WALL (     151 calls)
                                        0.14s GPU  (      96 calls)
     ffts         :      0.04s CPU      0.05s WALL (      18 calls)
     fftw         :      0.44s CPU      0.59s WALL (    1922 calls)
                                        0.51s GPU  (    1922 calls)
 
     Parallel routines
 
     PWSCF        :      3.19s CPU      7.33s WALL

 
   This run was terminated on:  11: 7:34  10May2023            

=------------------------------------------------------------------------------=
   JOB DONE.
=------------------------------------------------------------------------------=
