An instance of this daemon is already running

     Program PWSCF v.7.1 starts on 10May2023 at 11: 0:29 

     This program is part of the open-source Quantum ESPRESSO suite
     for quantum simulation of materials; please cite
         "P. Giannozzi et al., J. Phys.:Condens. Matter 21 395502 (2009);
         "P. Giannozzi et al., J. Phys.:Condens. Matter 29 465901 (2017);
         "P. Giannozzi et al., J. Chem. Phys. 152 154105 (2020);
          URL http://www.quantum-espresso.org", 
     in publications or presentations arising from this work. More details at
     http://www.quantum-espresso.org/quote

     Parallel version (MPI & OpenMP), running on       4 processor cores
     Number of MPI processes:                 4
     Threads/MPI process:                     1

     MPI processes distributed on     1 nodes
     753553 MiB available memory on the printing compute node when the environment starts
 
     Reading input from pw-si-40.in
Warning: card &CELL ignored
Warning: card / ignored

     Current dimensions of program PWSCF are:
     Max number of different atomic species (ntypx) = 10
     Max number of k-points (npk) =  40000
     Max angular momentum in pseudopotentials (lmaxx) =  4

     IMPORTANT: XC functional enforced from input :
     Exchange-correlation= PBE
                           (   1   4   3   4   0   0   0)
     Any further DFT definition will be discarded
     Please, verify this is what you really want


     gamma-point specific algorithms are used
 
     K-points division:     npool     =       2
     R & G space division:  proc/nbgrp/npool/nimage =       2
     Subspace diagonalization in iterative solution of the eigenvalue problem:
     a serial algorithm will be used

     Message from routine divide_et_impera:
     suboptimal parallelization: some nodes have no k-points
 
     Parallelization info
     --------------------
     sticks:   dense  smooth     PW     G-vecs:    dense   smooth      PW
     Min        1933    1933    515                90543    90543   12286
     Max        1936    1936    518                90548    90548   12287
     Sum        3869    3869   1033               181091   181091   24573
 
     Using Slab Decomposition
 


     bravais-lattice index     =            0
     lattice parameter (alat)  =      20.1365  a.u.
     unit-cell volume          =    8164.8981 (a.u.)^3
     number of atoms/cell      =           64
     number of atomic types    =            1
     number of electrons       =       256.00
     number of Kohn-Sham states=          154
     kinetic-energy cutoff     =      30.0000  Ry
     charge density cutoff     =     120.0000  Ry
     scf convergence threshold =      1.0E-06
     mixing beta               =       0.5000
     number of iterations used =            8  plain     mixing
     Exchange-correlation= PBE
                           (   1   4   3   4   0   0   0)

     GPU acceleration is ACTIVE.
     GPU-aware MPI enabled

     Message from routine print_cuda_info:
     High GPU oversubscription detected. Are you sure this is what you want?

     celldm(1)=  20.136482  celldm(2)=   0.000000  celldm(3)=   0.000000
     celldm(4)=   0.000000  celldm(5)=   0.000000  celldm(6)=   0.000000

     crystal axes: (cart. coord. in units of alat)
               a(1) = (   1.000000   0.000000   0.000000 )  
               a(2) = (   0.000000   1.000000   0.000000 )  
               a(3) = (   0.000000   0.000000   1.000000 )  

     reciprocal axes: (cart. coord. in units 2 pi/alat)
               b(1) = (  1.000000  0.000000  0.000000 )  
               b(2) = (  0.000000  1.000000  0.000000 )  
               b(3) = (  0.000000  0.000000  1.000000 )  


     PseudoPot. # 1 for Si read from file:
     /home/ppiaggi/pseudos/Si_ONCV_PBE_sr.upf
     MD5 check sum: 8553c464762ac42b85b1eed164b4d029
     Pseudo is Norm-conserving, Zval =  4.0
     Generated using ONCVPSP code by D. R. Hamann
     Using radial grid of 1510 points,  4 beta functions with: 
                l(1) =   0
                l(2) =   0
                l(3) =   1
                l(4) =   1

     atomic species   valence    mass     pseudopotential
        Si             4.00    28.08500     Si( 1.00)

     No symmetry found



   Cartesian axes

     site n.     atom                  positions (alat units)
         1           Si  tau(   1) = (   0.0219404   0.5239100   0.0987369  )
         2           Si  tau(   2) = (   0.0099563   0.1019390   0.9188200  )
         3           Si  tau(   3) = (   0.7665110   0.4818140   0.1371370  )
         4           Si  tau(   4) = (   0.5744530   0.7643140   0.8661010  )
         5           Si  tau(   5) = (   0.4139000   0.5136400   0.6830020  )
         6           Si  tau(   6) = (   0.7440310   0.7713740   0.5044740  )
         7           Si  tau(   7) = (   0.8254550   0.3727940   0.4607250  )
         8           Si  tau(   8) = (   0.9854940   0.6363070   0.8958260  )
         9           Si  tau(   9) = (   0.4845990   0.4533220   0.0734654  )
        10           Si  tau(  10) = (   0.4050710   0.2280940   0.9688020  )
        11           Si  tau(  11) = (   0.2631130   0.6000360   0.5090370  )
        12           Si  tau(  12) = (   0.3296370   0.3986440   0.4044170  )
        13           Si  tau(  13) = (   0.2743270   0.2810970   0.2039800  )
        14           Si  tau(  14) = (   0.3693160   0.7810580   0.9680060  )
        15           Si  tau(  15) = (   0.3607890   0.8562740   0.5538960  )
        16           Si  tau(  16) = (   0.9639970   0.9123440   0.1634220  )
        17           Si  tau(  17) = (   0.8460240   0.7872100   0.7493090  )
        18           Si  tau(  18) = (   0.2930710   0.0046441   0.9752970  )
        19           Si  tau(  19) = (   0.6983220   0.3357360   0.8074080  )
        20           Si  tau(  20) = (   0.0326639   0.4452790   0.7567140  )
        21           Si  tau(  21) = (   0.4255840   0.9457340   0.1567770  )
        22           Si  tau(  22) = (   0.4179010   0.6918290   0.3383860  )
        23           Si  tau(  23) = (   0.0981005   0.1013640   0.1294050  )
        24           Si  tau(  24) = (   0.0987875   0.8619010   0.9270830  )
        25           Si  tau(  25) = (   0.1126290   0.7300150   0.1526940  )
        26           Si  tau(  26) = (   0.3708700   0.2719800   0.5708910  )
        27           Si  tau(  27) = (   0.6108820   0.0058516   0.0142970  )
        28           Si  tau(  28) = (   0.9429440   0.2805480   0.1530910  )
        29           Si  tau(  29) = (   0.9382550   0.0232616   0.3655270  )
        30           Si  tau(  30) = (   0.0065014   0.0861110   0.6464230  )
        31           Si  tau(  31) = (   0.8300050   0.9355280   0.9587320  )
        32           Si  tau(  32) = (   0.2208740   0.3296860   0.7855850  )
        33           Si  tau(  33) = (   0.7911020   0.9945350   0.6947650  )
        34           Si  tau(  34) = (   0.2357030   0.0201650   0.3358690  )
        35           Si  tau(  35) = (   0.7749290   0.1930300   0.2717640  )
        36           Si  tau(  36) = (   0.8982580   0.2937130   0.9170450  )
        37           Si  tau(  37) = (   0.1614530   0.8212740   0.3711740  )
        38           Si  tau(  38) = (   0.2078450   0.1154370   0.7533360  )
        39           Si  tau(  39) = (   0.6990620   0.5430140   0.5074980  )
        40           Si  tau(  40) = (   0.8849750   0.5971230   0.3102450  )
        41           Si  tau(  41) = (   0.5394960   0.4765580   0.2940060  )
        42           Si  tau(  42) = (   0.1506650   0.8104860   0.6878470  )
        43           Si  tau(  43) = (   0.5480630   0.7038950   0.6511100  )
        44           Si  tau(  44) = (   0.1126410   0.1626120   0.4352160  )
        45           Si  tau(  45) = (   0.4608180   0.1627570   0.2210970  )
        46           Si  tau(  46) = (   0.4026170   0.0168291   0.7266550  )
        47           Si  tau(  47) = (   0.5425030   0.5276700   0.8635300  )
        48           Si  tau(  48) = (   0.6166190   0.2687420   0.3825360  )
        49           Si  tau(  49) = (   0.0923033   0.3928220   0.3512510  )
        50           Si  tau(  50) = (   0.7700010   0.6407950   0.9766240  )
        51           Si  tau(  51) = (   0.9798960   0.7926790   0.5270350  )
        52           Si  tau(  52) = (   0.5797240   0.3487490   0.6024760  )
        53           Si  tau(  53) = (   0.2535090   0.5854390   0.8391250  )
        54           Si  tau(  54) = (   0.8713290   0.2586700   0.6473760  )
        55           Si  tau(  55) = (   0.0362435   0.5409550   0.5310480  )
        56           Si  tau(  56) = (   0.6058220   0.8619560   0.3141840  )
        57           Si  tau(  57) = (   0.5842590   0.1186840   0.7968950  )
        58           Si  tau(  58) = (   0.3222330   0.6465260   0.1472010  )
        59           Si  tau(  59) = (   0.2246550   0.4403290   0.0271314  )
        60           Si  tau(  60) = (   0.7884730   0.5365160   0.7312740  )
        61           Si  tau(  61) = (   0.7107710   0.0128079   0.4680880  )
        62           Si  tau(  62) = (   0.7602670   0.7800060   0.1776590  )
        63           Si  tau(  63) = (   0.4494580   0.0541012   0.4782400  )
        64           Si  tau(  64) = (   0.6405310   0.2264010   0.0811298  )

     number of k points=     1  Fermi-Dirac smearing, width (Ry)=  0.0100
                       cart. coord. in units 2pi/alat
        k(    1) = (   0.0000000   0.0000000   0.0000000), wk =   2.0000000

     Dense  grid:    90546 G-vectors     FFT dimensions: (  72,  72,  72)

     Estimated max dynamical RAM per process >     145.46 MB

     Estimated total dynamical RAM >     559.74 MB

     Initial potential from superposition of free atoms

     starting charge     255.9608, renormalised to     256.0000
     Starting wfcs are  256 randomized atomic wfcs

     total cpu time spent up to now is        5.0 secs

     Self-consistent Calculation

     iteration #  1     ecut=    30.00 Ry     beta= 0.50
     Davidson diagonalization with overlap
     ethr =  1.00E-02,  avg # of iterations =  3.0

     Threshold (ethr) on eigenvalues was too large:
     Diagonalizing with lowered threshold

     Davidson diagonalization with overlap
     ethr =  3.45E-04,  avg # of iterations =  4.0

     total cpu time spent up to now is        5.3 secs

     total energy              =    -501.22749364 Ry
     estimated scf accuracy    <       1.06994046 Ry

     iteration #  2     ecut=    30.00 Ry     beta= 0.50
     Davidson diagonalization with overlap
     ethr =  4.18E-04,  avg # of iterations =  4.0

     total cpu time spent up to now is        5.4 secs

     total energy              =    -500.84310985 Ry
     estimated scf accuracy    <       4.36494276 Ry

     iteration #  3     ecut=    30.00 Ry     beta= 0.50
     Davidson diagonalization with overlap
     ethr =  4.18E-04,  avg # of iterations =  4.0

     total cpu time spent up to now is        5.5 secs

     total energy              =    -501.24360292 Ry
     estimated scf accuracy    <       2.09650332 Ry

     iteration #  4     ecut=    30.00 Ry     beta= 0.50
     Davidson diagonalization with overlap
     ethr =  4.18E-04,  avg # of iterations =  3.0

     total cpu time spent up to now is        5.6 secs

     total energy              =    -501.38668933 Ry
     estimated scf accuracy    <       0.54287878 Ry

     iteration #  5     ecut=    30.00 Ry     beta= 0.50
     Davidson diagonalization with overlap
     ethr =  2.12E-04,  avg # of iterations =  2.0

     total cpu time spent up to now is        5.7 secs

     total energy              =    -501.41798481 Ry
     estimated scf accuracy    <       0.24628298 Ry

     iteration #  6     ecut=    30.00 Ry     beta= 0.50
     Davidson diagonalization with overlap
     ethr =  9.62E-05,  avg # of iterations =  2.0

     total cpu time spent up to now is        5.8 secs

     total energy              =    -501.44341737 Ry
     estimated scf accuracy    <       0.14915998 Ry

     iteration #  7     ecut=    30.00 Ry     beta= 0.50
     Davidson diagonalization with overlap
     ethr =  5.83E-05,  avg # of iterations =  1.0

     total cpu time spent up to now is        5.9 secs

     total energy              =    -501.45490187 Ry
     estimated scf accuracy    <       0.00924990 Ry

     iteration #  8     ecut=    30.00 Ry     beta= 0.50
     Davidson diagonalization with overlap
     ethr =  3.61E-06,  avg # of iterations = 16.0

     total cpu time spent up to now is        6.1 secs

     total energy              =    -501.45556566 Ry
     estimated scf accuracy    <       0.02278556 Ry

     iteration #  9     ecut=    30.00 Ry     beta= 0.50
     Davidson diagonalization with overlap
     ethr =  3.61E-06,  avg # of iterations =  3.0

     total cpu time spent up to now is        6.2 secs

     total energy              =    -501.45747054 Ry
     estimated scf accuracy    <       0.00241608 Ry

     iteration # 10     ecut=    30.00 Ry     beta= 0.50
     Davidson diagonalization with overlap
     ethr =  9.44E-07,  avg # of iterations =  2.0

     total cpu time spent up to now is        6.3 secs

     total energy              =    -501.45765949 Ry
     estimated scf accuracy    <       0.00094517 Ry

     iteration # 11     ecut=    30.00 Ry     beta= 0.50
     Davidson diagonalization with overlap
     ethr =  3.69E-07,  avg # of iterations =  2.0

     total cpu time spent up to now is        6.4 secs

     total energy              =    -501.45769922 Ry
     estimated scf accuracy    <       0.00067847 Ry

     iteration # 12     ecut=    30.00 Ry     beta= 0.50
     Davidson diagonalization with overlap
     ethr =  2.65E-07,  avg # of iterations =  2.0

     total cpu time spent up to now is        6.5 secs

     total energy              =    -501.45776656 Ry
     estimated scf accuracy    <       0.00028368 Ry

     iteration # 13     ecut=    30.00 Ry     beta= 0.50
     Davidson diagonalization with overlap
     ethr =  1.11E-07,  avg # of iterations =  2.0

     total cpu time spent up to now is        6.6 secs

     total energy              =    -501.45778674 Ry
     estimated scf accuracy    <       0.00005711 Ry

     iteration # 14     ecut=    30.00 Ry     beta= 0.50
     Davidson diagonalization with overlap
     ethr =  2.23E-08,  avg # of iterations =  2.0

     total cpu time spent up to now is        6.7 secs

     total energy              =    -501.45779286 Ry
     estimated scf accuracy    <       0.00002564 Ry

     iteration # 15     ecut=    30.00 Ry     beta= 0.50
     Davidson diagonalization with overlap
     ethr =  1.00E-08,  avg # of iterations =  2.0

     total cpu time spent up to now is        6.8 secs

     total energy              =    -501.45779352 Ry
     estimated scf accuracy    <       0.00001312 Ry

     iteration # 16     ecut=    30.00 Ry     beta= 0.50
     Davidson diagonalization with overlap
     ethr =  5.12E-09,  avg # of iterations =  3.0

     total cpu time spent up to now is        6.9 secs

     total energy              =    -501.45779484 Ry
     estimated scf accuracy    <       0.00001790 Ry

     iteration # 17     ecut=    30.00 Ry     beta= 0.50
     Davidson diagonalization with overlap
     ethr =  5.12E-09,  avg # of iterations =  2.0

     total cpu time spent up to now is        7.0 secs

     total energy              =    -501.45779579 Ry
     estimated scf accuracy    <       0.00000165 Ry

     iteration # 18     ecut=    30.00 Ry     beta= 0.50
     Davidson diagonalization with overlap
     ethr =  6.44E-10,  avg # of iterations =  4.0

     total cpu time spent up to now is        7.1 secs

     total energy              =    -501.45779602 Ry
     estimated scf accuracy    <       0.00000140 Ry

     iteration # 19     ecut=    30.00 Ry     beta= 0.50
     Davidson diagonalization with overlap
     ethr =  5.46E-10,  avg # of iterations =  2.0

     total cpu time spent up to now is        7.2 secs

     End of self-consistent calculation

          k = 0.0000 0.0000 0.0000 ( 11372 PWs)   bands (ev):

    -5.3127  -4.4056  -4.3432  -4.1696  -4.0334  -3.9394  -3.8659  -3.3556
    -3.2884  -3.1882  -3.1181  -3.0661  -2.9163  -2.8789  -2.7815  -2.7444
    -2.5970  -2.5738  -2.5120  -2.0980  -2.0140  -1.9001  -1.7118  -1.5840
    -1.4033  -1.3286  -1.2478  -0.9160  -0.8501  -0.6819  -0.5330  -0.4668
    -0.2552  -0.1656  -0.1114   0.0417   0.1388   0.1578   0.2214   0.3049
     0.4176   0.4958   0.5298   0.6087   0.7820   0.8456   0.8947   0.9898
     1.0340   1.1049   1.2550   1.3266   1.3518   1.5300   1.5546   1.7069
     1.7719   1.8886   2.0059   2.0899   2.1275   2.1753   2.2969   2.5189
     2.5623   2.6418   2.6806   2.7413   2.7900   2.8571   2.9542   3.0021
     3.0704   3.1688   3.2148   3.3192   3.3933   3.4185   3.4511   3.6401
     3.7492   4.1876   4.2745   4.3530   4.4186   4.5454   4.6296   4.7093
     4.7477   4.8308   4.9714   4.9824   5.0066   5.0858   5.1589   5.1725
     5.2816   5.3488   5.4075   5.4699   5.5241   5.5746   5.6655   5.6970
     5.7807   5.8302   5.8930   5.9349   5.9604   6.0439   6.0869   6.1401
     6.1742   6.2529   6.3217   6.3540   6.4067   6.4803   6.5432   6.6229
     6.6864   6.7247   6.8235   6.8569   6.9010   6.9656   6.9952   7.0921
     7.1199   7.1627   7.2266   7.2711   7.3798   7.4216   7.4764   7.4869
     7.5955   7.6286   7.7622   7.7721   7.8677   7.9543   8.0453   8.0619
     8.1495   8.1872   8.2267   8.2719   8.3072   8.3366   8.4958   8.5501
     8.6348   8.7135

     the Fermi energy is     7.0980 ev

!    total energy              =    -501.45779602 Ry
     estimated scf accuracy    <       0.00000019 Ry
     smearing contrib. (-TS)   =      -0.15820544 Ry
     internal energy E=F+TS    =    -501.29959058 Ry

     The total energy is F=E-TS. E is the sum of the following terms:
     one-electron contribution =     193.83969477 Ry
     hartree contribution      =      21.07960210 Ry
     xc contribution           =    -150.33713103 Ry
     ewald contribution        =    -565.88175641 Ry

     convergence has been achieved in  19 iterations

     Forces acting on atoms (cartesian axes, Ry/au):

     atom    1 type  1   force =    -0.02112682    0.01437138    0.01299232
     atom    2 type  1   force =    -0.00672115   -0.02157662   -0.00338049
     atom    3 type  1   force =     0.01120331   -0.00411918    0.02594618
     atom    4 type  1   force =     0.01726872   -0.01921903    0.01447919
     atom    5 type  1   force =    -0.02069575    0.00281026   -0.02505113
     atom    6 type  1   force =    -0.01785877   -0.00867904    0.01738106
     atom    7 type  1   force =     0.03580711   -0.00952792   -0.01725313
     atom    8 type  1   force =    -0.00635472    0.02087930   -0.00547179
     atom    9 type  1   force =    -0.01239927   -0.03928297   -0.01289593
     atom   10 type  1   force =     0.01630925    0.00982559    0.00902338
     atom   11 type  1   force =     0.00214709   -0.00198194   -0.00187522
     atom   12 type  1   force =    -0.00186185    0.04222882   -0.05193794
     atom   13 type  1   force =    -0.01943665   -0.00089778   -0.00895385
     atom   14 type  1   force =    -0.00417217   -0.00500136    0.00236319
     atom   15 type  1   force =    -0.01107860   -0.00372667    0.03242969
     atom   16 type  1   force =    -0.00735648   -0.00464624    0.01425586
     atom   17 type  1   force =     0.01614462   -0.02419906    0.01895041
     atom   18 type  1   force =    -0.02863048    0.00306061   -0.01008607
     atom   19 type  1   force =     0.00273826   -0.01015733   -0.01410614
     atom   20 type  1   force =    -0.04063711   -0.00270744   -0.01229035
     atom   21 type  1   force =     0.03671570    0.01419191    0.01260517
     atom   22 type  1   force =     0.02447062   -0.00821343    0.02659318
     atom   23 type  1   force =     0.01843275    0.00314265    0.00245772
     atom   24 type  1   force =     0.01056649   -0.01502396   -0.00974097
     atom   25 type  1   force =    -0.01803343    0.01163806    0.00241012
     atom   26 type  1   force =     0.00433278   -0.04046803    0.04985412
     atom   27 type  1   force =     0.01062986    0.00927811   -0.02468478
     atom   28 type  1   force =     0.00800021    0.01609560   -0.00817044
     atom   29 type  1   force =    -0.03148396   -0.00157590   -0.01159780
     atom   30 type  1   force =     0.00791048   -0.00149077   -0.02986743
     atom   31 type  1   force =     0.01758795   -0.00283172   -0.00469927
     atom   32 type  1   force =     0.03771561    0.01213355    0.00938861
     atom   33 type  1   force =    -0.02344557    0.03031058   -0.01602088
     atom   34 type  1   force =     0.04433722   -0.00439641   -0.04108053
     atom   35 type  1   force =     0.06504891   -0.03273715   -0.01776407
     atom   36 type  1   force =    -0.00322781    0.01016882   -0.01079019
     atom   37 type  1   force =    -0.01392545   -0.03386704    0.01353953
     atom   38 type  1   force =    -0.03842705   -0.00787784    0.03033356
     atom   39 type  1   force =    -0.02641756    0.01356767    0.03223690
     atom   40 type  1   force =    -0.02240088    0.00616030   -0.01375177
     atom   41 type  1   force =    -0.01113652    0.00704968    0.01197473
     atom   42 type  1   force =     0.01147164   -0.00506329   -0.00614028
     atom   43 type  1   force =     0.00279483    0.00547239   -0.01395940
     atom   44 type  1   force =    -0.04986612    0.04141452    0.02993676
     atom   45 type  1   force =     0.01515112   -0.00873646   -0.01306027
     atom   46 type  1   force =    -0.01368668   -0.02969777   -0.02182456
     atom   47 type  1   force =     0.03800328    0.01114964    0.01053081
     atom   48 type  1   force =    -0.06636329    0.02181038    0.02176975
     atom   49 type  1   force =    -0.00937245   -0.03894354    0.00432964
     atom   50 type  1   force =    -0.02081885    0.02867346    0.00173460
     atom   51 type  1   force =     0.01466154   -0.02056686    0.01216804
     atom   52 type  1   force =     0.01405533    0.01906903   -0.01432687
     atom   53 type  1   force =     0.00348767    0.00691585    0.00642905
     atom   54 type  1   force =     0.01004673    0.02763736    0.02043875
     atom   55 type  1   force =     0.00781445    0.01672139   -0.00017994
     atom   56 type  1   force =    -0.03524403    0.00244520   -0.00284667
     atom   57 type  1   force =     0.03496089   -0.00051715    0.05262936
     atom   58 type  1   force =     0.00012656   -0.00074948   -0.03733443
     atom   59 type  1   force =     0.02939582   -0.00406276   -0.00681116
     atom   60 type  1   force =    -0.01783468   -0.00380919   -0.01181807
     atom   61 type  1   force =    -0.00883729   -0.00278035   -0.00399813
     atom   62 type  1   force =     0.04871011   -0.02175175   -0.01923735
     atom   63 type  1   force =     0.00924352    0.01965855   -0.00303906
     atom   64 type  1   force =    -0.01843897    0.01300274    0.00686470

     Total force =     0.291718     Total SCF correction =     0.000793


     Computing stress (Cartesian axis) and pressure

          total   stress  (Ry/bohr**3)                   (kbar)     P=      -44.88
  -0.00031940  -0.00000510  -0.00000269          -46.98       -0.75       -0.40
  -0.00000510  -0.00027609   0.00000972           -0.75      -40.61        1.43
  -0.00000269   0.00000972  -0.00031981           -0.40        1.43      -47.05

 
     init_run     :      1.10s CPU      4.95s WALL (       1 calls)
     electrons    :      2.00s CPU      2.17s WALL (       1 calls)
     forces       :      0.04s CPU      0.04s WALL (       1 calls)
     stress       :      0.15s CPU      0.16s WALL (       1 calls)

     Called by init_run:
     wfcinit      :      0.57s CPU      4.23s WALL (       1 calls)
                                        4.23s GPU  (       1 calls)
     potinit      :      0.05s CPU      0.15s WALL (       1 calls)
     hinit0       :      0.46s CPU      0.50s WALL (       1 calls)

     Called by electrons:
     c_bands      :      1.18s CPU      1.27s WALL (      20 calls)
     sum_band     :      0.40s CPU      0.45s WALL (      20 calls)
     v_of_rho     :      0.19s CPU      0.30s WALL (      20 calls)
     mix_rho      :      0.19s CPU      0.21s WALL (      20 calls)

     Called by c_bands:
     init_us_2    :      0.08s CPU      0.08s WALL (      41 calls)
     init_us_2:gp :      0.07s CPU      0.08s WALL (      41 calls)
     regterg      :      1.01s CPU      1.09s WALL (      20 calls)

     Called by *egterg:
     rdiaghg      :      0.40s CPU      1.16s WALL (      84 calls)
                                        1.15s GPU  (      84 calls)
     h_psi        :      0.99s CPU      3.94s WALL (      86 calls)
                                        3.94s GPU  (      86 calls)
     g_psi        :      0.00s CPU      0.00s WALL (      65 calls)
                                        0.00s GPU  (      65 calls)

     Called by h_psi:
     h_psi:calbec :      0.54s CPU      3.40s WALL (      86 calls)
                                        3.40s GPU  (      86 calls)
     vloc_psi     :      0.40s CPU      0.48s WALL (      86 calls)
                                        0.47s GPU  (      86 calls)
     add_vuspsi   :      0.03s CPU      0.05s WALL (      86 calls)
                                        0.05s GPU  (      86 calls)

     General routines
     calbec       :      0.54s CPU      3.41s WALL (      91 calls)
     fft          :      0.63s CPU      0.77s WALL (     167 calls)
                                        0.14s GPU  (     106 calls)
     ffts         :      0.05s CPU      0.05s WALL (      20 calls)
     fftw         :      0.49s CPU      0.64s WALL (    2094 calls)
                                        0.56s GPU  (    2094 calls)
 
     Parallel routines
 
     PWSCF        :      3.34s CPU      7.40s WALL

 
   This run was terminated on:  11: 0:36  10May2023            

=------------------------------------------------------------------------------=
   JOB DONE.
=------------------------------------------------------------------------------=
