An instance of this daemon is already running

     Program PWSCF v.7.1 starts on 10May2023 at 10:55:27 

     This program is part of the open-source Quantum ESPRESSO suite
     for quantum simulation of materials; please cite
         "P. Giannozzi et al., J. Phys.:Condens. Matter 21 395502 (2009);
         "P. Giannozzi et al., J. Phys.:Condens. Matter 29 465901 (2017);
         "P. Giannozzi et al., J. Chem. Phys. 152 154105 (2020);
          URL http://www.quantum-espresso.org", 
     in publications or presentations arising from this work. More details at
     http://www.quantum-espresso.org/quote

     Parallel version (MPI & OpenMP), running on       4 processor cores
     Number of MPI processes:                 4
     Threads/MPI process:                     1

     MPI processes distributed on     1 nodes
     753558 MiB available memory on the printing compute node when the environment starts
 
     Reading input from pw-si-9.in
Warning: card &CELL ignored
Warning: card / ignored

     Current dimensions of program PWSCF are:
     Max number of different atomic species (ntypx) = 10
     Max number of k-points (npk) =  40000
     Max angular momentum in pseudopotentials (lmaxx) =  4

     IMPORTANT: XC functional enforced from input :
     Exchange-correlation= PBE
                           (   1   4   3   4   0   0   0)
     Any further DFT definition will be discarded
     Please, verify this is what you really want


     gamma-point specific algorithms are used
 
     K-points division:     npool     =       2
     R & G space division:  proc/nbgrp/npool/nimage =       2
     Subspace diagonalization in iterative solution of the eigenvalue problem:
     a serial algorithm will be used

     Message from routine divide_et_impera:
     suboptimal parallelization: some nodes have no k-points
 
     Parallelization info
     --------------------
     sticks:   dense  smooth     PW     G-vecs:    dense   smooth      PW
     Min        1915    1915    502                89270    89270   12102
     Max        1918    1918    503                89271    89271   12105
     Sum        3833    3833   1005               178541   178541   24207
 
     Using Slab Decomposition
 


     bravais-lattice index     =            0
     lattice parameter (alat)  =      20.0386  a.u.
     unit-cell volume          =    8046.3804 (a.u.)^3
     number of atoms/cell      =           64
     number of atomic types    =            1
     number of electrons       =       256.00
     number of Kohn-Sham states=          154
     kinetic-energy cutoff     =      30.0000  Ry
     charge density cutoff     =     120.0000  Ry
     scf convergence threshold =      1.0E-06
     mixing beta               =       0.5000
     number of iterations used =            8  plain     mixing
     Exchange-correlation= PBE
                           (   1   4   3   4   0   0   0)

     GPU acceleration is ACTIVE.
     GPU-aware MPI enabled

     Message from routine print_cuda_info:
     High GPU oversubscription detected. Are you sure this is what you want?

     celldm(1)=  20.038576  celldm(2)=   0.000000  celldm(3)=   0.000000
     celldm(4)=   0.000000  celldm(5)=   0.000000  celldm(6)=   0.000000

     crystal axes: (cart. coord. in units of alat)
               a(1) = (   1.000000   0.000000   0.000000 )  
               a(2) = (   0.000000   1.000000   0.000000 )  
               a(3) = (   0.000000   0.000000   1.000000 )  

     reciprocal axes: (cart. coord. in units 2 pi/alat)
               b(1) = (  1.000000  0.000000  0.000000 )  
               b(2) = (  0.000000  1.000000  0.000000 )  
               b(3) = (  0.000000  0.000000  1.000000 )  


     PseudoPot. # 1 for Si read from file:
     /home/ppiaggi/pseudos/Si_ONCV_PBE_sr.upf
     MD5 check sum: 8553c464762ac42b85b1eed164b4d029
     Pseudo is Norm-conserving, Zval =  4.0
     Generated using ONCVPSP code by D. R. Hamann
     Using radial grid of 1510 points,  4 beta functions with: 
                l(1) =   0
                l(2) =   0
                l(3) =   1
                l(4) =   1

     atomic species   valence    mass     pseudopotential
        Si             4.00    28.08500     Si( 1.00)

     No symmetry found



   Cartesian axes

     site n.     atom                  positions (alat units)
         1           Si  tau(   1) = (   0.6872380   0.7475390   0.1079320  )
         2           Si  tau(   2) = (   0.6187550   0.9445820   0.5234300  )
         3           Si  tau(   3) = (   0.4724030   0.6787290   0.0794552  )
         4           Si  tau(   4) = (   0.4236320   0.2439290   0.1117620  )
         5           Si  tau(   5) = (   0.2984670   0.8613350   0.6919740  )
         6           Si  tau(   6) = (   0.8310150   0.9622070   0.7130060  )
         7           Si  tau(   7) = (   0.8770400   0.7862640   0.5801160  )
         8           Si  tau(   8) = (   0.1944040   0.5601650   0.0319826  )
         9           Si  tau(   9) = (   0.5587580   0.4172350   0.7314050  )
        10           Si  tau(  10) = (   0.4601710   0.7508340   0.3603080  )
        11           Si  tau(  11) = (   0.0238442   0.0401232   0.8104030  )
        12           Si  tau(  12) = (   0.8365720   0.9850750   0.3364080  )
        13           Si  tau(  13) = (   0.0090390   0.3721290   0.0798321  )
        14           Si  tau(  14) = (   0.4393200   0.9767460   0.9121670  )
        15           Si  tau(  15) = (   0.3330770   0.5007460   0.6656780  )
        16           Si  tau(  16) = (   0.0870405   0.9206020   0.5849110  )
        17           Si  tau(  17) = (   0.4177350   0.0894387   0.6669080  )
        18           Si  tau(  18) = (   0.7048580   0.4464050   0.9994360  )
        19           Si  tau(  19) = (   0.3251320   0.2742880   0.3995000  )
        20           Si  tau(  20) = (   0.0406107   0.3593740   0.3365510  )
        21           Si  tau(  21) = (   0.2096020   0.9151920   0.9306520  )
        22           Si  tau(  22) = (   0.7616420   0.4397870   0.5596480  )
        23           Si  tau(  23) = (   0.4670790   0.6689510   0.8521990  )
        24           Si  tau(  24) = (   0.8602510   0.9727900   0.0226877  )
        25           Si  tau(  25) = (   0.7327760   0.2193820   0.9133830  )
        26           Si  tau(  26) = (   0.2319100   0.0890260   0.0857461  )
        27           Si  tau(  27) = (   0.1785590   0.2620260   0.9417900  )
        28           Si  tau(  28) = (   0.4751390   0.7297140   0.5973800  )
        29           Si  tau(  29) = (   0.7057430   0.6550590   0.5828490  )
        30           Si  tau(  30) = (   0.2343150   0.7626200   0.1515150  )
        31           Si  tau(  31) = (   0.5412330   0.2526780   0.5525860  )
        32           Si  tau(  32) = (   0.4112800   0.9241220   0.1463690  )
        33           Si  tau(  33) = (   0.5245740   0.1472610   0.2878860  )
        34           Si  tau(  34) = (   0.6903380   0.7372640   0.3462030  )
        35           Si  tau(  35) = (   0.7296260   0.2481970   0.3625300  )
        36           Si  tau(  36) = (   0.8689460   0.5443950   0.1190630  )
        37           Si  tau(  37) = (   0.1388250   0.3484420   0.5672030  )
        38           Si  tau(  38) = (   0.0134673   0.7020230   0.0078776  )
        39           Si  tau(  39) = (   0.6822580   0.0061478   0.1771590  )
        40           Si  tau(  40) = (   0.7539380   0.1653090   0.6695060  )
        41           Si  tau(  41) = (   0.3221110   0.4293690   0.8911790  )
        42           Si  tau(  42) = (   0.1947030   0.6626410   0.8017310  )
        43           Si  tau(  43) = (   0.6659510   0.5750460   0.8272150  )
        44           Si  tau(  44) = (   0.4949200   0.4480360   0.0743941  )
        45           Si  tau(  45) = (   0.5064980   0.2130480   0.8757980  )
        46           Si  tau(  46) = (   0.9154020   0.1859420   0.4937050  )
        47           Si  tau(  47) = (   0.9376070   0.4117810   0.6706160  )
        48           Si  tau(  48) = (   0.2540100   0.6053980   0.3419580  )
        49           Si  tau(  49) = (   0.1409950   0.0751201   0.4379020  )
        50           Si  tau(  50) = (   0.9738240   0.2700670   0.8383390  )
        51           Si  tau(  51) = (   0.3980580   0.0016089   0.4400960  )
        52           Si  tau(  52) = (   0.0822020   0.5910430   0.4845800  )
        53           Si  tau(  53) = (   0.4568340   0.4665600   0.4614570  )
        54           Si  tau(  54) = (   0.0339965   0.9067570   0.1510190  )
        55           Si  tau(  55) = (   0.8805070   0.5218780   0.3366750  )
        56           Si  tau(  56) = (   0.9602300   0.7642030   0.3369340  )
        57           Si  tau(  57) = (   0.8325960   0.2106790   0.1506830  )
        58           Si  tau(  58) = (   0.0459555   0.1162670   0.2359830  )
        59           Si  tau(  59) = (   0.8369760   0.7660760   0.8815970  )
        60           Si  tau(  60) = (   0.1921090   0.1397290   0.6819800  )
        61           Si  tau(  61) = (   0.9708810   0.6342370   0.7308550  )
        62           Si  tau(  62) = (   0.2438700   0.4148050   0.2139700  )
        63           Si  tau(  63) = (   0.6129530   0.8655470   0.7754800  )
        64           Si  tau(  64) = (   0.6284240   0.4749470   0.2863520  )

     number of k points=     1  Fermi-Dirac smearing, width (Ry)=  0.0100
                       cart. coord. in units 2pi/alat
        k(    1) = (   0.0000000   0.0000000   0.0000000), wk =   2.0000000

     Dense  grid:    89271 G-vectors     FFT dimensions: (  72,  72,  72)

     Estimated max dynamical RAM per process >     143.59 MB

     Estimated total dynamical RAM >     552.57 MB

     Initial potential from superposition of free atoms

     starting charge     255.9608, renormalised to     256.0000
     Starting wfcs are  256 randomized atomic wfcs

     total cpu time spent up to now is        5.0 secs

     Self-consistent Calculation

     iteration #  1     ecut=    30.00 Ry     beta= 0.50
     Davidson diagonalization with overlap
     ethr =  1.00E-02,  avg # of iterations =  3.0

     Threshold (ethr) on eigenvalues was too large:
     Diagonalizing with lowered threshold

     Davidson diagonalization with overlap
     ethr =  3.50E-04,  avg # of iterations =  5.0

     total cpu time spent up to now is        5.3 secs

     total energy              =    -501.28500667 Ry
     estimated scf accuracy    <       1.09952367 Ry

     iteration #  2     ecut=    30.00 Ry     beta= 0.50
     Davidson diagonalization with overlap
     ethr =  4.30E-04,  avg # of iterations =  4.0

     total cpu time spent up to now is        5.4 secs

     total energy              =    -500.87746161 Ry
     estimated scf accuracy    <       4.81388069 Ry

     iteration #  3     ecut=    30.00 Ry     beta= 0.50
     Davidson diagonalization with overlap
     ethr =  4.30E-04,  avg # of iterations =  3.0

     total cpu time spent up to now is        5.5 secs

     total energy              =    -501.34971223 Ry
     estimated scf accuracy    <       1.76187549 Ry

     iteration #  4     ecut=    30.00 Ry     beta= 0.50
     Davidson diagonalization with overlap
     ethr =  4.30E-04,  avg # of iterations =  2.0

     total cpu time spent up to now is        5.6 secs

     total energy              =    -501.45997819 Ry
     estimated scf accuracy    <       0.51875400 Ry

     iteration #  5     ecut=    30.00 Ry     beta= 0.50
     Davidson diagonalization with overlap
     ethr =  2.03E-04,  avg # of iterations =  2.0

     total cpu time spent up to now is        5.7 secs

     total energy              =    -501.47826247 Ry
     estimated scf accuracy    <       0.58045133 Ry

     iteration #  6     ecut=    30.00 Ry     beta= 0.50
     Davidson diagonalization with overlap
     ethr =  2.03E-04,  avg # of iterations =  2.0

     total cpu time spent up to now is        5.8 secs

     total energy              =    -501.52470582 Ry
     estimated scf accuracy    <       0.06387293 Ry

     iteration #  7     ecut=    30.00 Ry     beta= 0.50
     Davidson diagonalization with overlap
     ethr =  2.50E-05,  avg # of iterations =  2.0

     total cpu time spent up to now is        5.9 secs

     total energy              =    -501.53228982 Ry
     estimated scf accuracy    <       0.02570122 Ry

     iteration #  8     ecut=    30.00 Ry     beta= 0.50
     Davidson diagonalization with overlap
     ethr =  1.00E-05,  avg # of iterations = 19.0

     total cpu time spent up to now is        6.1 secs

     total energy              =    -501.53454894 Ry
     estimated scf accuracy    <       0.02571986 Ry

     iteration #  9     ecut=    30.00 Ry     beta= 0.50
     Davidson diagonalization with overlap
     ethr =  1.00E-05,  avg # of iterations =  1.0

     total cpu time spent up to now is        6.2 secs

     total energy              =    -501.53633952 Ry
     estimated scf accuracy    <       0.00219716 Ry

     iteration # 10     ecut=    30.00 Ry     beta= 0.50
     Davidson diagonalization with overlap
     ethr =  8.58E-07,  avg # of iterations =  4.0

     total cpu time spent up to now is        6.3 secs

     total energy              =    -501.53660256 Ry
     estimated scf accuracy    <       0.00307030 Ry

     iteration # 11     ecut=    30.00 Ry     beta= 0.50
     Davidson diagonalization with overlap
     ethr =  8.58E-07,  avg # of iterations =  2.0

     total cpu time spent up to now is        6.4 secs

     total energy              =    -501.53681449 Ry
     estimated scf accuracy    <       0.00043171 Ry

     iteration # 12     ecut=    30.00 Ry     beta= 0.50
     Davidson diagonalization with overlap
     ethr =  1.69E-07,  avg # of iterations =  2.0

     total cpu time spent up to now is        6.5 secs

     total energy              =    -501.53686195 Ry
     estimated scf accuracy    <       0.00020617 Ry

     iteration # 13     ecut=    30.00 Ry     beta= 0.50
     Davidson diagonalization with overlap
     ethr =  8.05E-08,  avg # of iterations =  2.0

     total cpu time spent up to now is        6.6 secs

     total energy              =    -501.53687651 Ry
     estimated scf accuracy    <       0.00021992 Ry

     iteration # 14     ecut=    30.00 Ry     beta= 0.50
     Davidson diagonalization with overlap
     ethr =  8.05E-08,  avg # of iterations =  2.0

     total cpu time spent up to now is        6.7 secs

     total energy              =    -501.53688982 Ry
     estimated scf accuracy    <       0.00002068 Ry

     iteration # 15     ecut=    30.00 Ry     beta= 0.50
     Davidson diagonalization with overlap
     ethr =  8.08E-09,  avg # of iterations =  3.0

     total cpu time spent up to now is        6.8 secs

     total energy              =    -501.53689289 Ry
     estimated scf accuracy    <       0.00001765 Ry

     iteration # 16     ecut=    30.00 Ry     beta= 0.50
     Davidson diagonalization with overlap
     ethr =  6.89E-09,  avg # of iterations =  2.0

     total cpu time spent up to now is        6.9 secs

     total energy              =    -501.53689417 Ry
     estimated scf accuracy    <       0.00000427 Ry

     iteration # 17     ecut=    30.00 Ry     beta= 0.50
     Davidson diagonalization with overlap
     ethr =  1.67E-09,  avg # of iterations =  2.0

     total cpu time spent up to now is        7.0 secs

     total energy              =    -501.53689449 Ry
     estimated scf accuracy    <       0.00000212 Ry

     iteration # 18     ecut=    30.00 Ry     beta= 0.50
     Davidson diagonalization with overlap
     ethr =  8.27E-10,  avg # of iterations =  2.0

     total cpu time spent up to now is        7.1 secs

     total energy              =    -501.53689460 Ry
     estimated scf accuracy    <       0.00000210 Ry

     iteration # 19     ecut=    30.00 Ry     beta= 0.50
     Davidson diagonalization with overlap
     ethr =  8.20E-10,  avg # of iterations =  2.0

     total cpu time spent up to now is        7.2 secs

     End of self-consistent calculation

          k = 0.0000 0.0000 0.0000 ( 11168 PWs)   bands (ev):

    -5.2292  -4.2791  -4.2437  -4.0410  -4.0192  -3.8916  -3.7047  -3.2293
    -3.1530  -3.1055  -3.0199  -2.9495  -2.8555  -2.7282  -2.6958  -2.5766
    -2.4888  -2.3649  -2.1395  -1.9851  -1.8445  -1.7808  -1.6301  -1.3678
    -1.3159  -1.2746  -1.1139  -0.9220  -0.6273  -0.4168  -0.3649  -0.2213
    -0.1008   0.0519   0.1514   0.2297   0.2480   0.2990   0.3457   0.4572
     0.5111   0.6027   0.6953   0.8051   0.8646   0.9654   1.0209   1.2065
     1.2324   1.2991   1.4236   1.4503   1.5393   1.6609   1.6760   1.7270
     1.8242   1.9943   2.1855   2.2253   2.3374   2.4046   2.4663   2.5264
     2.6134   2.6329   2.6866   2.7744   2.8878   2.9738   3.0332   3.0730
     3.1820   3.2442   3.2772   3.2950   3.5379   3.6404   3.6678   3.8679
     4.0356   4.2879   4.3121   4.5230   4.6788   4.7623   4.8221   4.8801
     4.9252   5.0074   5.1470   5.2256   5.2719   5.3299   5.3605   5.4165
     5.4627   5.5632   5.5862   5.6693   5.6968   5.7911   5.8248   5.9095
     5.9479   5.9987   6.1020   6.1236   6.2043   6.2181   6.2884   6.2905
     6.3841   6.4032   6.4860   6.4900   6.5443   6.5626   6.7001   6.7948
     6.8101   6.8229   6.8559   6.9653   7.0110   7.0249   7.0620   7.1250
     7.1569   7.2403   7.3366   7.3726   7.4569   7.5412   7.6744   7.6955
     7.8085   7.8751   7.9991   8.0270   8.1027   8.1356   8.2017   8.2612
     8.2829   8.3535   8.4483   8.5486   8.6843   8.7329   8.7420   8.7608
     8.8441   8.8651

     the Fermi energy is     7.1832 ev

!    total energy              =    -501.53689438 Ry
     estimated scf accuracy    <       0.00000050 Ry
     smearing contrib. (-TS)   =      -0.15156518 Ry
     internal energy E=F+TS    =    -501.38532920 Ry

     The total energy is F=E-TS. E is the sum of the following terms:
     one-electron contribution =     196.36878216 Ry
     hartree contribution      =      21.39658384 Ry
     xc contribution           =    -150.67470180 Ry
     ewald contribution        =    -568.47599341 Ry

     convergence has been achieved in  19 iterations

     Forces acting on atoms (cartesian axes, Ry/au):

     atom    1 type  1   force =     0.00658735    0.01484246    0.01975597
     atom    2 type  1   force =    -0.00358448   -0.02279015    0.00835572
     atom    3 type  1   force =    -0.00740408   -0.01479378   -0.00050542
     atom    4 type  1   force =    -0.04823907   -0.00621937    0.00001124
     atom    5 type  1   force =    -0.01885013   -0.01059662    0.01893577
     atom    6 type  1   force =    -0.01549664   -0.02588165    0.01762268
     atom    7 type  1   force =     0.04868286    0.02186767   -0.01523246
     atom    8 type  1   force =    -0.01311208    0.01692083   -0.00652853
     atom    9 type  1   force =    -0.02393484   -0.05866489   -0.03254238
     atom   10 type  1   force =    -0.03119782    0.03329853   -0.00180026
     atom   11 type  1   force =     0.01252557    0.00236479    0.00410638
     atom   12 type  1   force =     0.01941147   -0.00273594    0.01289704
     atom   13 type  1   force =     0.01620866   -0.01771886    0.01805564
     atom   14 type  1   force =    -0.00063037   -0.01033812   -0.01516911
     atom   15 type  1   force =    -0.00604336    0.00727997    0.00742244
     atom   16 type  1   force =     0.01168943   -0.00458274    0.02347816
     atom   17 type  1   force =    -0.02049032    0.00870285    0.00073772
     atom   18 type  1   force =     0.00320163   -0.03762285   -0.01689434
     atom   19 type  1   force =    -0.02254087   -0.00147405   -0.00661105
     atom   20 type  1   force =     0.03364946   -0.01006061   -0.00001827
     atom   21 type  1   force =    -0.01234612   -0.00795615   -0.01033714
     atom   22 type  1   force =    -0.04189465   -0.01348351   -0.04882852
     atom   23 type  1   force =    -0.01091824    0.01692574   -0.01831233
     atom   24 type  1   force =    -0.01443395   -0.00772455   -0.02895853
     atom   25 type  1   force =     0.01759229    0.03166780    0.00616075
     atom   26 type  1   force =     0.00478829    0.02930263   -0.00048571
     atom   27 type  1   force =    -0.01130482    0.00100236   -0.00390039
     atom   28 type  1   force =     0.01070590    0.00338905    0.02646877
     atom   29 type  1   force =    -0.05066601   -0.00899925   -0.01121199
     atom   30 type  1   force =     0.01375579    0.00371766    0.00437884
     atom   31 type  1   force =     0.03594128    0.01505550    0.02636164
     atom   32 type  1   force =    -0.01938922   -0.02278416    0.00362129
     atom   33 type  1   force =     0.01366704   -0.02125713    0.01063876
     atom   34 type  1   force =     0.00782603   -0.00415630    0.00520493
     atom   35 type  1   force =    -0.03644040    0.03361687    0.00210400
     atom   36 type  1   force =     0.00117485    0.02177504   -0.01785994
     atom   37 type  1   force =     0.01765186    0.00144505   -0.01830268
     atom   38 type  1   force =     0.01312577   -0.00282550    0.01122633
     atom   39 type  1   force =     0.00211459   -0.01729152    0.00341318
     atom   40 type  1   force =    -0.01257685    0.00541178   -0.01417490
     atom   41 type  1   force =     0.02004746    0.01126843   -0.01297795
     atom   42 type  1   force =     0.01214569    0.00928748   -0.00045612
     atom   43 type  1   force =     0.03752293    0.03940204   -0.00874783
     atom   44 type  1   force =     0.01283566    0.02595815    0.00721578
     atom   45 type  1   force =    -0.00651134   -0.00255687    0.00241245
     atom   46 type  1   force =    -0.00672649   -0.00388601    0.00325020
     atom   47 type  1   force =     0.05304532    0.01296929    0.01916809
     atom   48 type  1   force =     0.03099622    0.01864851   -0.02244949
     atom   49 type  1   force =     0.02670137    0.01329120    0.00156332
     atom   50 type  1   force =    -0.01744351   -0.03675595    0.00958605
     atom   51 type  1   force =     0.01425503    0.00261824   -0.01539605
     atom   52 type  1   force =    -0.02132784   -0.00621478   -0.00794416
     atom   53 type  1   force =    -0.01113479   -0.01091030   -0.00618121
     atom   54 type  1   force =     0.01414395   -0.05479380    0.01564048
     atom   55 type  1   force =    -0.01080103    0.02178838    0.03122919
     atom   56 type  1   force =    -0.02028535    0.00550950    0.03989062
     atom   57 type  1   force =     0.02975505   -0.01567022   -0.01594669
     atom   58 type  1   force =    -0.00413248    0.02191447    0.00376150
     atom   59 type  1   force =    -0.02128243    0.02348920   -0.00316870
     atom   60 type  1   force =     0.00297262    0.01670354   -0.01507631
     atom   61 type  1   force =     0.02099183   -0.00865439   -0.01313700
     atom   62 type  1   force =    -0.01111962   -0.01906529    0.02351076
     atom   63 type  1   force =    -0.00954074    0.00280318   -0.01193707
     atom   64 type  1   force =    -0.00391332   -0.00577284    0.01290678

     Total force =     0.267981     Total SCF correction =     0.001425


     Computing stress (Cartesian axis) and pressure

          total   stress  (Ry/bohr**3)                   (kbar)     P=      -41.49
  -0.00027833  -0.00000517   0.00006910          -40.94       -0.76       10.16
  -0.00000517  -0.00028031   0.00003682           -0.76      -41.23        5.42
   0.00006910   0.00003682  -0.00028742           10.16        5.42      -42.28

 
     init_run     :      1.08s CPU      4.94s WALL (       1 calls)
     electrons    :      1.99s CPU      2.15s WALL (       1 calls)
     forces       :      0.04s CPU      0.04s WALL (       1 calls)
     stress       :      0.15s CPU      0.16s WALL (       1 calls)

     Called by init_run:
     wfcinit      :      0.53s CPU      4.21s WALL (       1 calls)
                                        4.21s GPU  (       1 calls)
     potinit      :      0.06s CPU      0.16s WALL (       1 calls)
     hinit0       :      0.47s CPU      0.50s WALL (       1 calls)

     Called by electrons:
     c_bands      :      1.18s CPU      1.25s WALL (      20 calls)
     sum_band     :      0.40s CPU      0.45s WALL (      20 calls)
     v_of_rho     :      0.20s CPU      0.30s WALL (      20 calls)
     mix_rho      :      0.19s CPU      0.20s WALL (      20 calls)

     Called by c_bands:
     init_us_2    :      0.07s CPU      0.08s WALL (      41 calls)
     init_us_2:gp :      0.07s CPU      0.08s WALL (      41 calls)
     regterg      :      1.00s CPU      1.06s WALL (      20 calls)

     Called by *egterg:
     rdiaghg      :      0.41s CPU      1.16s WALL (      85 calls)
                                        1.14s GPU  (      85 calls)
     h_psi        :      0.94s CPU      3.91s WALL (      87 calls)
                                        3.90s GPU  (      87 calls)
     g_psi        :      0.00s CPU      0.00s WALL (      66 calls)
                                        0.00s GPU  (      66 calls)

     Called by h_psi:
     h_psi:calbec :      0.49s CPU      3.38s WALL (      87 calls)
                                        3.38s GPU  (      87 calls)
     vloc_psi     :      0.40s CPU      0.46s WALL (      87 calls)
                                        0.46s GPU  (      87 calls)
     add_vuspsi   :      0.03s CPU      0.05s WALL (      87 calls)
                                        0.05s GPU  (      87 calls)

     General routines
     calbec       :      0.50s CPU      3.39s WALL (      92 calls)
     fft          :      0.64s CPU      0.77s WALL (     167 calls)
                                        0.14s GPU  (     106 calls)
     ffts         :      0.04s CPU      0.05s WALL (      20 calls)
     fftw         :      0.49s CPU      0.63s WALL (    2096 calls)
                                        0.55s GPU  (    2096 calls)
 
     Parallel routines
 
     PWSCF        :      3.31s CPU      7.38s WALL

 
   This run was terminated on:  10:55:34  10May2023            

=------------------------------------------------------------------------------=
   JOB DONE.
=------------------------------------------------------------------------------=
