An instance of this daemon is already running

     Program PWSCF v.7.1 starts on 10May2023 at 11: 9: 3 

     This program is part of the open-source Quantum ESPRESSO suite
     for quantum simulation of materials; please cite
         "P. Giannozzi et al., J. Phys.:Condens. Matter 21 395502 (2009);
         "P. Giannozzi et al., J. Phys.:Condens. Matter 29 465901 (2017);
         "P. Giannozzi et al., J. Chem. Phys. 152 154105 (2020);
          URL http://www.quantum-espresso.org", 
     in publications or presentations arising from this work. More details at
     http://www.quantum-espresso.org/quote

     Parallel version (MPI & OpenMP), running on       4 processor cores
     Number of MPI processes:                 4
     Threads/MPI process:                     1

     MPI processes distributed on     1 nodes
     753570 MiB available memory on the printing compute node when the environment starts
 
     Reading input from pw-si-93.in
Warning: card &CELL ignored
Warning: card / ignored

     Current dimensions of program PWSCF are:
     Max number of different atomic species (ntypx) = 10
     Max number of k-points (npk) =  40000
     Max angular momentum in pseudopotentials (lmaxx) =  4

     IMPORTANT: XC functional enforced from input :
     Exchange-correlation= PBE
                           (   1   4   3   4   0   0   0)
     Any further DFT definition will be discarded
     Please, verify this is what you really want


     gamma-point specific algorithms are used
 
     K-points division:     npool     =       2
     R & G space division:  proc/nbgrp/npool/nimage =       2
     Subspace diagonalization in iterative solution of the eigenvalue problem:
     a serial algorithm will be used

     Message from routine divide_et_impera:
     suboptimal parallelization: some nodes have no k-points
 
     Parallelization info
     --------------------
     sticks:   dense  smooth     PW     G-vecs:    dense   smooth      PW
     Min        1953    1953    519                91863    91863   12442
     Max        1956    1956    522                91868    91868   12443
     Sum        3909    3909   1041               183731   183731   24885
 
     Using Slab Decomposition
 


     bravais-lattice index     =            0
     lattice parameter (alat)  =      20.2227  a.u.
     unit-cell volume          =    8270.2514 (a.u.)^3
     number of atoms/cell      =           64
     number of atomic types    =            1
     number of electrons       =       256.00
     number of Kohn-Sham states=          154
     kinetic-energy cutoff     =      30.0000  Ry
     charge density cutoff     =     120.0000  Ry
     scf convergence threshold =      1.0E-06
     mixing beta               =       0.5000
     number of iterations used =            8  plain     mixing
     Exchange-correlation= PBE
                           (   1   4   3   4   0   0   0)

     GPU acceleration is ACTIVE.
     GPU-aware MPI enabled

     Message from routine print_cuda_info:
     High GPU oversubscription detected. Are you sure this is what you want?

     celldm(1)=  20.222720  celldm(2)=   0.000000  celldm(3)=   0.000000
     celldm(4)=   0.000000  celldm(5)=   0.000000  celldm(6)=   0.000000

     crystal axes: (cart. coord. in units of alat)
               a(1) = (   1.000000   0.000000   0.000000 )  
               a(2) = (   0.000000   1.000000   0.000000 )  
               a(3) = (   0.000000   0.000000   1.000000 )  

     reciprocal axes: (cart. coord. in units 2 pi/alat)
               b(1) = (  1.000000  0.000000  0.000000 )  
               b(2) = (  0.000000  1.000000  0.000000 )  
               b(3) = (  0.000000  0.000000  1.000000 )  


     PseudoPot. # 1 for Si read from file:
     /home/ppiaggi/pseudos/Si_ONCV_PBE_sr.upf
     MD5 check sum: 8553c464762ac42b85b1eed164b4d029
     Pseudo is Norm-conserving, Zval =  4.0
     Generated using ONCVPSP code by D. R. Hamann
     Using radial grid of 1510 points,  4 beta functions with: 
                l(1) =   0
                l(2) =   0
                l(3) =   1
                l(4) =   1

     atomic species   valence    mass     pseudopotential
        Si             4.00    28.08500     Si( 1.00)

     No symmetry found



   Cartesian axes

     site n.     atom                  positions (alat units)
         1           Si  tau(   1) = (   0.4931550   0.2916890   0.0660093  )
         2           Si  tau(   2) = (   0.1599900   0.3496660   0.5404370  )
         3           Si  tau(   3) = (   0.1011700   0.9342240   0.9378610  )
         4           Si  tau(   4) = (   0.6918090   0.2226830   0.0013811  )
         5           Si  tau(   5) = (   0.0331266   0.9154300   0.2055890  )
         6           Si  tau(   6) = (   0.2186990   0.7816560   0.7483760  )
         7           Si  tau(   7) = (   0.0852380   0.5550300   0.4957130  )
         8           Si  tau(   8) = (   0.6923590   0.2357540   0.7544910  )
         9           Si  tau(   9) = (   0.9279020   0.1180200   0.2045670  )
        10           Si  tau(  10) = (   0.7640240   0.1902570   0.5061980  )
        11           Si  tau(  11) = (   0.8620160   0.4822230   0.1861610  )
        12           Si  tau(  12) = (   0.2430730   0.9670470   0.2617970  )
        13           Si  tau(  13) = (   0.4445770   0.8013720   0.2956550  )
        14           Si  tau(  14) = (   0.4662120   0.2931130   0.6823690  )
        15           Si  tau(  15) = (   0.3069590   0.5694260   0.5813160  )
        16           Si  tau(  16) = (   0.4545590   0.0352692   0.7292090  )
        17           Si  tau(  17) = (   0.4971310   0.4561010   0.5051080  )
        18           Si  tau(  18) = (   0.3271710   0.0572368   0.9246550  )
        19           Si  tau(  19) = (   0.7243770   0.9817240   0.7129020  )
        20           Si  tau(  20) = (   0.3891970   0.1180860   0.1496570  )
        21           Si  tau(  21) = (   0.5254660   0.1853330   0.4912890  )
        22           Si  tau(  22) = (   0.1305150   0.6872700   0.9920130  )
        23           Si  tau(  23) = (   0.7139810   0.8283550   0.8862820  )
        24           Si  tau(  24) = (   0.2575210   0.2854220   0.9700580  )
        25           Si  tau(  25) = (   0.0099803   0.1419370   0.4411210  )
        26           Si  tau(  26) = (   0.2071840   0.6523980   0.2126350  )
        27           Si  tau(  27) = (   0.5420180   0.3495880   0.2737030  )
        28           Si  tau(  28) = (   0.9171410   0.6209630   0.9737460  )
        29           Si  tau(  29) = (   0.8549870   0.8781690   0.3776510  )
        30           Si  tau(  30) = (   0.2163230   0.1660340   0.3676690  )
        31           Si  tau(  31) = (   0.0080036   0.4098680   0.8967970  )
        32           Si  tau(  32) = (   0.7919380   0.6807080   0.3027860  )
        33           Si  tau(  33) = (   0.1081330   0.7744620   0.3938490  )
        34           Si  tau(  34) = (   0.2985080   0.0529792   0.5468390  )
        35           Si  tau(  35) = (   0.5985120   0.5741230   0.1114380  )
        36           Si  tau(  36) = (   0.0378880   0.2117340   0.0089759  )
        37           Si  tau(  37) = (   0.8559880   0.5812740   0.5083910  )
        38           Si  tau(  38) = (   0.3950630   0.4888720   0.9236780  )
        39           Si  tau(  39) = (   0.0636446   0.4826850   0.2858420  )
        40           Si  tau(  40) = (   0.8545470   0.6700360   0.7800260  )
        41           Si  tau(  41) = (   0.1114050   0.0170049   0.6870560  )
        42           Si  tau(  42) = (   0.3213510   0.8223950   0.4874830  )
        43           Si  tau(  43) = (   0.2117960   0.3457070   0.2042980  )
        44           Si  tau(  44) = (   0.8939930   0.9612590   0.5853250  )
        45           Si  tau(  45) = (   0.6655170   0.9947840   0.4175790  )
        46           Si  tau(  46) = (   0.8344900   0.4304360   0.6972510  )
        47           Si  tau(  47) = (   0.8752630   0.7828560   0.1013970  )
        48           Si  tau(  48) = (   0.5286890   0.7755360   0.0108350  )
        49           Si  tau(  49) = (   0.7623520   0.9989360   0.0680430  )
        50           Si  tau(  50) = (   0.7214980   0.4508110   0.9656480  )
        51           Si  tau(  51) = (   0.5919460   0.9587080   0.2133290  )
        52           Si  tau(  52) = (   0.5713150   0.8620730   0.5584930  )
        53           Si  tau(  53) = (   0.9231410   0.0710898   0.8581300  )
        54           Si  tau(  54) = (   0.7660350   0.2917110   0.2610760  )
        55           Si  tau(  55) = (   0.2045230   0.5464710   0.8277860  )
        56           Si  tau(  56) = (   0.4526050   0.6936990   0.7868530  )
        57           Si  tau(  57) = (   0.5910660   0.6213560   0.3561590  )
        58           Si  tau(  58) = (   0.6533650   0.6501620   0.6009550  )
        59           Si  tau(  59) = (   0.3656030   0.5284340   0.1863010  )
        60           Si  tau(  60) = (   0.3153030   0.8460440   0.0559145  )
        61           Si  tau(  61) = (   0.0148581   0.7623660   0.6607010  )
        62           Si  tau(  62) = (   0.9658190   0.2407100   0.6555550  )
        63           Si  tau(  63) = (   0.2376500   0.2446490   0.7369550  )
        64           Si  tau(  64) = (   0.5825590   0.4835000   0.8005310  )

     number of k points=     1  Fermi-Dirac smearing, width (Ry)=  0.0100
                       cart. coord. in units 2pi/alat
        k(    1) = (   0.0000000   0.0000000   0.0000000), wk =   2.0000000

     Dense  grid:    91866 G-vectors     FFT dimensions: (  72,  72,  72)

     Estimated max dynamical RAM per process >     147.16 MB

     Estimated total dynamical RAM >     566.23 MB

     Initial potential from superposition of free atoms

     starting charge     255.9608, renormalised to     256.0000
     Starting wfcs are  256 randomized atomic wfcs

     total cpu time spent up to now is        5.0 secs

     Self-consistent Calculation

     iteration #  1     ecut=    30.00 Ry     beta= 0.50
     Davidson diagonalization with overlap
     ethr =  1.00E-02,  avg # of iterations =  3.0

     Threshold (ethr) on eigenvalues was too large:
     Diagonalizing with lowered threshold

     Davidson diagonalization with overlap
     ethr =  4.00E-04,  avg # of iterations =  4.0

     total cpu time spent up to now is        5.3 secs

     total energy              =    -501.16646385 Ry
     estimated scf accuracy    <       1.23694418 Ry

     iteration #  2     ecut=    30.00 Ry     beta= 0.50
     Davidson diagonalization with overlap
     ethr =  4.83E-04,  avg # of iterations =  4.0

     total cpu time spent up to now is        5.4 secs

     total energy              =    -500.59782800 Ry
     estimated scf accuracy    <       7.54840234 Ry

     iteration #  3     ecut=    30.00 Ry     beta= 0.50
     Davidson diagonalization with overlap
     ethr =  4.83E-04,  avg # of iterations =  4.0

     total cpu time spent up to now is        5.5 secs

     total energy              =    -501.26170377 Ry
     estimated scf accuracy    <       1.89453344 Ry

     iteration #  4     ecut=    30.00 Ry     beta= 0.50
     Davidson diagonalization with overlap
     ethr =  4.83E-04,  avg # of iterations =  2.0

     total cpu time spent up to now is        5.6 secs

     total energy              =    -501.40124634 Ry
     estimated scf accuracy    <       0.51305242 Ry

     iteration #  5     ecut=    30.00 Ry     beta= 0.50
     Davidson diagonalization with overlap
     ethr =  2.00E-04,  avg # of iterations =  2.0

     total cpu time spent up to now is        5.7 secs

     total energy              =    -501.41600623 Ry
     estimated scf accuracy    <       0.48097633 Ry

     iteration #  6     ecut=    30.00 Ry     beta= 0.50
     Davidson diagonalization with overlap
     ethr =  1.88E-04,  avg # of iterations =  2.0

     total cpu time spent up to now is        5.8 secs

     total energy              =    -501.45968003 Ry
     estimated scf accuracy    <       0.08356379 Ry

     iteration #  7     ecut=    30.00 Ry     beta= 0.50
     Davidson diagonalization with overlap
     ethr =  3.26E-05,  avg # of iterations =  2.0

     total cpu time spent up to now is        5.9 secs

     total energy              =    -501.46814180 Ry
     estimated scf accuracy    <       0.02388801 Ry

     iteration #  8     ecut=    30.00 Ry     beta= 0.50
     Davidson diagonalization with overlap
     c_bands:  2 eigenvalues not converged
     ethr =  9.33E-06,  avg # of iterations = 20.0

     total cpu time spent up to now is        6.1 secs

     total energy              =    -501.47013234 Ry
     estimated scf accuracy    <       0.02463281 Ry

     iteration #  9     ecut=    30.00 Ry     beta= 0.50
     Davidson diagonalization with overlap
     ethr =  9.33E-06,  avg # of iterations =  2.0

     total cpu time spent up to now is        6.2 secs

     total energy              =    -501.47201672 Ry
     estimated scf accuracy    <       0.00141347 Ry

     iteration # 10     ecut=    30.00 Ry     beta= 0.50
     Davidson diagonalization with overlap
     ethr =  5.52E-07,  avg # of iterations = 13.0

     total cpu time spent up to now is        6.4 secs

     total energy              =    -501.47220532 Ry
     estimated scf accuracy    <       0.00160260 Ry

     iteration # 11     ecut=    30.00 Ry     beta= 0.50
     Davidson diagonalization with overlap
     ethr =  5.52E-07,  avg # of iterations =  2.0

     total cpu time spent up to now is        6.5 secs

     total energy              =    -501.47233308 Ry
     estimated scf accuracy    <       0.00081843 Ry

     iteration # 12     ecut=    30.00 Ry     beta= 0.50
     Davidson diagonalization with overlap
     ethr =  3.20E-07,  avg # of iterations =  2.0

     total cpu time spent up to now is        6.6 secs

     total energy              =    -501.47239248 Ry
     estimated scf accuracy    <       0.00017104 Ry

     iteration # 13     ecut=    30.00 Ry     beta= 0.50
     Davidson diagonalization with overlap
     ethr =  6.68E-08,  avg # of iterations =  3.0

     total cpu time spent up to now is        6.7 secs

     total energy              =    -501.47240421 Ry
     estimated scf accuracy    <       0.00029953 Ry

     iteration # 14     ecut=    30.00 Ry     beta= 0.50
     Davidson diagonalization with overlap
     ethr =  6.68E-08,  avg # of iterations =  2.0

     total cpu time spent up to now is        6.8 secs

     total energy              =    -501.47242396 Ry
     estimated scf accuracy    <       0.00000940 Ry

     iteration # 15     ecut=    30.00 Ry     beta= 0.50
     Davidson diagonalization with overlap
     ethr =  3.67E-09,  avg # of iterations =  4.0

     total cpu time spent up to now is        6.9 secs

     total energy              =    -501.47242561 Ry
     estimated scf accuracy    <       0.00002599 Ry

     iteration # 16     ecut=    30.00 Ry     beta= 0.50
     Davidson diagonalization with overlap
     ethr =  3.67E-09,  avg # of iterations =  3.0

     total cpu time spent up to now is        7.0 secs

     total energy              =    -501.47242765 Ry
     estimated scf accuracy    <       0.00000794 Ry

     iteration # 17     ecut=    30.00 Ry     beta= 0.50
     Davidson diagonalization with overlap
     ethr =  3.10E-09,  avg # of iterations =  2.0

     total cpu time spent up to now is        7.1 secs

     total energy              =    -501.47242790 Ry
     estimated scf accuracy    <       0.00000198 Ry

     iteration # 18     ecut=    30.00 Ry     beta= 0.50
     Davidson diagonalization with overlap
     ethr =  7.75E-10,  avg # of iterations =  3.0

     total cpu time spent up to now is        7.2 secs

     total energy              =    -501.47242802 Ry
     estimated scf accuracy    <       0.00000431 Ry

     iteration # 19     ecut=    30.00 Ry     beta= 0.50
     Davidson diagonalization with overlap
     ethr =  7.75E-10,  avg # of iterations =  2.0

     total cpu time spent up to now is        7.3 secs

     End of self-consistent calculation

          k = 0.0000 0.0000 0.0000 ( 11492 PWs)   bands (ev):

    -5.4144  -4.5522  -4.4071  -4.3721  -4.2187  -4.0611  -3.9031  -3.5064
    -3.4050  -3.3341  -3.2374  -3.1767  -3.0783  -3.0673  -2.9520  -2.8642
    -2.7853  -2.7246  -2.5003  -2.1954  -2.1274  -1.9954  -1.9727  -1.7487
    -1.6922  -1.5542  -1.3239  -1.0955  -0.9434  -0.8298  -0.7037  -0.6138
    -0.5779  -0.2777  -0.1930  -0.1036  -0.0708   0.0312   0.1190   0.1914
     0.2679   0.2769   0.3610   0.4338   0.5807   0.6442   0.7017   0.8428
     0.8849   0.9558   0.9757   1.1624   1.2561   1.2820   1.3953   1.4618
     1.5687   1.6907   1.7989   1.9639   2.0479   2.0626   2.2724   2.3733
     2.4335   2.4792   2.5214   2.6121   2.7141   2.8013   2.8773   2.9201
     2.9980   3.0870   3.1188   3.1952   3.2911   3.3331   3.5184   3.6436
     3.7918   3.9474   4.1601   4.2038   4.2589   4.2933   4.3662   4.5130
     4.5959   4.6025   4.6882   4.8062   4.8590   4.9382   4.9821   5.0610
     5.1366   5.1780   5.2266   5.2522   5.3612   5.4451   5.5330   5.5432
     5.6251   5.6350   5.7618   5.7727   5.8241   5.9026   5.9440   5.9485
     6.0080   6.1089   6.1561   6.1920   6.2653   6.3355   6.4010   6.4622
     6.4785   6.5113   6.6072   6.6404   6.7459   6.8107   6.8831   6.9316
     6.9797   7.0387   7.1207   7.1851   7.2050   7.3109   7.3565   7.4398
     7.5004   7.5348   7.6242   7.6723   7.7135   7.8066   7.8200   7.8980
     7.9845   8.0825   8.1154   8.1663   8.3320   8.3453   8.3929   8.4629
     8.5106   8.5631

     the Fermi energy is     6.9572 ev

!    total energy              =    -501.47242822 Ry
     estimated scf accuracy    <       0.00000014 Ry
     smearing contrib. (-TS)   =      -0.14429053 Ry
     internal energy E=F+TS    =    -501.32813769 Ry

     The total energy is F=E-TS. E is the sum of the following terms:
     one-electron contribution =     184.99139569 Ry
     hartree contribution      =      24.09002113 Ry
     xc contribution           =    -150.33750688 Ry
     ewald contribution        =    -560.07204762 Ry

     convergence has been achieved in  19 iterations

     Forces acting on atoms (cartesian axes, Ry/au):

     atom    1 type  1   force =    -0.01672975    0.02676259   -0.02600063
     atom    2 type  1   force =    -0.02051355   -0.01354774    0.00321393
     atom    3 type  1   force =     0.03335295   -0.00451137   -0.00910600
     atom    4 type  1   force =     0.01073747    0.01140762   -0.01533055
     atom    5 type  1   force =    -0.02304933   -0.00499460    0.01067201
     atom    6 type  1   force =    -0.00205342    0.00230150    0.00432847
     atom    7 type  1   force =    -0.00092995    0.02317217   -0.00525216
     atom    8 type  1   force =    -0.00987764   -0.00971750    0.00022869
     atom    9 type  1   force =    -0.00486294    0.00189377   -0.01072924
     atom   10 type  1   force =     0.00040735   -0.01051626   -0.01131963
     atom   11 type  1   force =     0.00200914    0.01452046    0.01215382
     atom   12 type  1   force =     0.02605747   -0.01877550    0.00157938
     atom   13 type  1   force =     0.00616249   -0.01203619    0.00103914
     atom   14 type  1   force =     0.01220765   -0.00348035    0.00298298
     atom   15 type  1   force =    -0.00866850    0.01950775    0.02609139
     atom   16 type  1   force =     0.00555716    0.01543056   -0.01498812
     atom   17 type  1   force =    -0.00568492    0.00583130   -0.01425943
     atom   18 type  1   force =    -0.03071065   -0.02429578    0.00186211
     atom   19 type  1   force =    -0.02654404    0.01740500    0.03536603
     atom   20 type  1   force =     0.02431557   -0.04191766   -0.00116144
     atom   21 type  1   force =    -0.00185666    0.00038696   -0.02162014
     atom   22 type  1   force =     0.03097347    0.02541759    0.00839888
     atom   23 type  1   force =     0.00474265    0.02715010    0.00601432
     atom   24 type  1   force =    -0.00267830   -0.00721292    0.01702274
     atom   25 type  1   force =    -0.03904076   -0.01371677    0.01361089
     atom   26 type  1   force =    -0.08839442    0.05240397   -0.00647424
     atom   27 type  1   force =     0.01363348    0.01272612    0.04250246
     atom   28 type  1   force =     0.02113847   -0.07251889    0.02116073
     atom   29 type  1   force =     0.04524702    0.02568851    0.01326399
     atom   30 type  1   force =     0.01098412    0.02553546   -0.00176234
     atom   31 type  1   force =     0.00809749    0.01756060   -0.02435771
     atom   32 type  1   force =     0.01575506   -0.02972103   -0.02234390
     atom   33 type  1   force =     0.01326512   -0.01504743   -0.01377546
     atom   34 type  1   force =     0.01331508   -0.01494173    0.00694564
     atom   35 type  1   force =    -0.02992624    0.01303695    0.02248678
     atom   36 type  1   force =    -0.00446779   -0.00205898    0.00541506
     atom   37 type  1   force =    -0.01890682   -0.00701056    0.01468819
     atom   38 type  1   force =    -0.00484007   -0.01116326    0.04431425
     atom   39 type  1   force =    -0.00940398    0.01549611   -0.00580024
     atom   40 type  1   force =    -0.03996864    0.00612197   -0.02766348
     atom   41 type  1   force =    -0.01726199    0.00446895    0.01238456
     atom   42 type  1   force =    -0.00106799    0.01745491   -0.01108907
     atom   43 type  1   force =     0.03723277   -0.02075854   -0.00190998
     atom   44 type  1   force =     0.07202719   -0.02237396   -0.03745931
     atom   45 type  1   force =     0.00204460    0.04194106   -0.01512317
     atom   46 type  1   force =     0.00235622   -0.00666729    0.02108027
     atom   47 type  1   force =    -0.02737944    0.04549828    0.04668760
     atom   48 type  1   force =     0.00668493   -0.03000454   -0.01486825
     atom   49 type  1   force =     0.01906533   -0.00566640   -0.01964028
     atom   50 type  1   force =     0.01418715   -0.01397264    0.02473682
     atom   51 type  1   force =    -0.04279343    0.02877233   -0.01303530
     atom   52 type  1   force =    -0.01506913   -0.02567081    0.04257908
     atom   53 type  1   force =     0.00716294   -0.00213052   -0.01310490
     atom   54 type  1   force =    -0.00713690   -0.01211721    0.00846249
     atom   55 type  1   force =    -0.00554618   -0.00463953   -0.01132033
     atom   56 type  1   force =    -0.00018437   -0.00912937    0.00434739
     atom   57 type  1   force =    -0.03371963    0.01092272   -0.01930609
     atom   58 type  1   force =     0.01015568    0.00523020    0.02088956
     atom   59 type  1   force =     0.07464984   -0.07678489   -0.04283893
     atom   60 type  1   force =    -0.01746604    0.01522655    0.01945908
     atom   61 type  1   force =    -0.00983854    0.02352958   -0.02836897
     atom   62 type  1   force =     0.01456273    0.00807697   -0.00282457
     atom   63 type  1   force =     0.01492359   -0.01277736   -0.00373196
     atom   64 type  1   force =    -0.00644013   -0.00100103   -0.04940289

     Total force =     0.318958     Total SCF correction =     0.000670


     Computing stress (Cartesian axis) and pressure

          total   stress  (Ry/bohr**3)                   (kbar)     P=      -42.46
  -0.00016162  -0.00007808   0.00004325          -23.78      -11.49        6.36
  -0.00007808  -0.00031809   0.00004345          -11.49      -46.79        6.39
   0.00004325   0.00004345  -0.00038627            6.36        6.39      -56.82

 
     init_run     :      1.08s CPU      4.95s WALL (       1 calls)
     electrons    :      2.09s CPU      2.25s WALL (       1 calls)
     forces       :      0.04s CPU      0.04s WALL (       1 calls)
     stress       :      0.15s CPU      0.16s WALL (       1 calls)

     Called by init_run:
     wfcinit      :      0.55s CPU      4.23s WALL (       1 calls)
                                        4.23s GPU  (       1 calls)
     potinit      :      0.05s CPU      0.15s WALL (       1 calls)
     hinit0       :      0.47s CPU      0.50s WALL (       1 calls)

     Called by electrons:
     c_bands      :      1.26s CPU      1.33s WALL (      20 calls)
     sum_band     :      0.40s CPU      0.45s WALL (      20 calls)
     v_of_rho     :      0.19s CPU      0.30s WALL (      20 calls)
     mix_rho      :      0.19s CPU      0.21s WALL (      20 calls)

     Called by c_bands:
     init_us_2    :      0.07s CPU      0.08s WALL (      41 calls)
     init_us_2:gp :      0.07s CPU      0.08s WALL (      41 calls)
     regterg      :      1.09s CPU      1.16s WALL (      20 calls)

     Called by *egterg:
     rdiaghg      :      0.48s CPU      1.23s WALL (     100 calls)
                                        1.21s GPU  (     100 calls)
     h_psi        :      0.97s CPU      3.94s WALL (     102 calls)
                                        3.94s GPU  (     102 calls)
     g_psi        :      0.00s CPU      0.00s WALL (      81 calls)
                                        0.00s GPU  (      81 calls)

     Called by h_psi:
     h_psi:calbec :      0.52s CPU      3.40s WALL (     102 calls)
                                        3.40s GPU  (     102 calls)
     vloc_psi     :      0.39s CPU      0.47s WALL (     102 calls)
                                        0.47s GPU  (     102 calls)
     add_vuspsi   :      0.04s CPU      0.06s WALL (     102 calls)
                                        0.06s GPU  (     102 calls)

     General routines
     calbec       :      0.52s CPU      3.41s WALL (     107 calls)
     fft          :      0.63s CPU      0.77s WALL (     167 calls)
                                        0.14s GPU  (     106 calls)
     ffts         :      0.05s CPU      0.05s WALL (      20 calls)
     fftw         :      0.48s CPU      0.63s WALL (    2130 calls)
                                        0.55s GPU  (    2130 calls)
 
     Parallel routines
 
     PWSCF        :      3.41s CPU      7.49s WALL

 
   This run was terminated on:  11: 9:11  10May2023            

=------------------------------------------------------------------------------=
   JOB DONE.
=------------------------------------------------------------------------------=
