An instance of this daemon is already running

     Program PWSCF v.7.1 starts on 10May2023 at 11: 4:22 

     This program is part of the open-source Quantum ESPRESSO suite
     for quantum simulation of materials; please cite
         "P. Giannozzi et al., J. Phys.:Condens. Matter 21 395502 (2009);
         "P. Giannozzi et al., J. Phys.:Condens. Matter 29 465901 (2017);
         "P. Giannozzi et al., J. Chem. Phys. 152 154105 (2020);
          URL http://www.quantum-espresso.org", 
     in publications or presentations arising from this work. More details at
     http://www.quantum-espresso.org/quote

     Parallel version (MPI & OpenMP), running on       4 processor cores
     Number of MPI processes:                 4
     Threads/MPI process:                     1

     MPI processes distributed on     1 nodes
     753546 MiB available memory on the printing compute node when the environment starts
 
     Reading input from pw-si-64.in
Warning: card &CELL ignored
Warning: card / ignored

     Current dimensions of program PWSCF are:
     Max number of different atomic species (ntypx) = 10
     Max number of k-points (npk) =  40000
     Max angular momentum in pseudopotentials (lmaxx) =  4

     IMPORTANT: XC functional enforced from input :
     Exchange-correlation= PBE
                           (   1   4   3   4   0   0   0)
     Any further DFT definition will be discarded
     Please, verify this is what you really want


     gamma-point specific algorithms are used
 
     K-points division:     npool     =       2
     R & G space division:  proc/nbgrp/npool/nimage =       2
     Subspace diagonalization in iterative solution of the eigenvalue problem:
     a serial algorithm will be used

     Message from routine divide_et_impera:
     suboptimal parallelization: some nodes have no k-points
 
     Parallelization info
     --------------------
     sticks:   dense  smooth     PW     G-vecs:    dense   smooth      PW
     Min        1926    1926    504                89789    89789   12201
     Max        1927    1927    505                89790    89790   12204
     Sum        3853    3853   1009               179579   179579   24405
 
     Using Slab Decomposition
 


     bravais-lattice index     =            0
     lattice parameter (alat)  =      20.0768  a.u.
     unit-cell volume          =    8092.4982 (a.u.)^3
     number of atoms/cell      =           64
     number of atomic types    =            1
     number of electrons       =       256.00
     number of Kohn-Sham states=          154
     kinetic-energy cutoff     =      30.0000  Ry
     charge density cutoff     =     120.0000  Ry
     scf convergence threshold =      1.0E-06
     mixing beta               =       0.5000
     number of iterations used =            8  plain     mixing
     Exchange-correlation= PBE
                           (   1   4   3   4   0   0   0)

     GPU acceleration is ACTIVE.
     GPU-aware MPI enabled

     Message from routine print_cuda_info:
     High GPU oversubscription detected. Are you sure this is what you want?

     celldm(1)=  20.076787  celldm(2)=   0.000000  celldm(3)=   0.000000
     celldm(4)=   0.000000  celldm(5)=   0.000000  celldm(6)=   0.000000

     crystal axes: (cart. coord. in units of alat)
               a(1) = (   1.000000   0.000000   0.000000 )  
               a(2) = (   0.000000   1.000000   0.000000 )  
               a(3) = (   0.000000   0.000000   1.000000 )  

     reciprocal axes: (cart. coord. in units 2 pi/alat)
               b(1) = (  1.000000  0.000000  0.000000 )  
               b(2) = (  0.000000  1.000000  0.000000 )  
               b(3) = (  0.000000  0.000000  1.000000 )  


     PseudoPot. # 1 for Si read from file:
     /home/ppiaggi/pseudos/Si_ONCV_PBE_sr.upf
     MD5 check sum: 8553c464762ac42b85b1eed164b4d029
     Pseudo is Norm-conserving, Zval =  4.0
     Generated using ONCVPSP code by D. R. Hamann
     Using radial grid of 1510 points,  4 beta functions with: 
                l(1) =   0
                l(2) =   0
                l(3) =   1
                l(4) =   1

     atomic species   valence    mass     pseudopotential
        Si             4.00    28.08500     Si( 1.00)

     No symmetry found



   Cartesian axes

     site n.     atom                  positions (alat units)
         1           Si  tau(   1) = (   0.0803043   0.2806920   0.1126570  )
         2           Si  tau(   2) = (   0.5586630   0.1001520   0.2729080  )
         3           Si  tau(   3) = (   0.2350430   0.8067890   0.4627100  )
         4           Si  tau(   4) = (   0.3272560   0.4542050   0.8513770  )
         5           Si  tau(   5) = (   0.9973700   0.6274280   0.8356320  )
         6           Si  tau(   6) = (   0.4593040   0.5989580   0.0088468  )
         7           Si  tau(   7) = (   0.0332090   0.4786990   0.3918710  )
         8           Si  tau(   8) = (   0.4332690   0.8383960   0.1312160  )
         9           Si  tau(   9) = (   0.9786130   0.0541278   0.1655940  )
        10           Si  tau(  10) = (   0.4437070   0.2327930   0.0641280  )
        11           Si  tau(  11) = (   0.9175610   0.5833890   0.5750400  )
        12           Si  tau(  12) = (   0.7051220   0.4948850   0.5119380  )
        13           Si  tau(  13) = (   0.6404290   0.3673450   0.0808892  )
        14           Si  tau(  14) = (   0.9202890   0.1315630   0.6039270  )
        15           Si  tau(  15) = (   0.7375770   0.7281790   0.1588400  )
        16           Si  tau(  16) = (   0.8643060   0.9054160   0.5655860  )
        17           Si  tau(  17) = (   0.8830550   0.9898430   0.8526040  )
        18           Si  tau(  18) = (   0.5275050   0.7351390   0.4646910  )
        19           Si  tau(  19) = (   0.0942852   0.4523630   0.6494660  )
        20           Si  tau(  20) = (   0.2016950   0.7437120   0.9920140  )
        21           Si  tau(  21) = (   0.6640420   0.0720924   0.0287681  )
        22           Si  tau(  22) = (   0.9453770   0.7997710   0.2049990  )
        23           Si  tau(  23) = (   0.4174320   0.5707050   0.3289700  )
        24           Si  tau(  24) = (   0.2567270   0.9734680   0.7137620  )
        25           Si  tau(  25) = (   0.5571180   0.3340290   0.3850040  )
        26           Si  tau(  26) = (   0.9031100   0.2416350   0.8218560  )
        27           Si  tau(  27) = (   0.6654400   0.8192930   0.9667350  )
        28           Si  tau(  28) = (   0.2165740   0.1736950   0.5989880  )
        29           Si  tau(  29) = (   0.2290530   0.6410270   0.6161970  )
        30           Si  tau(  30) = (   0.1213590   0.2957670   0.7897620  )
        31           Si  tau(  31) = (   0.8742690   0.4889090   0.0709628  )
        32           Si  tau(  32) = (   0.7012470   0.2024890   0.5333410  )
        33           Si  tau(  33) = (   0.4180100   0.9238810   0.5399920  )
        34           Si  tau(  34) = (   0.2359290   0.1299620   0.9297300  )
        35           Si  tau(  35) = (   0.4285000   0.2611990   0.5733700  )
        36           Si  tau(  36) = (   0.3096610   0.0427304   0.1447770  )
        37           Si  tau(  37) = (   0.7469140   0.3480220   0.7068080  )
        38           Si  tau(  38) = (   0.6170500   0.5530630   0.2430480  )
        39           Si  tau(  39) = (   0.4234570   0.6428070   0.7243930  )
        40           Si  tau(  40) = (   0.3657290   0.0803387   0.3944210  )
        41           Si  tau(  41) = (   0.6070910   0.8432750   0.2944290  )
        42           Si  tau(  42) = (   0.7983360   0.9464670   0.3469510  )
        43           Si  tau(  43) = (   0.1284980   0.0033832   0.3101180  )
        44           Si  tau(  44) = (   0.6042390   0.4828810   0.8742410  )
        45           Si  tau(  45) = (   0.7816760   0.6169630   0.9038060  )
        46           Si  tau(  46) = (   0.0391124   0.2242300   0.4024420  )
        47           Si  tau(  47) = (   0.8394200   0.2378780   0.0476572  )
        48           Si  tau(  48) = (   0.0585143   0.9384340   0.9742390  )
        49           Si  tau(  49) = (   0.0084119   0.7602700   0.4821870  )
        50           Si  tau(  50) = (   0.6477750   0.6545750   0.6448750  )
        51           Si  tau(  51) = (   0.3866780   0.8122450   0.8952150  )
        52           Si  tau(  52) = (   0.3046570   0.4331000   0.4560390  )
        53           Si  tau(  53) = (   0.2436710   0.2654760   0.3059750  )
        54           Si  tau(  54) = (   0.6101990   0.0447695   0.6573270  )
        55           Si  tau(  55) = (   0.5010800   0.3120370   0.7638510  )
        56           Si  tau(  56) = (   0.8000170   0.1716080   0.3242910  )
        57           Si  tau(  57) = (   0.4892150   0.0950266   0.8500810  )
        58           Si  tau(  58) = (   0.7214620   0.8676460   0.7142190  )
        59           Si  tau(  59) = (   0.1465780   0.5112830   0.0072098  )
        60           Si  tau(  60) = (   0.2645870   0.7226610   0.2644580  )
        61           Si  tau(  61) = (   0.0896124   0.8254360   0.7494950  )
        62           Si  tau(  62) = (   0.0514952   0.6282490   0.2171670  )
        63           Si  tau(  63) = (   0.8228890   0.4269070   0.3125940  )
        64           Si  tau(  64) = (   0.3514530   0.4351570   0.1512080  )

     number of k points=     1  Fermi-Dirac smearing, width (Ry)=  0.0100
                       cart. coord. in units 2pi/alat
        k(    1) = (   0.0000000   0.0000000   0.0000000), wk =   2.0000000

     Dense  grid:    89790 G-vectors     FFT dimensions: (  72,  72,  72)

     Estimated max dynamical RAM per process >     144.33 MB

     Estimated total dynamical RAM >     555.38 MB

     Initial potential from superposition of free atoms

     starting charge     255.9608, renormalised to     256.0000
     Starting wfcs are  256 randomized atomic wfcs

     total cpu time spent up to now is        5.0 secs

     Self-consistent Calculation

     iteration #  1     ecut=    30.00 Ry     beta= 0.50
     Davidson diagonalization with overlap
     ethr =  1.00E-02,  avg # of iterations =  3.0

     Threshold (ethr) on eigenvalues was too large:
     Diagonalizing with lowered threshold

     Davidson diagonalization with overlap
     ethr =  4.28E-04,  avg # of iterations =  4.0

     total cpu time spent up to now is        5.3 secs

     total energy              =    -501.24009780 Ry
     estimated scf accuracy    <       1.31915138 Ry

     iteration #  2     ecut=    30.00 Ry     beta= 0.50
     Davidson diagonalization with overlap
     ethr =  5.15E-04,  avg # of iterations =  4.0

     total cpu time spent up to now is        5.4 secs

     total energy              =    -500.51094151 Ry
     estimated scf accuracy    <      10.23266198 Ry

     iteration #  3     ecut=    30.00 Ry     beta= 0.50
     Davidson diagonalization with overlap
     ethr =  5.15E-04,  avg # of iterations =  4.0

     total cpu time spent up to now is        5.5 secs

     total energy              =    -501.44049064 Ry
     estimated scf accuracy    <       1.11271348 Ry

     iteration #  4     ecut=    30.00 Ry     beta= 0.50
     Davidson diagonalization with overlap
     ethr =  4.35E-04,  avg # of iterations =  2.0

     total cpu time spent up to now is        5.6 secs

     total energy              =    -501.46927373 Ry
     estimated scf accuracy    <       0.80426439 Ry

     iteration #  5     ecut=    30.00 Ry     beta= 0.50
     Davidson diagonalization with overlap
     ethr =  3.14E-04,  avg # of iterations =  2.0

     total cpu time spent up to now is        5.7 secs

     total energy              =    -501.51846139 Ry
     estimated scf accuracy    <       0.54291993 Ry

     iteration #  6     ecut=    30.00 Ry     beta= 0.50
     Davidson diagonalization with overlap
     ethr =  2.12E-04,  avg # of iterations =  2.0

     total cpu time spent up to now is        5.8 secs

     total energy              =    -501.56692177 Ry
     estimated scf accuracy    <       0.04372518 Ry

     iteration #  7     ecut=    30.00 Ry     beta= 0.50
     Davidson diagonalization with overlap
     ethr =  1.71E-05,  avg # of iterations = 16.0

     total cpu time spent up to now is        6.0 secs

     total energy              =    -501.57253954 Ry
     estimated scf accuracy    <       0.02547979 Ry

     iteration #  8     ecut=    30.00 Ry     beta= 0.50
     Davidson diagonalization with overlap
     ethr =  9.95E-06,  avg # of iterations =  2.0

     total cpu time spent up to now is        6.1 secs

     total energy              =    -501.57504068 Ry
     estimated scf accuracy    <       0.01966843 Ry

     iteration #  9     ecut=    30.00 Ry     beta= 0.50
     Davidson diagonalization with overlap
     ethr =  7.68E-06,  avg # of iterations =  1.0

     total cpu time spent up to now is        6.2 secs

     total energy              =    -501.57651735 Ry
     estimated scf accuracy    <       0.00139014 Ry

     iteration # 10     ecut=    30.00 Ry     beta= 0.50
     Davidson diagonalization with overlap
     ethr =  5.43E-07,  avg # of iterations =  4.0

     total cpu time spent up to now is        6.3 secs

     total energy              =    -501.57664507 Ry
     estimated scf accuracy    <       0.00182323 Ry

     iteration # 11     ecut=    30.00 Ry     beta= 0.50
     Davidson diagonalization with overlap
     ethr =  5.43E-07,  avg # of iterations =  2.0

     total cpu time spent up to now is        6.4 secs

     total energy              =    -501.57677606 Ry
     estimated scf accuracy    <       0.00055971 Ry

     iteration # 12     ecut=    30.00 Ry     beta= 0.50
     Davidson diagonalization with overlap
     ethr =  2.19E-07,  avg # of iterations =  2.0

     total cpu time spent up to now is        6.5 secs

     total energy              =    -501.57683763 Ry
     estimated scf accuracy    <       0.00023335 Ry

     iteration # 13     ecut=    30.00 Ry     beta= 0.50
     Davidson diagonalization with overlap
     ethr =  9.12E-08,  avg # of iterations =  2.0

     total cpu time spent up to now is        6.6 secs

     total energy              =    -501.57685090 Ry
     estimated scf accuracy    <       0.00011041 Ry

     iteration # 14     ecut=    30.00 Ry     beta= 0.50
     Davidson diagonalization with overlap
     ethr =  4.31E-08,  avg # of iterations =  2.0

     total cpu time spent up to now is        6.7 secs

     total energy              =    -501.57685830 Ry
     estimated scf accuracy    <       0.00002495 Ry

     iteration # 15     ecut=    30.00 Ry     beta= 0.50
     Davidson diagonalization with overlap
     ethr =  9.74E-09,  avg # of iterations =  4.0

     total cpu time spent up to now is        6.8 secs

     total energy              =    -501.57686067 Ry
     estimated scf accuracy    <       0.00003417 Ry

     iteration # 16     ecut=    30.00 Ry     beta= 0.50
     Davidson diagonalization with overlap
     ethr =  9.74E-09,  avg # of iterations =  2.0

     total cpu time spent up to now is        6.9 secs

     total energy              =    -501.57686303 Ry
     estimated scf accuracy    <       0.00000779 Ry

     iteration # 17     ecut=    30.00 Ry     beta= 0.50
     Davidson diagonalization with overlap
     ethr =  3.04E-09,  avg # of iterations =  2.0

     total cpu time spent up to now is        7.0 secs

     total energy              =    -501.57686360 Ry
     estimated scf accuracy    <       0.00000155 Ry

     iteration # 18     ecut=    30.00 Ry     beta= 0.50
     Davidson diagonalization with overlap
     ethr =  6.06E-10,  avg # of iterations =  4.0

     total cpu time spent up to now is        7.1 secs

     total energy              =    -501.57686377 Ry
     estimated scf accuracy    <       0.00000264 Ry

     iteration # 19     ecut=    30.00 Ry     beta= 0.50
     Davidson diagonalization with overlap
     ethr =  6.06E-10,  avg # of iterations =  2.0

     total cpu time spent up to now is        7.2 secs

     End of self-consistent calculation

          k = 0.0000 0.0000 0.0000 ( 11288 PWs)   bands (ev):

    -5.3046  -4.2924  -4.2076  -4.1643  -4.1125  -4.0281  -3.9155  -3.2647
    -3.2015  -3.1590  -3.0639  -3.0383  -3.0048  -2.9900  -2.8306  -2.7426
    -2.5632  -2.5112  -2.4083  -2.0538  -1.9192  -1.8881  -1.7873  -1.6776
    -1.5788  -1.4591  -1.3494  -0.8353  -0.7390  -0.6328  -0.5859  -0.2983
    -0.2397  -0.1117  -0.0384   0.0709   0.1342   0.3137   0.3345   0.4032
     0.4425   0.5796   0.7013   0.7254   0.7561   0.8383   0.9010   0.9907
     1.0245   1.1388   1.1887   1.2678   1.3679   1.4464   1.5467   1.6849
     1.8068   1.8445   1.9569   2.0392   2.1274   2.2476   2.4246   2.5320
     2.5993   2.7157   2.7884   2.8457   2.8766   2.9841   3.0062   3.0329
     3.2065   3.2749   3.3272   3.3650   3.4353   3.5168   3.6146   3.7069
     3.8410   4.3247   4.3726   4.3918   4.5153   4.5583   4.6453   4.6536
     4.8435   4.9045   4.9615   5.0611   5.1243   5.1963   5.2033   5.2785
     5.3260   5.3676   5.4303   5.4845   5.5472   5.6043   5.6367   5.7231
     5.7339   5.8372   5.9257   5.9978   6.0678   6.0781   6.1156   6.1802
     6.2494   6.2732   6.3438   6.3931   6.4608   6.5513   6.5852   6.6478
     6.7300   6.7445   6.8510   6.9217   6.9415   7.0234   7.0966   7.1069
     7.1287   7.2197   7.2826   7.3548   7.3837   7.4699   7.5700   7.6548
     7.7151   7.7683   7.8640   7.9279   7.9827   8.0591   8.1313   8.2381
     8.2851   8.2983   8.3837   8.4161   8.4757   8.5020   8.6668   8.7236
     8.7838   8.8299

     the Fermi energy is     7.1493 ev

!    total energy              =    -501.57686381 Ry
     estimated scf accuracy    <       0.00000020 Ry
     smearing contrib. (-TS)   =      -0.15201411 Ry
     internal energy E=F+TS    =    -501.42484969 Ry

     The total energy is F=E-TS. E is the sum of the following terms:
     one-electron contribution =     193.40507224 Ry
     hartree contribution      =      22.07607927 Ry
     xc contribution           =    -151.01860979 Ry
     ewald contribution        =    -565.88739142 Ry

     convergence has been achieved in  19 iterations

     Forces acting on atoms (cartesian axes, Ry/au):

     atom    1 type  1   force =     0.01378630   -0.00047261    0.00423126
     atom    2 type  1   force =     0.01237928   -0.00278189   -0.03548186
     atom    3 type  1   force =    -0.03136950    0.00722377   -0.00251532
     atom    4 type  1   force =     0.00210449   -0.00065081   -0.01084458
     atom    5 type  1   force =     0.01401020    0.00237521   -0.02220404
     atom    6 type  1   force =     0.01113057    0.01165491   -0.00017729
     atom    7 type  1   force =    -0.00669392   -0.00974421    0.01174593
     atom    8 type  1   force =    -0.01254158    0.00864564   -0.00669845
     atom    9 type  1   force =    -0.02196137    0.00236242   -0.03943303
     atom   10 type  1   force =     0.00996994   -0.01386976    0.01211558
     atom   11 type  1   force =    -0.01087439   -0.03396554   -0.00010185
     atom   12 type  1   force =     0.04029461   -0.04321271    0.00744455
     atom   13 type  1   force =    -0.00686247    0.02476689   -0.01633710
     atom   14 type  1   force =    -0.01046256   -0.00610531   -0.01090097
     atom   15 type  1   force =     0.02181869   -0.02888352   -0.01331295
     atom   16 type  1   force =     0.04028034    0.04428234   -0.03473228
     atom   17 type  1   force =    -0.02744455    0.00387892   -0.02218925
     atom   18 type  1   force =    -0.01307996   -0.00130790    0.02230723
     atom   19 type  1   force =     0.00412849    0.07510255   -0.02657560
     atom   20 type  1   force =    -0.02933060    0.00185466   -0.00054502
     atom   21 type  1   force =    -0.02006031   -0.01593016   -0.01400621
     atom   22 type  1   force =    -0.07184887    0.11693068    0.01300642
     atom   23 type  1   force =    -0.01332114    0.02486213    0.01784626
     atom   24 type  1   force =     0.02421762    0.00398324   -0.00349151
     atom   25 type  1   force =     0.00647232   -0.02294033    0.02709994
     atom   26 type  1   force =     0.01744745   -0.03579754    0.00962974
     atom   27 type  1   force =    -0.00518176    0.00613994   -0.03287929
     atom   28 type  1   force =    -0.00927158   -0.00284438    0.01087284
     atom   29 type  1   force =    -0.01114314   -0.01728742    0.00920192
     atom   30 type  1   force =     0.02369910   -0.02479943    0.01419797
     atom   31 type  1   force =     0.00592755   -0.01367309    0.03275722
     atom   32 type  1   force =     0.00192254    0.00316515   -0.00825066
     atom   33 type  1   force =    -0.00395007   -0.00030059    0.03974128
     atom   34 type  1   force =     0.00200783   -0.02456421    0.01432595
     atom   35 type  1   force =    -0.03911811    0.01534828   -0.08043005
     atom   36 type  1   force =     0.00671565    0.00938084    0.01214488
     atom   37 type  1   force =    -0.03418205    0.01547053   -0.02425739
     atom   38 type  1   force =     0.04738143   -0.04124280   -0.05202103
     atom   39 type  1   force =     0.00350586   -0.00095595    0.04673734
     atom   40 type  1   force =    -0.00905785    0.02308501   -0.01274886
     atom   41 type  1   force =    -0.02736547    0.04573126   -0.00998278
     atom   42 type  1   force =     0.02281259   -0.00781677    0.00376126
     atom   43 type  1   force =     0.04543021   -0.00627454    0.02907573
     atom   44 type  1   force =     0.01206640   -0.00914079    0.01916631
     atom   45 type  1   force =    -0.00226545    0.03335733   -0.00520837
     atom   46 type  1   force =    -0.00028833   -0.01311721    0.01267951
     atom   47 type  1   force =     0.00001613    0.01056135    0.00883959
     atom   48 type  1   force =     0.02763987    0.00140126    0.01945664
     atom   49 type  1   force =     0.01827672    0.02052927   -0.01767199
     atom   50 type  1   force =    -0.04404693    0.03646228    0.02709923
     atom   51 type  1   force =     0.02851599   -0.01496231   -0.00953293
     atom   52 type  1   force =    -0.00554141   -0.02945491    0.02526538
     atom   53 type  1   force =    -0.00424266    0.00705765   -0.02073465
     atom   54 type  1   force =    -0.05080702   -0.01795855   -0.00097081
     atom   55 type  1   force =     0.01027412    0.00252939    0.06661219
     atom   56 type  1   force =    -0.00298374    0.03227905    0.00228565
     atom   57 type  1   force =     0.01407480    0.02382016    0.01613508
     atom   58 type  1   force =    -0.00818058   -0.02878282    0.06017169
     atom   59 type  1   force =    -0.00485315   -0.00050828    0.00746637
     atom   60 type  1   force =     0.00229234   -0.01633253   -0.03764498
     atom   61 type  1   force =    -0.01402865   -0.02014103    0.00430690
     atom   62 type  1   force =     0.09131180   -0.08820367    0.00163861
     atom   63 type  1   force =    -0.00859133   -0.01699351   -0.01204921
     atom   64 type  1   force =    -0.02096076   -0.00322501   -0.02543609

     Total force =     0.363673     Total SCF correction =     0.000807


     Computing stress (Cartesian axis) and pressure

          total   stress  (Ry/bohr**3)                   (kbar)     P=      -28.36
  -0.00015646  -0.00004155  -0.00000929          -23.02       -6.11       -1.37
  -0.00004155  -0.00018338  -0.00004730           -6.11      -26.98       -6.96
  -0.00000929  -0.00004730  -0.00023857           -1.37       -6.96      -35.10

 
     init_run     :      1.10s CPU      4.95s WALL (       1 calls)
     electrons    :      1.97s CPU      2.14s WALL (       1 calls)
     forces       :      0.03s CPU      0.04s WALL (       1 calls)
     stress       :      0.15s CPU      0.16s WALL (       1 calls)

     Called by init_run:
     wfcinit      :      0.56s CPU      4.24s WALL (       1 calls)
                                        4.24s GPU  (       1 calls)
     potinit      :      0.05s CPU      0.14s WALL (       1 calls)
     hinit0       :      0.47s CPU      0.50s WALL (       1 calls)

     Called by electrons:
     c_bands      :      1.17s CPU      1.25s WALL (      20 calls)
     sum_band     :      0.39s CPU      0.45s WALL (      20 calls)
     v_of_rho     :      0.19s CPU      0.29s WALL (      20 calls)
     mix_rho      :      0.19s CPU      0.20s WALL (      20 calls)

     Called by c_bands:
     init_us_2    :      0.07s CPU      0.08s WALL (      41 calls)
     init_us_2:gp :      0.07s CPU      0.08s WALL (      41 calls)
     regterg      :      0.99s CPU      1.06s WALL (      20 calls)

     Called by *egterg:
     rdiaghg      :      0.41s CPU      1.16s WALL (      85 calls)
                                        1.15s GPU  (      85 calls)
     h_psi        :      0.95s CPU      3.92s WALL (      87 calls)
                                        3.92s GPU  (      87 calls)
     g_psi        :      0.00s CPU      0.00s WALL (      66 calls)
                                        0.00s GPU  (      66 calls)

     Called by h_psi:
     h_psi:calbec :      0.51s CPU      3.40s WALL (      87 calls)
                                        3.40s GPU  (      87 calls)
     vloc_psi     :      0.39s CPU      0.46s WALL (      87 calls)
                                        0.46s GPU  (      87 calls)
     add_vuspsi   :      0.03s CPU      0.05s WALL (      87 calls)
                                        0.05s GPU  (      87 calls)

     General routines
     calbec       :      0.52s CPU      3.40s WALL (      92 calls)
     fft          :      0.63s CPU      0.76s WALL (     167 calls)
                                        0.13s GPU  (     106 calls)
     ffts         :      0.05s CPU      0.05s WALL (      20 calls)
     fftw         :      0.48s CPU      0.63s WALL (    2092 calls)
                                        0.55s GPU  (    2092 calls)
 
     Parallel routines
 
     PWSCF        :      3.31s CPU      7.37s WALL

 
   This run was terminated on:  11: 4:29  10May2023            

=------------------------------------------------------------------------------=
   JOB DONE.
=------------------------------------------------------------------------------=
