An instance of this daemon is already running

     Program PWSCF v.7.1 starts on 10May2023 at 11: 9:23 

     This program is part of the open-source Quantum ESPRESSO suite
     for quantum simulation of materials; please cite
         "P. Giannozzi et al., J. Phys.:Condens. Matter 21 395502 (2009);
         "P. Giannozzi et al., J. Phys.:Condens. Matter 29 465901 (2017);
         "P. Giannozzi et al., J. Chem. Phys. 152 154105 (2020);
          URL http://www.quantum-espresso.org", 
     in publications or presentations arising from this work. More details at
     http://www.quantum-espresso.org/quote

     Parallel version (MPI & OpenMP), running on       4 processor cores
     Number of MPI processes:                 4
     Threads/MPI process:                     1

     MPI processes distributed on     1 nodes
     753556 MiB available memory on the printing compute node when the environment starts
 
     Reading input from pw-si-95.in
Warning: card &CELL ignored
Warning: card / ignored

     Current dimensions of program PWSCF are:
     Max number of different atomic species (ntypx) = 10
     Max number of k-points (npk) =  40000
     Max angular momentum in pseudopotentials (lmaxx) =  4

     IMPORTANT: XC functional enforced from input :
     Exchange-correlation= PBE
                           (   1   4   3   4   0   0   0)
     Any further DFT definition will be discarded
     Please, verify this is what you really want


     gamma-point specific algorithms are used
 
     K-points division:     npool     =       2
     R & G space division:  proc/nbgrp/npool/nimage =       2
     Subspace diagonalization in iterative solution of the eigenvalue problem:
     a serial algorithm will be used

     Message from routine divide_et_impera:
     suboptimal parallelization: some nodes have no k-points
 
     Parallelization info
     --------------------
     sticks:   dense  smooth     PW     G-vecs:    dense   smooth      PW
     Min        1933    1933    516                90543    90543   12416
     Max        1936    1936    517                90548    90548   12421
     Sum        3869    3869   1033               181091   181091   24837
 
     Using Slab Decomposition
 


     bravais-lattice index     =            0
     lattice parameter (alat)  =      20.1397  a.u.
     unit-cell volume          =    8168.8720 (a.u.)^3
     number of atoms/cell      =           64
     number of atomic types    =            1
     number of electrons       =       256.00
     number of Kohn-Sham states=          154
     kinetic-energy cutoff     =      30.0000  Ry
     charge density cutoff     =     120.0000  Ry
     scf convergence threshold =      1.0E-06
     mixing beta               =       0.5000
     number of iterations used =            8  plain     mixing
     Exchange-correlation= PBE
                           (   1   4   3   4   0   0   0)

     GPU acceleration is ACTIVE.
     GPU-aware MPI enabled

     Message from routine print_cuda_info:
     High GPU oversubscription detected. Are you sure this is what you want?

     celldm(1)=  20.139748  celldm(2)=   0.000000  celldm(3)=   0.000000
     celldm(4)=   0.000000  celldm(5)=   0.000000  celldm(6)=   0.000000

     crystal axes: (cart. coord. in units of alat)
               a(1) = (   1.000000   0.000000   0.000000 )  
               a(2) = (   0.000000   1.000000   0.000000 )  
               a(3) = (   0.000000   0.000000   1.000000 )  

     reciprocal axes: (cart. coord. in units 2 pi/alat)
               b(1) = (  1.000000  0.000000  0.000000 )  
               b(2) = (  0.000000  1.000000  0.000000 )  
               b(3) = (  0.000000  0.000000  1.000000 )  


     PseudoPot. # 1 for Si read from file:
     /home/ppiaggi/pseudos/Si_ONCV_PBE_sr.upf
     MD5 check sum: 8553c464762ac42b85b1eed164b4d029
     Pseudo is Norm-conserving, Zval =  4.0
     Generated using ONCVPSP code by D. R. Hamann
     Using radial grid of 1510 points,  4 beta functions with: 
                l(1) =   0
                l(2) =   0
                l(3) =   1
                l(4) =   1

     atomic species   valence    mass     pseudopotential
        Si             4.00    28.08500     Si( 1.00)

     No symmetry found



   Cartesian axes

     site n.     atom                  positions (alat units)
         1           Si  tau(   1) = (   0.8624280   0.8209870   0.8831500  )
         2           Si  tau(   2) = (   0.8912930   0.9814110   0.6720240  )
         3           Si  tau(   3) = (   0.0949310   0.1348300   0.1580360  )
         4           Si  tau(   4) = (   0.1458370   0.8247000   0.4635910  )
         5           Si  tau(   5) = (   0.3029900   0.8145740   0.3038590  )
         6           Si  tau(   6) = (   0.9352450   0.1024240   0.4562470  )
         7           Si  tau(   7) = (   0.9396750   0.3291020   0.5040440  )
         8           Si  tau(   8) = (   0.5685450   0.1231110   0.3611540  )
         9           Si  tau(   9) = (   0.3424530   0.6525400   0.1385900  )
        10           Si  tau(  10) = (   0.0323376   0.4548310   0.1151020  )
        11           Si  tau(  11) = (   0.8998960   0.7083320   0.7008990  )
        12           Si  tau(  12) = (   0.3406030   0.2636020   0.7658250  )
        13           Si  tau(  13) = (   0.0531024   0.9065440   0.9780070  )
        14           Si  tau(  14) = (   0.2884660   0.0028069   0.1949530  )
        15           Si  tau(  15) = (   0.0094457   0.8762050   0.2036630  )
        16           Si  tau(  16) = (   0.3279810   0.0982318   0.6073030  )
        17           Si  tau(  17) = (   0.5637220   0.6937480   0.1190100  )
        18           Si  tau(  18) = (   0.5557670   0.5060030   0.2999570  )
        19           Si  tau(  19) = (   0.8840010   0.6580170   0.4043230  )
        20           Si  tau(  20) = (   0.5558620   0.0199716   0.8524580  )
        21           Si  tau(  21) = (   0.5260000   0.7459560   0.3838390  )
        22           Si  tau(  22) = (   0.0938321   0.6813680   0.9807360  )
        23           Si  tau(  23) = (   0.3358600   0.5759690   0.6464330  )
        24           Si  tau(  24) = (   0.7321020   0.2561340   0.1442130  )
        25           Si  tau(  25) = (   0.6741730   0.9248450   0.0079032  )
        26           Si  tau(  26) = (   0.8797760   0.2572700   0.8658850  )
        27           Si  tau(  27) = (   0.1007220   0.6056950   0.7360670  )
        28           Si  tau(  28) = (   0.1603020   0.3746650   0.8282710  )
        29           Si  tau(  29) = (   0.5241220   0.9324270   0.6409920  )
        30           Si  tau(  30) = (   0.1484260   0.0487240   0.7119230  )
        31           Si  tau(  31) = (   0.7820060   0.7429820   0.2215580  )
        32           Si  tau(  32) = (   0.7829290   0.4333660   0.9811900  )
        33           Si  tau(  33) = (   0.3670020   0.8072790   0.5702970  )
        34           Si  tau(  34) = (   0.5566510   0.6532650   0.7233330  )
        35           Si  tau(  35) = (   0.0637565   0.1334770   0.8912750  )
        36           Si  tau(  36) = (   0.2057170   0.8320880   0.7335030  )
        37           Si  tau(  37) = (   0.9784410   0.3124520   0.2519490  )
        38           Si  tau(  38) = (   0.4900610   0.7695490   0.9110180  )
        39           Si  tau(  39) = (   0.8550010   0.0723200   0.0474101  )
        40           Si  tau(  40) = (   0.4961220   0.2974980   0.1607200  )
        41           Si  tau(  41) = (   0.2960990   0.4382050   0.2089150  )
        42           Si  tau(  42) = (   0.2755430   0.9023590   0.9716860  )
        43           Si  tau(  43) = (   0.8505130   0.6261270   0.0331689  )
        44           Si  tau(  44) = (   0.6774120   0.0830548   0.5769250  )
        45           Si  tau(  45) = (   0.0784003   0.6432560   0.2483440  )
        46           Si  tau(  46) = (   0.5059330   0.0442701   0.1571390  )
        47           Si  tau(  47) = (   0.3318620   0.5745490   0.9184110  )
        48           Si  tau(  48) = (   0.7587060   0.5421030   0.7566790  )
        49           Si  tau(  49) = (   0.1711160   0.3716380   0.4073950  )
        50           Si  tau(  50) = (   0.5239060   0.3964710   0.7712530  )
        51           Si  tau(  51) = (   0.3785070   0.2404310   0.4119340  )
        52           Si  tau(  52) = (   0.7706370   0.4578200   0.3449370  )
        53           Si  tau(  53) = (   0.5322330   0.4711120   0.0018024  )
        54           Si  tau(  54) = (   0.6468760   0.9271350   0.3225370  )
        55           Si  tau(  55) = (   0.8421590   0.0306450   0.2639780  )
        56           Si  tau(  56) = (   0.1048980   0.5947000   0.5049920  )
        57           Si  tau(  57) = (   0.9792390   0.4001790   0.7147730  )
        58           Si  tau(  58) = (   0.3703680   0.0970971   0.9147290  )
        59           Si  tau(  59) = (   0.1782380   0.0795424   0.3997010  )
        60           Si  tau(  60) = (   0.6902930   0.2119160   0.7740260  )
        61           Si  tau(  61) = (   0.4622830   0.4359420   0.5128290  )
        62           Si  tau(  62) = (   0.2473700   0.2938810   0.0540727  )
        63           Si  tau(  63) = (   0.7143760   0.4034650   0.5704520  )
        64           Si  tau(  64) = (   0.6976790   0.7637170   0.5565100  )

     number of k points=     1  Fermi-Dirac smearing, width (Ry)=  0.0100
                       cart. coord. in units 2pi/alat
        k(    1) = (   0.0000000   0.0000000   0.0000000), wk =   2.0000000

     Dense  grid:    90546 G-vectors     FFT dimensions: (  72,  72,  72)

     Estimated max dynamical RAM per process >     145.50 MB

     Estimated total dynamical RAM >     559.89 MB

     Initial potential from superposition of free atoms

     starting charge     255.9608, renormalised to     256.0000
     Starting wfcs are  256 randomized atomic wfcs

     total cpu time spent up to now is        5.0 secs

     Self-consistent Calculation

     iteration #  1     ecut=    30.00 Ry     beta= 0.50
     Davidson diagonalization with overlap
     ethr =  1.00E-02,  avg # of iterations =  3.0

     Threshold (ethr) on eigenvalues was too large:
     Diagonalizing with lowered threshold

     Davidson diagonalization with overlap
     ethr =  3.93E-04,  avg # of iterations =  5.0

     total cpu time spent up to now is        5.3 secs

     total energy              =    -501.21555352 Ry
     estimated scf accuracy    <       1.21567348 Ry

     iteration #  2     ecut=    30.00 Ry     beta= 0.50
     Davidson diagonalization with overlap
     ethr =  4.75E-04,  avg # of iterations =  5.0

     total cpu time spent up to now is        5.4 secs

     total energy              =    -500.72038993 Ry
     estimated scf accuracy    <       5.84736569 Ry

     iteration #  3     ecut=    30.00 Ry     beta= 0.50
     Davidson diagonalization with overlap
     ethr =  4.75E-04,  avg # of iterations =  4.0

     total cpu time spent up to now is        5.6 secs

     total energy              =    -501.29884908 Ry
     estimated scf accuracy    <       1.87613905 Ry

     iteration #  4     ecut=    30.00 Ry     beta= 0.50
     Davidson diagonalization with overlap
     ethr =  4.75E-04,  avg # of iterations =  2.0

     total cpu time spent up to now is        5.7 secs

     total energy              =    -501.39257445 Ry
     estimated scf accuracy    <       0.57320815 Ry

     iteration #  5     ecut=    30.00 Ry     beta= 0.50
     Davidson diagonalization with overlap
     ethr =  2.24E-04,  avg # of iterations =  2.0

     total cpu time spent up to now is        5.8 secs

     total energy              =    -501.42141939 Ry
     estimated scf accuracy    <       0.64163266 Ry

     iteration #  6     ecut=    30.00 Ry     beta= 0.50
     Davidson diagonalization with overlap
     ethr =  2.24E-04,  avg # of iterations =  2.0

     total cpu time spent up to now is        5.8 secs

     total energy              =    -501.47156403 Ry
     estimated scf accuracy    <       0.06600665 Ry

     iteration #  7     ecut=    30.00 Ry     beta= 0.50
     Davidson diagonalization with overlap
     ethr =  2.58E-05,  avg # of iterations =  9.0

     total cpu time spent up to now is        6.0 secs

     total energy              =    -501.48038379 Ry
     estimated scf accuracy    <       0.02504058 Ry

     iteration #  8     ecut=    30.00 Ry     beta= 0.50
     Davidson diagonalization with overlap
     ethr =  9.78E-06,  avg # of iterations =  3.0

     total cpu time spent up to now is        6.1 secs

     total energy              =    -501.48290215 Ry
     estimated scf accuracy    <       0.02297814 Ry

     iteration #  9     ecut=    30.00 Ry     beta= 0.50
     Davidson diagonalization with overlap
     ethr =  8.98E-06,  avg # of iterations =  2.0

     total cpu time spent up to now is        6.2 secs

     total energy              =    -501.48460379 Ry
     estimated scf accuracy    <       0.00174317 Ry

     iteration # 10     ecut=    30.00 Ry     beta= 0.50
     Davidson diagonalization with overlap
     ethr =  6.81E-07,  avg # of iterations =  9.0

     total cpu time spent up to now is        6.3 secs

     total energy              =    -501.48473339 Ry
     estimated scf accuracy    <       0.00290010 Ry

     iteration # 11     ecut=    30.00 Ry     beta= 0.50
     Davidson diagonalization with overlap
     ethr =  6.81E-07,  avg # of iterations =  2.0

     total cpu time spent up to now is        6.4 secs

     total energy              =    -501.48496560 Ry
     estimated scf accuracy    <       0.00039877 Ry

     iteration # 12     ecut=    30.00 Ry     beta= 0.50
     Davidson diagonalization with overlap
     ethr =  1.56E-07,  avg # of iterations =  2.0

     total cpu time spent up to now is        6.5 secs

     total energy              =    -501.48500843 Ry
     estimated scf accuracy    <       0.00017732 Ry

     iteration # 13     ecut=    30.00 Ry     beta= 0.50
     Davidson diagonalization with overlap
     ethr =  6.93E-08,  avg # of iterations =  2.0

     total cpu time spent up to now is        6.6 secs

     total energy              =    -501.48502167 Ry
     estimated scf accuracy    <       0.00012775 Ry

     iteration # 14     ecut=    30.00 Ry     beta= 0.50
     Davidson diagonalization with overlap
     ethr =  4.99E-08,  avg # of iterations =  2.0

     total cpu time spent up to now is        6.7 secs

     total energy              =    -501.48502989 Ry
     estimated scf accuracy    <       0.00002612 Ry

     iteration # 15     ecut=    30.00 Ry     beta= 0.50
     Davidson diagonalization with overlap
     ethr =  1.02E-08,  avg # of iterations =  3.0

     total cpu time spent up to now is        6.8 secs

     total energy              =    -501.48503292 Ry
     estimated scf accuracy    <       0.00002097 Ry

     iteration # 16     ecut=    30.00 Ry     beta= 0.50
     Davidson diagonalization with overlap
     ethr =  8.19E-09,  avg # of iterations =  2.0

     total cpu time spent up to now is        6.9 secs

     total energy              =    -501.48503412 Ry
     estimated scf accuracy    <       0.00000828 Ry

     iteration # 17     ecut=    30.00 Ry     beta= 0.50
     Davidson diagonalization with overlap
     ethr =  3.23E-09,  avg # of iterations =  2.0

     total cpu time spent up to now is        7.0 secs

     End of self-consistent calculation

          k = 0.0000 0.0000 0.0000 ( 11372 PWs)   bands (ev):

    -5.3781  -4.4094  -4.3434  -4.2821  -4.1147  -4.0792  -4.0143  -3.4287
    -3.2783  -3.2340  -3.1896  -3.1546  -3.0818  -2.9573  -2.8718  -2.7945
    -2.7232  -2.6610  -2.4482  -2.2313  -2.0401  -1.9058  -1.7708  -1.7488
    -1.5590  -1.5038  -1.2822  -0.9636  -0.9088  -0.7136  -0.6473  -0.4341
    -0.3046  -0.2587  -0.0760   0.0282   0.0841   0.0913   0.1554   0.2749
     0.3333   0.4039   0.4830   0.5538   0.7053   0.7565   0.8213   0.9355
     0.9640   1.1730   1.2534   1.2924   1.3161   1.3878   1.4694   1.5876
     1.6492   1.7964   1.9663   2.0474   2.1588   2.2028   2.2590   2.4070
     2.5466   2.5830   2.7110   2.7441   2.7693   2.7820   2.8519   3.0052
     3.0357   3.1530   3.2288   3.2762   3.2942   3.4300   3.5457   3.6926
     3.9312   4.2168   4.3193   4.3370   4.4211   4.4896   4.6057   4.6434
     4.7665   4.7779   4.8551   4.8960   4.9897   5.0702   5.1046   5.1449
     5.2029   5.2610   5.2798   5.4296   5.5158   5.5790   5.6019   5.6483
     5.6945   5.8186   5.8421   5.8940   5.9045   5.9581   6.0687   6.0877
     6.2150   6.2578   6.3194   6.3389   6.3588   6.4569   6.5327   6.5740
     6.6150   6.6347   6.6698   6.7692   6.8415   6.8962   6.9293   6.9970
     7.0458   7.1584   7.2410   7.3539   7.4117   7.4738   7.5010   7.6134
     7.6601   7.6659   7.7047   7.8202   7.8512   7.8814   7.9273   8.0321
     8.0430   8.1292   8.2068   8.2193   8.3293   8.4459   8.4668   8.5245
     8.6029   8.6135

     the Fermi energy is     7.0600 ev

!    total energy              =    -501.48503436 Ry
     estimated scf accuracy    <       0.00000098 Ry
     smearing contrib. (-TS)   =      -0.13385971 Ry
     internal energy E=F+TS    =    -501.35117465 Ry

     The total energy is F=E-TS. E is the sum of the following terms:
     one-electron contribution =     187.51271438 Ry
     hartree contribution      =      24.06293874 Ry
     xc contribution           =    -150.76994120 Ry
     ewald contribution        =    -562.15688656 Ry

     convergence has been achieved in  17 iterations

     Forces acting on atoms (cartesian axes, Ry/au):

     atom    1 type  1   force =     0.00582662    0.00194122    0.03304182
     atom    2 type  1   force =    -0.00598813   -0.00253343   -0.02584829
     atom    3 type  1   force =     0.02079062    0.00578414   -0.02526900
     atom    4 type  1   force =     0.02735031   -0.00241074   -0.00547966
     atom    5 type  1   force =     0.01462187   -0.02178419    0.01198361
     atom    6 type  1   force =     0.01091846    0.02612991    0.02813751
     atom    7 type  1   force =    -0.00763419   -0.01755706   -0.02155169
     atom    8 type  1   force =     0.00549661    0.04857304    0.02808265
     atom    9 type  1   force =    -0.00985948   -0.02089083    0.01026543
     atom   10 type  1   force =     0.03618601    0.08958152   -0.05295674
     atom   11 type  1   force =    -0.00370225    0.02342827   -0.01855019
     atom   12 type  1   force =     0.00619138   -0.00731883   -0.01521319
     atom   13 type  1   force =    -0.04244297    0.00657602    0.01905833
     atom   14 type  1   force =    -0.00927488   -0.00401307   -0.01698973
     atom   15 type  1   force =    -0.02438291   -0.01252261   -0.01729548
     atom   16 type  1   force =     0.02881621    0.02378991   -0.03566854
     atom   17 type  1   force =     0.01094897   -0.03199674   -0.01186383
     atom   18 type  1   force =    -0.02432267    0.03693798    0.01101871
     atom   19 type  1   force =    -0.00939764   -0.05234852    0.00299489
     atom   20 type  1   force =     0.02647724   -0.00058991   -0.04805646
     atom   21 type  1   force =    -0.01016078   -0.00178430    0.01264592
     atom   22 type  1   force =     0.00643176   -0.03021392   -0.01389254
     atom   23 type  1   force =     0.02454930    0.01094422    0.00259378
     atom   24 type  1   force =    -0.00427732    0.01405034    0.00719483
     atom   25 type  1   force =     0.01963177   -0.01478078    0.02599679
     atom   26 type  1   force =    -0.00405994    0.02435198    0.00740115
     atom   27 type  1   force =     0.00244063    0.01458661    0.00682912
     atom   28 type  1   force =     0.05873023   -0.00205179    0.04110778
     atom   29 type  1   force =     0.01025569    0.02721547    0.03815774
     atom   30 type  1   force =    -0.03016826   -0.04605147   -0.00952978
     atom   31 type  1   force =    -0.00344327    0.02498348   -0.02767391
     atom   32 type  1   force =    -0.04050667   -0.05265876   -0.02377869
     atom   33 type  1   force =    -0.02873381   -0.05169809   -0.01837463
     atom   34 type  1   force =     0.00154616   -0.00194637    0.00907283
     atom   35 type  1   force =     0.00087569    0.00895119    0.05131533
     atom   36 type  1   force =     0.00415462    0.00935268    0.01833036
     atom   37 type  1   force =    -0.02722525   -0.05378889    0.08136845
     atom   38 type  1   force =    -0.00665597    0.00124506   -0.00289481
     atom   39 type  1   force =    -0.00819479    0.00883033    0.00108272
     atom   40 type  1   force =     0.01000457   -0.00909481   -0.00552693
     atom   41 type  1   force =    -0.01034351    0.01902790    0.03232177
     atom   42 type  1   force =     0.02188953   -0.01100502   -0.01067331
     atom   43 type  1   force =     0.05927101    0.04687545    0.02037914
     atom   44 type  1   force =     0.02584358    0.01947062   -0.00920949
     atom   45 type  1   force =    -0.01105526    0.00215161    0.00085730
     atom   46 type  1   force =    -0.00079940    0.03569143   -0.02028364
     atom   47 type  1   force =    -0.00383827   -0.01195414   -0.00575212
     atom   48 type  1   force =    -0.01328970   -0.02165530   -0.00484393
     atom   49 type  1   force =    -0.00405199    0.00704832   -0.02145328
     atom   50 type  1   force =     0.01534555   -0.01109742    0.00696880
     atom   51 type  1   force =    -0.01289398    0.00806740    0.01687594
     atom   52 type  1   force =     0.03887815    0.02397221    0.01453722
     atom   53 type  1   force =     0.00251059   -0.00169255   -0.00974486
     atom   54 type  1   force =     0.02755828   -0.05055454   -0.01505266
     atom   55 type  1   force =    -0.00687079   -0.02571638    0.01351250
     atom   56 type  1   force =    -0.01709044   -0.00332341   -0.02063177
     atom   57 type  1   force =    -0.03136745    0.01269007   -0.01996026
     atom   58 type  1   force =    -0.03291378    0.03127200    0.01392802
     atom   59 type  1   force =    -0.00518825    0.00998173    0.01695224
     atom   60 type  1   force =    -0.05098557   -0.00288361   -0.03510791
     atom   61 type  1   force =     0.01310875   -0.01289675   -0.00063365
     atom   62 type  1   force =    -0.04190242   -0.02270626   -0.03133170
     atom   63 type  1   force =    -0.00476912   -0.00994651    0.01886875
     atom   64 type  1   force =     0.01114091   -0.00003511   -0.00178875

     Total force =     0.335315     Total SCF correction =     0.001889


     Computing stress (Cartesian axis) and pressure

          total   stress  (Ry/bohr**3)                   (kbar)     P=      -32.19
  -0.00025350   0.00005447  -0.00007179          -37.29        8.01      -10.56
   0.00005447  -0.00024358  -0.00001633            8.01      -35.83       -2.40
  -0.00007179  -0.00001633  -0.00015933          -10.56       -2.40      -23.44

 
     init_run     :      1.09s CPU      4.93s WALL (       1 calls)
     electrons    :      1.85s CPU      2.00s WALL (       1 calls)
     forces       :      0.03s CPU      0.04s WALL (       1 calls)
     stress       :      0.15s CPU      0.16s WALL (       1 calls)

     Called by init_run:
     wfcinit      :      0.55s CPU      4.21s WALL (       1 calls)
                                        4.21s GPU  (       1 calls)
     potinit      :      0.05s CPU      0.15s WALL (       1 calls)
     hinit0       :      0.47s CPU      0.50s WALL (       1 calls)

     Called by electrons:
     c_bands      :      1.10s CPU      1.18s WALL (      18 calls)
     sum_band     :      0.36s CPU      0.41s WALL (      18 calls)
     v_of_rho     :      0.17s CPU      0.28s WALL (      18 calls)
     mix_rho      :      0.17s CPU      0.18s WALL (      18 calls)

     Called by c_bands:
     init_us_2    :      0.06s CPU      0.07s WALL (      37 calls)
     init_us_2:gp :      0.06s CPU      0.07s WALL (      37 calls)
     regterg      :      0.95s CPU      1.02s WALL (      18 calls)

     Called by *egterg:
     rdiaghg      :      0.40s CPU      1.16s WALL (      78 calls)
                                        1.14s GPU  (      78 calls)
     h_psi        :      0.92s CPU      3.88s WALL (      80 calls)
                                        3.87s GPU  (      80 calls)
     g_psi        :      0.00s CPU      0.00s WALL (      61 calls)
                                        0.00s GPU  (      61 calls)

     Called by h_psi:
     h_psi:calbec :      0.51s CPU      3.38s WALL (      80 calls)
                                        3.38s GPU  (      80 calls)
     vloc_psi     :      0.36s CPU      0.44s WALL (      80 calls)
                                        0.44s GPU  (      80 calls)
     add_vuspsi   :      0.03s CPU      0.05s WALL (      80 calls)
                                        0.05s GPU  (      80 calls)

     General routines
     calbec       :      0.52s CPU      3.38s WALL (      85 calls)
     fft          :      0.61s CPU      0.75s WALL (     151 calls)
                                        0.14s GPU  (      96 calls)
     ffts         :      0.04s CPU      0.05s WALL (      18 calls)
     fftw         :      0.44s CPU      0.59s WALL (    1890 calls)
                                        0.51s GPU  (    1890 calls)
 
     Parallel routines
 
     PWSCF        :      3.17s CPU      7.22s WALL

 
   This run was terminated on:  11: 9:30  10May2023            

=------------------------------------------------------------------------------=
   JOB DONE.
=------------------------------------------------------------------------------=
