An instance of this daemon is already running
An instance of this daemon is already running

     Program PWSCF v.7.1 starts on 10May2023 at 10:54:10 

     This program is part of the open-source Quantum ESPRESSO suite
     for quantum simulation of materials; please cite
         "P. Giannozzi et al., J. Phys.:Condens. Matter 21 395502 (2009);
         "P. Giannozzi et al., J. Phys.:Condens. Matter 29 465901 (2017);
         "P. Giannozzi et al., J. Chem. Phys. 152 154105 (2020);
          URL http://www.quantum-espresso.org", 
     in publications or presentations arising from this work. More details at
     http://www.quantum-espresso.org/quote

     Parallel version (MPI & OpenMP), running on       4 processor cores
     Number of MPI processes:                 4
     Threads/MPI process:                     1

     MPI processes distributed on     1 nodes
     753549 MiB available memory on the printing compute node when the environment starts
 
     Reading input from pw-si-1.in
Warning: card &CELL ignored
Warning: card / ignored

     Current dimensions of program PWSCF are:
     Max number of different atomic species (ntypx) = 10
     Max number of k-points (npk) =  40000
     Max angular momentum in pseudopotentials (lmaxx) =  4

     IMPORTANT: XC functional enforced from input :
     Exchange-correlation= PBE
                           (   1   4   3   4   0   0   0)
     Any further DFT definition will be discarded
     Please, verify this is what you really want


     gamma-point specific algorithms are used
 
     K-points division:     npool     =       2
     R & G space division:  proc/nbgrp/npool/nimage =       2
     Subspace diagonalization in iterative solution of the eigenvalue problem:
     a serial algorithm will be used

     Message from routine divide_et_impera:
     suboptimal parallelization: some nodes have no k-points
 
     Parallelization info
     --------------------
     sticks:   dense  smooth     PW     G-vecs:    dense   smooth      PW
     Min        1984    1984    519                93503    93503   12703
     Max        1985    1985    522                93504    93504   12710
     Sum        3969    3969   1041               187007   187007   25413
 
     Using Slab Decomposition
 


     bravais-lattice index     =            0
     lattice parameter (alat)  =      20.3445  a.u.
     unit-cell volume          =    8420.5210 (a.u.)^3
     number of atoms/cell      =           64
     number of atomic types    =            1
     number of electrons       =       256.00
     number of Kohn-Sham states=          154
     kinetic-energy cutoff     =      30.0000  Ry
     charge density cutoff     =     120.0000  Ry
     scf convergence threshold =      1.0E-06
     mixing beta               =       0.5000
     number of iterations used =            8  plain     mixing
     Exchange-correlation= PBE
                           (   1   4   3   4   0   0   0)

     GPU acceleration is ACTIVE.
     GPU-aware MPI enabled

     Message from routine print_cuda_info:
     High GPU oversubscription detected. Are you sure this is what you want?

     celldm(1)=  20.344467  celldm(2)=   0.000000  celldm(3)=   0.000000
     celldm(4)=   0.000000  celldm(5)=   0.000000  celldm(6)=   0.000000

     crystal axes: (cart. coord. in units of alat)
               a(1) = (   1.000000   0.000000   0.000000 )  
               a(2) = (   0.000000   1.000000   0.000000 )  
               a(3) = (   0.000000   0.000000   1.000000 )  

     reciprocal axes: (cart. coord. in units 2 pi/alat)
               b(1) = (  1.000000  0.000000  0.000000 )  
               b(2) = (  0.000000  1.000000  0.000000 )  
               b(3) = (  0.000000  0.000000  1.000000 )  


     PseudoPot. # 1 for Si read from file:
     /home/ppiaggi/pseudos/Si_ONCV_PBE_sr.upf
     MD5 check sum: 8553c464762ac42b85b1eed164b4d029
     Pseudo is Norm-conserving, Zval =  4.0
     Generated using ONCVPSP code by D. R. Hamann
     Using radial grid of 1510 points,  4 beta functions with: 
                l(1) =   0
                l(2) =   0
                l(3) =   1
                l(4) =   1

     atomic species   valence    mass     pseudopotential
        Si             4.00    28.08500     Si( 1.00)

     No symmetry found



   Cartesian axes

     site n.     atom                  positions (alat units)
         1           Si  tau(   1) = (   0.2878320   0.9607680   0.5300580  )
         2           Si  tau(   2) = (   0.2122730   0.5632940   0.3222040  )
         3           Si  tau(   3) = (   0.1479370   0.4060690   0.8196310  )
         4           Si  tau(   4) = (   0.8696220   0.9512450   0.0703781  )
         5           Si  tau(   5) = (   0.7886480   0.5168490   0.3509320  )
         6           Si  tau(   6) = (   0.4783830   0.0626400   0.6680950  )
         7           Si  tau(   7) = (   0.7171420   0.9672620   0.7314800  )
         8           Si  tau(   8) = (   0.1721200   0.9553960   0.2590160  )
         9           Si  tau(   9) = (   0.7228640   0.3241790   0.2434740  )
        10           Si  tau(  10) = (   0.9773290   0.7559060   0.1442780  )
        11           Si  tau(  11) = (   0.3425320   0.7510150   0.9116590  )
        12           Si  tau(  12) = (   0.6665840   0.5955790   0.0518869  )
        13           Si  tau(  13) = (   0.3282530   0.2140040   0.1112560  )
        14           Si  tau(  14) = (   0.5178150   0.4378230   0.1511630  )
        15           Si  tau(  15) = (   0.5481050   0.0685204   0.4243350  )
        16           Si  tau(  16) = (   0.0319474   0.0662954   0.4228590  )
        17           Si  tau(  17) = (   0.8241770   0.1909100   0.7426390  )
        18           Si  tau(  18) = (   0.5729970   0.0789260   0.1912190  )
        19           Si  tau(  19) = (   0.8869820   0.9516540   0.5741130  )
        20           Si  tau(  20) = (   0.9897390   0.2653160   0.3691330  )
        21           Si  tau(  21) = (   0.5951310   0.7745640   0.6333960  )
        22           Si  tau(  22) = (   0.3367310   0.0931147   0.3221510  )
        23           Si  tau(  23) = (   0.8384660   0.8189350   0.8691890  )
        24           Si  tau(  24) = (   0.5396300   0.6990070   0.3058710  )
        25           Si  tau(  25) = (   0.3030200   0.7187020   0.4874630  )
        26           Si  tau(  26) = (   0.0450337   0.3304580   0.1378590  )
        27           Si  tau(  27) = (   0.4904420   0.2556610   0.9885900  )
        28           Si  tau(  28) = (   0.4180630   0.2724550   0.6050900  )
        29           Si  tau(  29) = (   0.9163550   0.4560750   0.5205440  )
        30           Si  tau(  30) = (   0.0775441   0.6210160   0.8384690  )
        31           Si  tau(  31) = (   0.4986410   0.8581190   0.4467340  )
        32           Si  tau(  32) = (   0.2361130   0.4435160   0.0699487  )
        33           Si  tau(  33) = (   0.7589230   0.1910840   0.9635250  )
        34           Si  tau(  34) = (   0.0129808   0.8075430   0.3546420  )
        35           Si  tau(  35) = (   0.1413140   0.4640250   0.5945900  )
        36           Si  tau(  36) = (   0.6451730   0.9413810   0.0309848  )
        37           Si  tau(  37) = (   0.2406050   0.2650100   0.4487070  )
        38           Si  tau(  38) = (   0.5103580   0.0386911   0.8884200  )
        39           Si  tau(  39) = (   0.5319990   0.4909220   0.4131910  )
        40           Si  tau(  40) = (   0.3054030   0.7570250   0.2125800  )
        41           Si  tau(  41) = (   0.8390920   0.7098470   0.5323070  )
        42           Si  tau(  42) = (   0.3633810   0.4105240   0.3215670  )
        43           Si  tau(  43) = (   0.7677580   0.9449420   0.3759140  )
        44           Si  tau(  44) = (   0.7538500   0.7303290   0.2505900  )
        45           Si  tau(  45) = (   0.2112630   0.0472617   0.0583416  )
        46           Si  tau(  46) = (   0.4711480   0.6376700   0.7783090  )
        47           Si  tau(  47) = (   0.0674102   0.1939210   0.8028900  )
        48           Si  tau(  48) = (   0.1869890   0.6613610   0.0259117  )
        49           Si  tau(  49) = (   0.0208260   0.8344330   0.7288110  )
        50           Si  tau(  50) = (   0.8854180   0.6069240   0.9730290  )
        51           Si  tau(  51) = (   0.0934869   0.6950530   0.5680100  )
        52           Si  tau(  52) = (   0.5161640   0.7771660   0.0445014  )
        53           Si  tau(  53) = (   0.7791720   0.6179190   0.7489000  )
        54           Si  tau(  54) = (   0.7339730   0.3736670   0.6627640  )
        55           Si  tau(  55) = (   0.1749720   0.0102139   0.7305280  )
        56           Si  tau(  56) = (   0.8216420   0.1196430   0.2292320  )
        57           Si  tau(  57) = (   0.6095400   0.4777290   0.8644960  )
        58           Si  tau(  58) = (   0.0113318   0.5372600   0.2465850  )
        59           Si  tau(  59) = (   0.6308840   0.3006600   0.4641760  )
        60           Si  tau(  60) = (   0.3915490   0.5337130   0.5964570  )
        61           Si  tau(  61) = (   0.3905580   0.3650170   0.8241590  )
        62           Si  tau(  62) = (   0.3154250   0.9570600   0.8868260  )
        63           Si  tau(  63) = (   0.8641930   0.3897500   0.0792582  )
        64           Si  tau(  64) = (   0.0069947   0.1458980   0.0025758  )

     number of k points=     1  Fermi-Dirac smearing, width (Ry)=  0.0100
                       cart. coord. in units 2pi/alat
        k(    1) = (   0.0000000   0.0000000   0.0000000), wk =   2.0000000

     Dense  grid:    93504 G-vectors     FFT dimensions: (  72,  72,  72)

     Estimated max dynamical RAM per process >     149.54 MB

     Estimated total dynamical RAM >     575.33 MB

     Initial potential from superposition of free atoms

     starting charge     255.9608, renormalised to     256.0000
     Starting wfcs are  256 randomized atomic wfcs

     total cpu time spent up to now is        5.0 secs

     Self-consistent Calculation

     iteration #  1     ecut=    30.00 Ry     beta= 0.50
     Davidson diagonalization with overlap
     ethr =  1.00E-02,  avg # of iterations =  3.0

     Threshold (ethr) on eigenvalues was too large:
     Diagonalizing with lowered threshold

     Davidson diagonalization with overlap
     ethr =  4.61E-04,  avg # of iterations =  4.0

     total cpu time spent up to now is        5.3 secs

     total energy              =    -501.36559907 Ry
     estimated scf accuracy    <       1.38646900 Ry

     iteration #  2     ecut=    30.00 Ry     beta= 0.50
     Davidson diagonalization with overlap
     ethr =  5.42E-04,  avg # of iterations =  4.0

     total cpu time spent up to now is        5.4 secs

     total energy              =    -500.82485289 Ry
     estimated scf accuracy    <       6.09914840 Ry

     iteration #  3     ecut=    30.00 Ry     beta= 0.50
     Davidson diagonalization with overlap
     ethr =  5.42E-04,  avg # of iterations =  4.0

     total cpu time spent up to now is        5.5 secs

     total energy              =    -501.43741528 Ry
     estimated scf accuracy    <       2.23851985 Ry

     iteration #  4     ecut=    30.00 Ry     beta= 0.50
     Davidson diagonalization with overlap
     ethr =  5.42E-04,  avg # of iterations =  2.0

     total cpu time spent up to now is        5.6 secs

     total energy              =    -501.58517887 Ry
     estimated scf accuracy    <       0.60048844 Ry

     iteration #  5     ecut=    30.00 Ry     beta= 0.50
     Davidson diagonalization with overlap
     ethr =  2.35E-04,  avg # of iterations =  2.0

     total cpu time spent up to now is        5.7 secs

     total energy              =    -501.61708902 Ry
     estimated scf accuracy    <       0.42119437 Ry

     iteration #  6     ecut=    30.00 Ry     beta= 0.50
     Davidson diagonalization with overlap
     ethr =  1.65E-04,  avg # of iterations =  2.0

     total cpu time spent up to now is        5.8 secs

     total energy              =    -501.65792635 Ry
     estimated scf accuracy    <       0.07163392 Ry

     iteration #  7     ecut=    30.00 Ry     beta= 0.50
     Davidson diagonalization with overlap
     ethr =  2.80E-05,  avg # of iterations =  2.0

     total cpu time spent up to now is        5.9 secs

     total energy              =    -501.66530621 Ry
     estimated scf accuracy    <       0.02656855 Ry

     iteration #  8     ecut=    30.00 Ry     beta= 0.50
     Davidson diagonalization with overlap
     ethr =  1.04E-05,  avg # of iterations = 18.0

     total cpu time spent up to now is        6.1 secs

     total energy              =    -501.66790601 Ry
     estimated scf accuracy    <       0.01652317 Ry

     iteration #  9     ecut=    30.00 Ry     beta= 0.50
     Davidson diagonalization with overlap
     ethr =  6.45E-06,  avg # of iterations =  2.0

     total cpu time spent up to now is        6.2 secs

     total energy              =    -501.66939227 Ry
     estimated scf accuracy    <       0.00157800 Ry

     iteration # 10     ecut=    30.00 Ry     beta= 0.50
     Davidson diagonalization with overlap
     ethr =  6.16E-07,  avg # of iterations =  9.0

     total cpu time spent up to now is        6.3 secs

     total energy              =    -501.66956136 Ry
     estimated scf accuracy    <       0.00144654 Ry

     iteration # 11     ecut=    30.00 Ry     beta= 0.50
     Davidson diagonalization with overlap
     ethr =  5.65E-07,  avg # of iterations =  2.0

     total cpu time spent up to now is        6.4 secs

     total energy              =    -501.66967944 Ry
     estimated scf accuracy    <       0.00059845 Ry

     iteration # 12     ecut=    30.00 Ry     beta= 0.50
     Davidson diagonalization with overlap
     ethr =  2.34E-07,  avg # of iterations =  2.0

     total cpu time spent up to now is        6.5 secs

     total energy              =    -501.66974288 Ry
     estimated scf accuracy    <       0.00017429 Ry

     iteration # 13     ecut=    30.00 Ry     beta= 0.50
     Davidson diagonalization with overlap
     ethr =  6.81E-08,  avg # of iterations =  2.0

     total cpu time spent up to now is        6.6 secs

     total energy              =    -501.66975467 Ry
     estimated scf accuracy    <       0.00010111 Ry

     iteration # 14     ecut=    30.00 Ry     beta= 0.50
     Davidson diagonalization with overlap
     ethr =  3.95E-08,  avg # of iterations =  2.0

     total cpu time spent up to now is        6.7 secs

     total energy              =    -501.66976201 Ry
     estimated scf accuracy    <       0.00001800 Ry

     iteration # 15     ecut=    30.00 Ry     beta= 0.50
     Davidson diagonalization with overlap
     ethr =  7.03E-09,  avg # of iterations =  3.0

     total cpu time spent up to now is        6.8 secs

     total energy              =    -501.66976428 Ry
     estimated scf accuracy    <       0.00001586 Ry

     iteration # 16     ecut=    30.00 Ry     beta= 0.50
     Davidson diagonalization with overlap
     ethr =  6.19E-09,  avg # of iterations =  2.0

     total cpu time spent up to now is        6.9 secs

     total energy              =    -501.66976542 Ry
     estimated scf accuracy    <       0.00000953 Ry

     iteration # 17     ecut=    30.00 Ry     beta= 0.50
     Davidson diagonalization with overlap
     ethr =  3.72E-09,  avg # of iterations =  1.0

     total cpu time spent up to now is        7.0 secs

     total energy              =    -501.66976610 Ry
     estimated scf accuracy    <       0.00000148 Ry

     iteration # 18     ecut=    30.00 Ry     beta= 0.50
     Davidson diagonalization with overlap
     ethr =  5.79E-10,  avg # of iterations =  3.0

     total cpu time spent up to now is        7.1 secs

     End of self-consistent calculation

          k = 0.0000 0.0000 0.0000 ( 11720 PWs)   bands (ev):

    -5.6042  -4.7166  -4.6283  -4.5362  -4.4450  -4.3439  -4.1007  -3.7337
    -3.7146  -3.6096  -3.4154  -3.3996  -3.3612  -3.2369  -3.2120  -3.1277
    -3.0038  -2.8572  -2.7648  -2.4660  -2.3103  -2.1508  -2.0093  -1.8871
    -1.8526  -1.8444  -1.6800  -1.3867  -1.2644  -1.1756  -1.0977  -0.9338
    -0.7199  -0.5650  -0.4093  -0.3419  -0.2875  -0.2153  -0.0889  -0.0566
     0.0039   0.0571   0.1481   0.2285   0.2435   0.2989   0.4539   0.6884
     0.7788   0.8690   0.8871   0.9641   1.0557   1.1728   1.2298   1.3270
     1.5024   1.5135   1.5623   1.7028   1.7870   1.8313   1.9204   2.1091
     2.2042   2.3275   2.4356   2.4747   2.5261   2.5692   2.6955   2.7755
     2.8010   2.9015   2.9477   3.1165   3.1386   3.2331   3.3006   3.4270
     3.5774   3.6494   3.8494   3.9547   4.0371   4.0870   4.2662   4.3172
     4.3499   4.4536   4.4988   4.5119   4.5847   4.6659   4.7406   4.7647
     4.8180   4.8873   4.9869   5.0371   5.0781   5.1328   5.1731   5.2526
     5.2809   5.3183   5.4061   5.4309   5.4883   5.5780   5.6220   5.6863
     5.7639   5.8000   5.8505   5.9192   5.9909   6.0881   6.1004   6.1704
     6.2159   6.2257   6.3269   6.4413   6.4858   6.5224   6.6129   6.6649
     6.7617   6.8362   6.8691   6.9244   7.0415   7.0630   7.1546   7.1941
     7.2246   7.3638   7.3914   7.4949   7.5334   7.6041   7.6736   7.7331
     7.7857   7.8946   7.9416   7.9947   8.0843   8.1295   8.1890   8.2851
     8.3382   8.4142

     the Fermi energy is     6.7124 ev

!    total energy              =    -501.66976565 Ry
     estimated scf accuracy    <       0.00000093 Ry
     smearing contrib. (-TS)   =      -0.13507355 Ry
     internal energy E=F+TS    =    -501.53469209 Ry

     The total energy is F=E-TS. E is the sum of the following terms:
     one-electron contribution =     168.07201463 Ry
     hartree contribution      =      30.53412227 Ry
     xc contribution           =    -150.63976020 Ry
     ewald contribution        =    -549.50106880 Ry

     convergence has been achieved in  18 iterations

     Forces acting on atoms (cartesian axes, Ry/au):

     atom    1 type  1   force =     0.01482062   -0.00185163    0.02018816
     atom    2 type  1   force =     0.02608882    0.06197667    0.00222648
     atom    3 type  1   force =     0.03834667   -0.01045545   -0.00516482
     atom    4 type  1   force =     0.01248438    0.01601538   -0.02357499
     atom    5 type  1   force =     0.03223540    0.03598284   -0.01290447
     atom    6 type  1   force =    -0.00551127    0.00440271   -0.02661795
     atom    7 type  1   force =    -0.01482813   -0.01632742   -0.00715774
     atom    8 type  1   force =     0.01909929   -0.03476441    0.00235937
     atom    9 type  1   force =    -0.03777313    0.00386401    0.00564542
     atom   10 type  1   force =    -0.00185058   -0.02638756   -0.00638463
     atom   11 type  1   force =     0.01453528   -0.01927529    0.00587539
     atom   12 type  1   force =    -0.03389584    0.00158319    0.01292960
     atom   13 type  1   force =     0.00798807    0.02130608    0.06902160
     atom   14 type  1   force =     0.04070203   -0.02235315   -0.00898777
     atom   15 type  1   force =    -0.00653614    0.01385162   -0.02374278
     atom   16 type  1   force =     0.00543638   -0.04719896    0.02033596
     atom   17 type  1   force =     0.02525545   -0.02538131    0.03176208
     atom   18 type  1   force =     0.00450274    0.03476426    0.02002614
     atom   19 type  1   force =    -0.00256042   -0.01297853   -0.01779360
     atom   20 type  1   force =     0.00209949    0.03947845   -0.03328007
     atom   21 type  1   force =     0.03948077    0.02138842    0.03236044
     atom   22 type  1   force =     0.01271358    0.03263607    0.01633620
     atom   23 type  1   force =     0.00134191    0.03104896   -0.01267425
     atom   24 type  1   force =    -0.00702222   -0.01131638   -0.02881362
     atom   25 type  1   force =    -0.00781554    0.00921595   -0.01596201
     atom   26 type  1   force =     0.08947004   -0.03517460    0.05616274
     atom   27 type  1   force =     0.05029461    0.00227916   -0.01796394
     atom   28 type  1   force =    -0.00350708    0.00285605    0.01964489
     atom   29 type  1   force =     0.00105028   -0.01610080    0.01062771
     atom   30 type  1   force =    -0.03589809   -0.01401367    0.00517719
     atom   31 type  1   force =    -0.02138737   -0.02165957    0.01825360
     atom   32 type  1   force =    -0.01092652   -0.02256230   -0.00971462
     atom   33 type  1   force =     0.00662111    0.00836318    0.00986583
     atom   34 type  1   force =    -0.00463670    0.01651762    0.01484516
     atom   35 type  1   force =     0.01205891    0.01902407    0.00623578
     atom   36 type  1   force =     0.03544658    0.01859060    0.00452668
     atom   37 type  1   force =     0.01801712   -0.01570384    0.00890704
     atom   38 type  1   force =     0.02865992    0.05425266   -0.02637252
     atom   39 type  1   force =     0.01225607    0.04430677    0.03306475
     atom   40 type  1   force =     0.00558112   -0.01111342    0.02180164
     atom   41 type  1   force =     0.00286242   -0.00673561    0.00892611
     atom   42 type  1   force =    -0.04155960   -0.02959044   -0.03747466
     atom   43 type  1   force =     0.01660648    0.00068965   -0.00764136
     atom   44 type  1   force =    -0.00114466   -0.01317612    0.00787733
     atom   45 type  1   force =    -0.06288026   -0.01614976   -0.00573934
     atom   46 type  1   force =     0.02624118   -0.02172925   -0.04628683
     atom   47 type  1   force =    -0.04574071    0.00861762   -0.02081144
     atom   48 type  1   force =    -0.02496430   -0.00648120    0.03938480
     atom   49 type  1   force =    -0.00090046    0.01237157   -0.00853989
     atom   50 type  1   force =    -0.00229277   -0.01967336   -0.00160887
     atom   51 type  1   force =    -0.00092401   -0.01280799   -0.02135399
     atom   52 type  1   force =    -0.00160764   -0.05187942    0.03888001
     atom   53 type  1   force =    -0.00819987    0.01296981   -0.00118228
     atom   54 type  1   force =     0.00228415    0.00481928   -0.03025247
     atom   55 type  1   force =    -0.02090455   -0.02467352   -0.01925395
     atom   56 type  1   force =     0.00132297   -0.02006778    0.01251197
     atom   57 type  1   force =    -0.00283624    0.01395220   -0.02248792
     atom   58 type  1   force =    -0.03592081    0.01845761   -0.01380509
     atom   59 type  1   force =    -0.01063058   -0.00260818    0.02792306
     atom   60 type  1   force =    -0.00731619   -0.00008942   -0.00835713
     atom   61 type  1   force =    -0.02141545    0.00660926   -0.03777056
     atom   62 type  1   force =    -0.03036758    0.00739820    0.00240549
     atom   63 type  1   force =    -0.09737656    0.03759528   -0.04490501
     atom   64 type  1   force =     0.00522739   -0.02690489    0.01849200

     Total force =     0.346331     Total SCF correction =     0.001924


     Computing stress (Cartesian axis) and pressure

          total   stress  (Ry/bohr**3)                   (kbar)     P=      -31.59
  -0.00021300  -0.00001702   0.00004467          -31.33       -2.50        6.57
  -0.00001702  -0.00023845  -0.00004142           -2.50      -35.08       -6.09
   0.00004467  -0.00004142  -0.00019272            6.57       -6.09      -28.35

 
     init_run     :      1.10s CPU      4.96s WALL (       1 calls)
     electrons    :      1.93s CPU      2.08s WALL (       1 calls)
     forces       :      0.04s CPU      0.04s WALL (       1 calls)
     stress       :      0.15s CPU      0.16s WALL (       1 calls)

     Called by init_run:
     wfcinit      :      0.56s CPU      4.24s WALL (       1 calls)
                                        4.24s GPU  (       1 calls)
     potinit      :      0.05s CPU      0.15s WALL (       1 calls)
     hinit0       :      0.47s CPU      0.50s WALL (       1 calls)

     Called by electrons:
     c_bands      :      1.14s CPU      1.21s WALL (      19 calls)
     sum_band     :      0.37s CPU      0.42s WALL (      19 calls)
     v_of_rho     :      0.19s CPU      0.29s WALL (      19 calls)
     mix_rho      :      0.18s CPU      0.20s WALL (      19 calls)

     Called by c_bands:
     init_us_2    :      0.07s CPU      0.07s WALL (      39 calls)
     init_us_2:gp :      0.07s CPU      0.07s WALL (      39 calls)
     regterg      :      0.98s CPU      1.04s WALL (      19 calls)

     Called by *egterg:
     rdiaghg      :      0.41s CPU      1.17s WALL (      87 calls)
                                        1.15s GPU  (      87 calls)
     h_psi        :      0.95s CPU      3.91s WALL (      89 calls)
                                        3.91s GPU  (      89 calls)
     g_psi        :      0.00s CPU      0.00s WALL (      69 calls)
                                        0.00s GPU  (      69 calls)

     Called by h_psi:
     h_psi:calbec :      0.50s CPU      3.39s WALL (      89 calls)
                                        3.39s GPU  (      89 calls)
     vloc_psi     :      0.39s CPU      0.46s WALL (      89 calls)
                                        0.46s GPU  (      89 calls)
     add_vuspsi   :      0.04s CPU      0.05s WALL (      89 calls)
                                        0.05s GPU  (      89 calls)

     General routines
     calbec       :      0.51s CPU      3.40s WALL (      94 calls)
     fft          :      0.63s CPU      0.76s WALL (     159 calls)
                                        0.13s GPU  (     101 calls)
     ffts         :      0.05s CPU      0.05s WALL (      19 calls)
     fftw         :      0.47s CPU      0.62s WALL (    2005 calls)
                                        0.54s GPU  (    2005 calls)
 
     Parallel routines
 
     PWSCF        :      3.27s CPU      7.32s WALL

 
   This run was terminated on:  10:54:17  10May2023            

=------------------------------------------------------------------------------=
   JOB DONE.
=------------------------------------------------------------------------------=
