An instance of this daemon is already running

     Program PWSCF v.7.1 starts on 10May2023 at 10:57:44 

     This program is part of the open-source Quantum ESPRESSO suite
     for quantum simulation of materials; please cite
         "P. Giannozzi et al., J. Phys.:Condens. Matter 21 395502 (2009);
         "P. Giannozzi et al., J. Phys.:Condens. Matter 29 465901 (2017);
         "P. Giannozzi et al., J. Chem. Phys. 152 154105 (2020);
          URL http://www.quantum-espresso.org", 
     in publications or presentations arising from this work. More details at
     http://www.quantum-espresso.org/quote

     Parallel version (MPI & OpenMP), running on       4 processor cores
     Number of MPI processes:                 4
     Threads/MPI process:                     1

     MPI processes distributed on     1 nodes
     753562 MiB available memory on the printing compute node when the environment starts
 
     Reading input from pw-si-23.in
Warning: card &CELL ignored
Warning: card / ignored

     Current dimensions of program PWSCF are:
     Max number of different atomic species (ntypx) = 10
     Max number of k-points (npk) =  40000
     Max angular momentum in pseudopotentials (lmaxx) =  4

     IMPORTANT: XC functional enforced from input :
     Exchange-correlation= PBE
                           (   1   4   3   4   0   0   0)
     Any further DFT definition will be discarded
     Please, verify this is what you really want


     gamma-point specific algorithms are used
 
     K-points division:     npool     =       2
     R & G space division:  proc/nbgrp/npool/nimage =       2
     Subspace diagonalization in iterative solution of the eigenvalue problem:
     a serial algorithm will be used

     Message from routine divide_et_impera:
     suboptimal parallelization: some nodes have no k-points
 
     Parallelization info
     --------------------
     sticks:   dense  smooth     PW     G-vecs:    dense   smooth      PW
     Min        1941    1941    516                91047    91047   12416
     Max        1944    1944    517                91052    91052   12421
     Sum        3885    3885   1033               182099   182099   24837
 
     Using Slab Decomposition
 


     bravais-lattice index     =            0
     lattice parameter (alat)  =      20.1710  a.u.
     unit-cell volume          =    8206.9377 (a.u.)^3
     number of atoms/cell      =           64
     number of atomic types    =            1
     number of electrons       =       256.00
     number of Kohn-Sham states=          154
     kinetic-energy cutoff     =      30.0000  Ry
     charge density cutoff     =     120.0000  Ry
     scf convergence threshold =      1.0E-06
     mixing beta               =       0.5000
     number of iterations used =            8  plain     mixing
     Exchange-correlation= PBE
                           (   1   4   3   4   0   0   0)

     GPU acceleration is ACTIVE.
     GPU-aware MPI enabled

     Message from routine print_cuda_info:
     High GPU oversubscription detected. Are you sure this is what you want?

     celldm(1)=  20.170982  celldm(2)=   0.000000  celldm(3)=   0.000000
     celldm(4)=   0.000000  celldm(5)=   0.000000  celldm(6)=   0.000000

     crystal axes: (cart. coord. in units of alat)
               a(1) = (   1.000000   0.000000   0.000000 )  
               a(2) = (   0.000000   1.000000   0.000000 )  
               a(3) = (   0.000000   0.000000   1.000000 )  

     reciprocal axes: (cart. coord. in units 2 pi/alat)
               b(1) = (  1.000000  0.000000  0.000000 )  
               b(2) = (  0.000000  1.000000  0.000000 )  
               b(3) = (  0.000000  0.000000  1.000000 )  


     PseudoPot. # 1 for Si read from file:
     /home/ppiaggi/pseudos/Si_ONCV_PBE_sr.upf
     MD5 check sum: 8553c464762ac42b85b1eed164b4d029
     Pseudo is Norm-conserving, Zval =  4.0
     Generated using ONCVPSP code by D. R. Hamann
     Using radial grid of 1510 points,  4 beta functions with: 
                l(1) =   0
                l(2) =   0
                l(3) =   1
                l(4) =   1

     atomic species   valence    mass     pseudopotential
        Si             4.00    28.08500     Si( 1.00)

     No symmetry found



   Cartesian axes

     site n.     atom                  positions (alat units)
         1           Si  tau(   1) = (   0.7070580   0.9786580   0.2566720  )
         2           Si  tau(   2) = (   0.2930950   0.5292510   0.7600740  )
         3           Si  tau(   3) = (   0.5813850   0.6377160   0.8452110  )
         4           Si  tau(   4) = (   0.3188780   0.9040830   0.0485551  )
         5           Si  tau(   5) = (   0.5897490   0.4429560   0.9631490  )
         6           Si  tau(   6) = (   0.5498730   0.9604320   0.0347877  )
         7           Si  tau(   7) = (   0.4940020   0.7685470   0.4691670  )
         8           Si  tau(   8) = (   0.2970660   0.2580520   0.1834670  )
         9           Si  tau(   9) = (   0.5141280   0.5403320   0.5837000  )
        10           Si  tau(  10) = (   0.5754240   0.3045620   0.6298880  )
        11           Si  tau(  11) = (   0.8465480   0.8285140   0.3960770  )
        12           Si  tau(  12) = (   0.2154430   0.4303860   0.0279314  )
        13           Si  tau(  13) = (   0.7453940   0.3863430   0.4496640  )
        14           Si  tau(  14) = (   0.1104120   0.7596150   0.9070750  )
        15           Si  tau(  15) = (   0.1318710   0.9495030   0.6573240  )
        16           Si  tau(  16) = (   0.5341670   0.4467840   0.3190860  )
        17           Si  tau(  17) = (   0.9373680   0.9686950   0.5510590  )
        18           Si  tau(  18) = (   0.5553950   0.0702546   0.6323740  )
        19           Si  tau(  19) = (   0.9195850   0.0015631   0.8659020  )
        20           Si  tau(  20) = (   0.7349760   0.5785510   0.6179360  )
        21           Si  tau(  21) = (   0.7017410   0.7511840   0.9852030  )
        22           Si  tau(  22) = (   0.1364400   0.2784570   0.4651420  )
        23           Si  tau(  23) = (   0.6580600   0.1344530   0.3855770  )
        24           Si  tau(  24) = (   0.3380550   0.7037790   0.9115680  )
        25           Si  tau(  25) = (   0.8928750   0.6190530   0.4651060  )
        26           Si  tau(  26) = (   0.2658060   0.7764930   0.2144660  )
        27           Si  tau(  27) = (   0.8544910   0.5707220   0.8420010  )
        28           Si  tau(  28) = (   0.4198190   0.0402428   0.2112700  )
        29           Si  tau(  29) = (   0.0466486   0.5780320   0.5864330  )
        30           Si  tau(  30) = (   0.4252690   0.2381650   0.9741020  )
        31           Si  tau(  31) = (   0.1659060   0.0316215   0.8940070  )
        32           Si  tau(  32) = (   0.4563670   0.6642490   0.2649920  )
        33           Si  tau(  33) = (   0.3534700   0.0982848   0.5512350  )
        34           Si  tau(  34) = (   0.0081929   0.8405590   0.2236840  )
        35           Si  tau(  35) = (   0.6652350   0.7536650   0.2103910  )
        36           Si  tau(  36) = (   0.9294340   0.1839860   0.6956070  )
        37           Si  tau(  37) = (   0.7989320   0.2625340   0.1744160  )
        38           Si  tau(  38) = (   0.2595440   0.4405590   0.3859100  )
        39           Si  tau(  39) = (   0.6556380   0.8997480   0.5445540  )
        40           Si  tau(  40) = (   0.5890200   0.1179640   0.8619240  )
        41           Si  tau(  41) = (   0.0481727   0.2509550   0.9633720  )
        42           Si  tau(  42) = (   0.7085980   0.4821710   0.1470020  )
        43           Si  tau(  43) = (   0.7685560   0.8238040   0.7312130  )
        44           Si  tau(  44) = (   0.1465820   0.5646650   0.2154330  )
        45           Si  tau(  45) = (   0.0906225   0.0043785   0.3835880  )
        46           Si  tau(  46) = (   0.0882948   0.3615670   0.6602640  )
        47           Si  tau(  47) = (   0.0312414   0.3004930   0.2248430  )
        48           Si  tau(  48) = (   0.9976640   0.7553530   0.7243560  )
        49           Si  tau(  49) = (   0.2926160   0.9413420   0.3954230  )
        50           Si  tau(  50) = (   0.2195260   0.1811050   0.7205390  )
        51           Si  tau(  51) = (   0.9086260   0.2075500   0.4215970  )
        52           Si  tau(  52) = (   0.1237470   0.0875275   0.1475910  )
        53           Si  tau(  53) = (   0.2663070   0.6065010   0.5307840  )
        54           Si  tau(  54) = (   0.4029120   0.5574740   0.0519929  )
        55           Si  tau(  55) = (   0.3490060   0.8346060   0.6298800  )
        56           Si  tau(  56) = (   0.9487040   0.6890140   0.0624187  )
        57           Si  tau(  57) = (   0.4783870   0.2446920   0.3731520  )
        58           Si  tau(  58) = (   0.9246950   0.5314920   0.2879670  )
        59           Si  tau(  59) = (   0.0563753   0.4938570   0.8696350  )
        60           Si  tau(  60) = (   0.7934930   0.2269470   0.9552440  )
        61           Si  tau(  61) = (   0.7513950   0.3759850   0.7951000  )
        62           Si  tau(  62) = (   0.3893040   0.3273650   0.7722250  )
        63           Si  tau(  63) = (   0.4771180   0.8780280   0.8175970  )
        64           Si  tau(  64) = (   0.8975270   0.0034986   0.0899886  )

     number of k points=     1  Fermi-Dirac smearing, width (Ry)=  0.0100
                       cart. coord. in units 2pi/alat
        k(    1) = (   0.0000000   0.0000000   0.0000000), wk =   2.0000000

     Dense  grid:    91050 G-vectors     FFT dimensions: (  72,  72,  72)

     Estimated max dynamical RAM per process >     146.13 MB

     Estimated total dynamical RAM >     562.30 MB

     Initial potential from superposition of free atoms

     starting charge     255.9608, renormalised to     256.0000
     Starting wfcs are  256 randomized atomic wfcs

     total cpu time spent up to now is        5.0 secs

     Self-consistent Calculation

     iteration #  1     ecut=    30.00 Ry     beta= 0.50
     Davidson diagonalization with overlap
     ethr =  1.00E-02,  avg # of iterations =  3.0

     Threshold (ethr) on eigenvalues was too large:
     Diagonalizing with lowered threshold

     Davidson diagonalization with overlap
     ethr =  3.72E-04,  avg # of iterations =  4.0

     total cpu time spent up to now is        5.3 secs

     total energy              =    -501.22661676 Ry
     estimated scf accuracy    <       1.14753679 Ry

     iteration #  2     ecut=    30.00 Ry     beta= 0.50
     Davidson diagonalization with overlap
     ethr =  4.48E-04,  avg # of iterations =  4.0

     total cpu time spent up to now is        5.4 secs

     total energy              =    -500.83524141 Ry
     estimated scf accuracy    <       4.14849251 Ry

     iteration #  3     ecut=    30.00 Ry     beta= 0.50
     Davidson diagonalization with overlap
     ethr =  4.48E-04,  avg # of iterations =  3.0

     total cpu time spent up to now is        5.5 secs

     total energy              =    -501.24278300 Ry
     estimated scf accuracy    <       2.05876190 Ry

     iteration #  4     ecut=    30.00 Ry     beta= 0.50
     Davidson diagonalization with overlap
     ethr =  4.48E-04,  avg # of iterations =  2.0

     total cpu time spent up to now is        5.6 secs

     total energy              =    -501.36027334 Ry
     estimated scf accuracy    <       0.62357633 Ry

     iteration #  5     ecut=    30.00 Ry     beta= 0.50
     Davidson diagonalization with overlap
     ethr =  2.44E-04,  avg # of iterations =  2.0

     total cpu time spent up to now is        5.7 secs

     total energy              =    -501.39211781 Ry
     estimated scf accuracy    <       0.55531460 Ry

     iteration #  6     ecut=    30.00 Ry     beta= 0.50
     Davidson diagonalization with overlap
     ethr =  2.17E-04,  avg # of iterations =  1.0

     total cpu time spent up to now is        5.8 secs

     total energy              =    -501.43878408 Ry
     estimated scf accuracy    <       0.05800829 Ry

     iteration #  7     ecut=    30.00 Ry     beta= 0.50
     Davidson diagonalization with overlap
     ethr =  2.27E-05,  avg # of iterations =  2.0

     total cpu time spent up to now is        5.9 secs

     total energy              =    -501.44597952 Ry
     estimated scf accuracy    <       0.02808010 Ry

     iteration #  8     ecut=    30.00 Ry     beta= 0.50
     Davidson diagonalization with overlap
     ethr =  1.10E-05,  avg # of iterations =  3.0

     total cpu time spent up to now is        6.0 secs

     total energy              =    -501.44876770 Ry
     estimated scf accuracy    <       0.01899704 Ry

     iteration #  9     ecut=    30.00 Ry     beta= 0.50
     Davidson diagonalization with overlap
     c_bands:  1 eigenvalues not converged
     ethr =  7.42E-06,  avg # of iterations = 20.0

     total cpu time spent up to now is        6.2 secs

     total energy              =    -501.45026273 Ry
     estimated scf accuracy    <       0.00156462 Ry

     iteration # 10     ecut=    30.00 Ry     beta= 0.50
     Davidson diagonalization with overlap
     ethr =  6.11E-07,  avg # of iterations = 12.0

     total cpu time spent up to now is        6.4 secs

     total energy              =    -501.45035874 Ry
     estimated scf accuracy    <       0.00294776 Ry

     iteration # 11     ecut=    30.00 Ry     beta= 0.50
     Davidson diagonalization with overlap
     ethr =  6.11E-07,  avg # of iterations =  2.0

     total cpu time spent up to now is        6.5 secs

     total energy              =    -501.45058444 Ry
     estimated scf accuracy    <       0.00036436 Ry

     iteration # 12     ecut=    30.00 Ry     beta= 0.50
     Davidson diagonalization with overlap
     ethr =  1.42E-07,  avg # of iterations =  3.0

     total cpu time spent up to now is        6.6 secs

     total energy              =    -501.45062199 Ry
     estimated scf accuracy    <       0.00024715 Ry

     iteration # 13     ecut=    30.00 Ry     beta= 0.50
     Davidson diagonalization with overlap
     ethr =  9.65E-08,  avg # of iterations =  2.0

     total cpu time spent up to now is        6.7 secs

     total energy              =    -501.45064045 Ry
     estimated scf accuracy    <       0.00019465 Ry

     iteration # 14     ecut=    30.00 Ry     beta= 0.50
     Davidson diagonalization with overlap
     ethr =  7.60E-08,  avg # of iterations =  1.0

     total cpu time spent up to now is        6.7 secs

     total energy              =    -501.45065310 Ry
     estimated scf accuracy    <       0.00001336 Ry

     iteration # 15     ecut=    30.00 Ry     beta= 0.50
     Davidson diagonalization with overlap
     ethr =  5.22E-09,  avg # of iterations =  4.0

     total cpu time spent up to now is        6.9 secs

     total energy              =    -501.45065427 Ry
     estimated scf accuracy    <       0.00004086 Ry

     iteration # 16     ecut=    30.00 Ry     beta= 0.50
     Davidson diagonalization with overlap
     ethr =  5.22E-09,  avg # of iterations =  3.0

     total cpu time spent up to now is        7.0 secs

     total energy              =    -501.45065701 Ry
     estimated scf accuracy    <       0.00000416 Ry

     iteration # 17     ecut=    30.00 Ry     beta= 0.50
     Davidson diagonalization with overlap
     ethr =  1.63E-09,  avg # of iterations =  2.0

     total cpu time spent up to now is        7.1 secs

     total energy              =    -501.45065724 Ry
     estimated scf accuracy    <       0.00000245 Ry

     iteration # 18     ecut=    30.00 Ry     beta= 0.50
     Davidson diagonalization with overlap
     ethr =  9.59E-10,  avg # of iterations =  3.0

     total cpu time spent up to now is        7.2 secs

     total energy              =    -501.45065733 Ry
     estimated scf accuracy    <       0.00000259 Ry

     iteration # 19     ecut=    30.00 Ry     beta= 0.50
     Davidson diagonalization with overlap
     ethr =  9.59E-10,  avg # of iterations =  2.0

     total cpu time spent up to now is        7.2 secs

     End of self-consistent calculation

          k = 0.0000 0.0000 0.0000 ( 11444 PWs)   bands (ev):

    -5.3736  -4.4305  -4.3885  -4.2576  -4.1696  -4.1058  -4.0061  -3.4360
    -3.3214  -3.2595  -3.2069  -3.1428  -3.0701  -3.0431  -2.8808  -2.8273
    -2.7470  -2.6704  -2.6249  -2.2937  -2.0670  -1.9611  -1.8528  -1.7010
    -1.5885  -1.4881  -1.4140  -1.0724  -0.8480  -0.7117  -0.6471  -0.6003
    -0.5018  -0.1833  -0.1409  -0.0168   0.0834   0.1376   0.1802   0.2234
     0.2863   0.4099   0.4166   0.4558   0.6093   0.6263   0.6973   0.8094
     0.8415   1.0036   1.1096   1.1968   1.2845   1.3319   1.4539   1.6026
     1.6874   1.8309   1.9453   2.0699   2.1868   2.2000   2.2695   2.3787
     2.5490   2.5841   2.6830   2.7030   2.7903   2.8090   2.9054   2.9444
     3.0267   3.1295   3.1442   3.1690   3.3095   3.3758   3.5175   3.5391
     3.8190   4.1006   4.2004   4.2952   4.3247   4.4349   4.5008   4.5911
     4.6424   4.7240   4.7811   4.8578   4.9655   5.0042   5.0445   5.0860
     5.1937   5.2929   5.3228   5.4393   5.4711   5.5899   5.6612   5.6719
     5.7003   5.7425   5.7875   5.8304   5.8803   5.9403   6.0556   6.0824
     6.1051   6.1357   6.1658   6.2198   6.2848   6.3697   6.4144   6.4427
     6.5594   6.6321   6.6722   6.6911   6.7261   6.8103   6.8382   6.9685
     6.9976   7.0792   7.1123   7.1631   7.2790   7.3109   7.3767   7.4546
     7.5581   7.6563   7.6985   7.7296   7.8078   7.8147   7.8992   8.0035
     8.1138   8.1449   8.1843   8.3015   8.3812   8.4588   8.5049   8.5672
     8.6070   8.6731

     the Fermi energy is     6.9742 ev

!    total energy              =    -501.45065727 Ry
     estimated scf accuracy    <       0.00000034 Ry
     smearing contrib. (-TS)   =      -0.14501828 Ry
     internal energy E=F+TS    =    -501.30563899 Ry

     The total energy is F=E-TS. E is the sum of the following terms:
     one-electron contribution =     188.84921148 Ry
     hartree contribution      =      22.88638686 Ry
     xc contribution           =    -150.62571390 Ry
     ewald contribution        =    -562.41552344 Ry

     convergence has been achieved in  19 iterations

     Forces acting on atoms (cartesian axes, Ry/au):

     atom    1 type  1   force =     0.03334740   -0.06182279   -0.05805987
     atom    2 type  1   force =    -0.00379047    0.00481313   -0.01973939
     atom    3 type  1   force =    -0.01292547    0.01523573   -0.03836340
     atom    4 type  1   force =    -0.00848127    0.02108431   -0.05378166
     atom    5 type  1   force =    -0.03163914   -0.01906316    0.00441013
     atom    6 type  1   force =     0.01273697   -0.01735058   -0.01011428
     atom    7 type  1   force =    -0.02661047   -0.01871066    0.00263796
     atom    8 type  1   force =     0.00907717   -0.01602871   -0.00943860
     atom    9 type  1   force =     0.02171758   -0.00086703    0.00015829
     atom   10 type  1   force =     0.00317846    0.01919619    0.01050503
     atom   11 type  1   force =    -0.01027641    0.02180860   -0.00786795
     atom   12 type  1   force =    -0.01062879    0.00914318    0.03669370
     atom   13 type  1   force =    -0.02098311    0.00314070    0.01035108
     atom   14 type  1   force =     0.01774710   -0.00232190    0.04194928
     atom   15 type  1   force =     0.02469823   -0.02537876    0.02268648
     atom   16 type  1   force =     0.02099493    0.03159308    0.00047358
     atom   17 type  1   force =    -0.00289676    0.02527402   -0.00277768
     atom   18 type  1   force =    -0.00008219    0.02536484    0.04158694
     atom   19 type  1   force =    -0.00067320    0.01819072   -0.02239024
     atom   20 type  1   force =    -0.01224362   -0.00792789    0.03361801
     atom   21 type  1   force =     0.04027863    0.01717052    0.01084080
     atom   22 type  1   force =    -0.00917751   -0.04114476   -0.02993778
     atom   23 type  1   force =     0.06191454    0.02600937    0.03560920
     atom   24 type  1   force =    -0.03243796    0.02500956   -0.04176122
     atom   25 type  1   force =    -0.09757489    0.06958011    0.01170606
     atom   26 type  1   force =    -0.03752513   -0.02770961    0.03944745
     atom   27 type  1   force =    -0.02882129    0.02716482   -0.01501616
     atom   28 type  1   force =    -0.01269066    0.03162512    0.02116419
     atom   29 type  1   force =     0.09170500   -0.00108238    0.07276408
     atom   30 type  1   force =     0.01673517    0.03795268   -0.00184572
     atom   31 type  1   force =    -0.02134561    0.00811369   -0.00292975
     atom   32 type  1   force =     0.02434551   -0.00536335   -0.00291302
     atom   33 type  1   force =    -0.01276900    0.00852824   -0.01355658
     atom   34 type  1   force =    -0.00419517    0.01566757   -0.00170360
     atom   35 type  1   force =    -0.02085986   -0.00398541   -0.00971720
     atom   36 type  1   force =     0.00219746   -0.02067487   -0.00284202
     atom   37 type  1   force =     0.01190031    0.02150198    0.01022145
     atom   38 type  1   force =     0.01574152    0.01366645   -0.04452481
     atom   39 type  1   force =     0.04302560   -0.02113795   -0.00692468
     atom   40 type  1   force =     0.01079060   -0.00865350    0.01407192
     atom   41 type  1   force =    -0.00331629   -0.01636715    0.03177395
     atom   42 type  1   force =     0.01362828   -0.00967902    0.04995091
     atom   43 type  1   force =     0.03183512   -0.01515236    0.01436657
     atom   44 type  1   force =    -0.00312160   -0.00702140   -0.01078060
     atom   45 type  1   force =    -0.03437163    0.03265556   -0.01648365
     atom   46 type  1   force =    -0.02670386    0.02315636    0.04087150
     atom   47 type  1   force =    -0.02622160    0.00365910   -0.00158059
     atom   48 type  1   force =    -0.02113743    0.00633065   -0.04451218
     atom   49 type  1   force =     0.06150209   -0.01406581   -0.01001395
     atom   50 type  1   force =     0.01193241   -0.02623322   -0.00116739
     atom   51 type  1   force =    -0.00982104   -0.01019827    0.00657282
     atom   52 type  1   force =    -0.00248216    0.03150096    0.00986109
     atom   53 type  1   force =     0.00075710    0.01699563    0.05344699
     atom   54 type  1   force =     0.01883218   -0.02942262    0.03401514
     atom   55 type  1   force =    -0.03582237    0.00000799   -0.02344625
     atom   56 type  1   force =    -0.00676548    0.00899516   -0.00698182
     atom   57 type  1   force =    -0.06968563   -0.00362135    0.00111542
     atom   58 type  1   force =     0.01684533   -0.08155790   -0.13537476
     atom   59 type  1   force =     0.04950319   -0.02928389   -0.01376935
     atom   60 type  1   force =     0.01233099   -0.04008946   -0.01058962
     atom   61 type  1   force =    -0.02753607   -0.01159554   -0.02208935
     atom   62 type  1   force =     0.00464508    0.00241881    0.00023826
     atom   63 type  1   force =     0.00935288   -0.02528308    0.01388516
     atom   64 type  1   force =    -0.00768368   -0.00376046    0.01600166

     Total force =     0.396933     Total SCF correction =     0.001131


     Computing stress (Cartesian axis) and pressure

          total   stress  (Ry/bohr**3)                   (kbar)     P=      -32.83
  -0.00023822  -0.00002339   0.00005479          -35.04       -3.44        8.06
  -0.00002339  -0.00025172   0.00001896           -3.44      -37.03        2.79
   0.00005479   0.00001896  -0.00017962            8.06        2.79      -26.42

 
     init_run     :      1.05s CPU      4.94s WALL (       1 calls)
     electrons    :      2.07s CPU      2.23s WALL (       1 calls)
     forces       :      0.04s CPU      0.04s WALL (       1 calls)
     stress       :      0.16s CPU      0.16s WALL (       1 calls)

     Called by init_run:
     wfcinit      :      0.52s CPU      4.22s WALL (       1 calls)
                                        4.22s GPU  (       1 calls)
     potinit      :      0.04s CPU      0.14s WALL (       1 calls)
     hinit0       :      0.47s CPU      0.50s WALL (       1 calls)

     Called by electrons:
     c_bands      :      1.25s CPU      1.33s WALL (      20 calls)
     sum_band     :      0.40s CPU      0.45s WALL (      20 calls)
     v_of_rho     :      0.18s CPU      0.29s WALL (      20 calls)
     mix_rho      :      0.19s CPU      0.21s WALL (      20 calls)

     Called by c_bands:
     init_us_2    :      0.07s CPU      0.08s WALL (      41 calls)
     init_us_2:gp :      0.07s CPU      0.07s WALL (      41 calls)
     regterg      :      1.08s CPU      1.14s WALL (      20 calls)

     Called by *egterg:
     rdiaghg      :      0.45s CPU      1.20s WALL (      97 calls)
                                        1.19s GPU  (      97 calls)
     h_psi        :      0.96s CPU      3.95s WALL (      99 calls)
                                        3.95s GPU  (      99 calls)
     g_psi        :      0.00s CPU      0.00s WALL (      78 calls)
                                        0.00s GPU  (      78 calls)

     Called by h_psi:
     h_psi:calbec :      0.49s CPU      3.40s WALL (      99 calls)
                                        3.40s GPU  (      99 calls)
     vloc_psi     :      0.41s CPU      0.48s WALL (      99 calls)
                                        0.48s GPU  (      99 calls)
     add_vuspsi   :      0.04s CPU      0.06s WALL (      99 calls)
                                        0.06s GPU  (      99 calls)

     General routines
     calbec       :      0.50s CPU      3.40s WALL (     104 calls)
     fft          :      0.62s CPU      0.76s WALL (     167 calls)
                                        0.13s GPU  (     106 calls)
     ffts         :      0.05s CPU      0.05s WALL (      20 calls)
     fftw         :      0.49s CPU      0.65s WALL (    2124 calls)
                                        0.57s GPU  (    2124 calls)
 
     Parallel routines
 
     PWSCF        :      3.36s CPU      7.46s WALL

 
   This run was terminated on:  10:57:51  10May2023            

=------------------------------------------------------------------------------=
   JOB DONE.
=------------------------------------------------------------------------------=
