An instance of this daemon is already running

     Program PWSCF v.7.1 starts on 10May2023 at 10:54:49 

     This program is part of the open-source Quantum ESPRESSO suite
     for quantum simulation of materials; please cite
         "P. Giannozzi et al., J. Phys.:Condens. Matter 21 395502 (2009);
         "P. Giannozzi et al., J. Phys.:Condens. Matter 29 465901 (2017);
         "P. Giannozzi et al., J. Chem. Phys. 152 154105 (2020);
          URL http://www.quantum-espresso.org", 
     in publications or presentations arising from this work. More details at
     http://www.quantum-espresso.org/quote

     Parallel version (MPI & OpenMP), running on       4 processor cores
     Number of MPI processes:                 4
     Threads/MPI process:                     1

     MPI processes distributed on     1 nodes
     753566 MiB available memory on the printing compute node when the environment starts
 
     Reading input from pw-si-5.in
Warning: card &CELL ignored
Warning: card / ignored

     Current dimensions of program PWSCF are:
     Max number of different atomic species (ntypx) = 10
     Max number of k-points (npk) =  40000
     Max angular momentum in pseudopotentials (lmaxx) =  4

     IMPORTANT: XC functional enforced from input :
     Exchange-correlation= PBE
                           (   1   4   3   4   0   0   0)
     Any further DFT definition will be discarded
     Please, verify this is what you really want


     gamma-point specific algorithms are used
 
     K-points division:     npool     =       2
     R & G space division:  proc/nbgrp/npool/nimage =       2
     Subspace diagonalization in iterative solution of the eigenvalue problem:
     a serial algorithm will be used

     Message from routine divide_et_impera:
     suboptimal parallelization: some nodes have no k-points
 
     Parallelization info
     --------------------
     sticks:   dense  smooth     PW     G-vecs:    dense   smooth      PW
     Min        1954    1954    520                92150    92150   12584
     Max        1955    1955    521                92157    92157   12589
     Sum        3909    3909   1041               184307   184307   25173
 
     Using Slab Decomposition
 


     bravais-lattice index     =            0
     lattice parameter (alat)  =      20.2514  a.u.
     unit-cell volume          =    8305.4866 (a.u.)^3
     number of atoms/cell      =           64
     number of atomic types    =            1
     number of electrons       =       256.00
     number of Kohn-Sham states=          154
     kinetic-energy cutoff     =      30.0000  Ry
     charge density cutoff     =     120.0000  Ry
     scf convergence threshold =      1.0E-06
     mixing beta               =       0.5000
     number of iterations used =            8  plain     mixing
     Exchange-correlation= PBE
                           (   1   4   3   4   0   0   0)

     GPU acceleration is ACTIVE.
     GPU-aware MPI enabled

     Message from routine print_cuda_info:
     High GPU oversubscription detected. Are you sure this is what you want?

     celldm(1)=  20.251399  celldm(2)=   0.000000  celldm(3)=   0.000000
     celldm(4)=   0.000000  celldm(5)=   0.000000  celldm(6)=   0.000000

     crystal axes: (cart. coord. in units of alat)
               a(1) = (   1.000000   0.000000   0.000000 )  
               a(2) = (   0.000000   1.000000   0.000000 )  
               a(3) = (   0.000000   0.000000   1.000000 )  

     reciprocal axes: (cart. coord. in units 2 pi/alat)
               b(1) = (  1.000000  0.000000  0.000000 )  
               b(2) = (  0.000000  1.000000  0.000000 )  
               b(3) = (  0.000000  0.000000  1.000000 )  


     PseudoPot. # 1 for Si read from file:
     /home/ppiaggi/pseudos/Si_ONCV_PBE_sr.upf
     MD5 check sum: 8553c464762ac42b85b1eed164b4d029
     Pseudo is Norm-conserving, Zval =  4.0
     Generated using ONCVPSP code by D. R. Hamann
     Using radial grid of 1510 points,  4 beta functions with: 
                l(1) =   0
                l(2) =   0
                l(3) =   1
                l(4) =   1

     atomic species   valence    mass     pseudopotential
        Si             4.00    28.08500     Si( 1.00)

     No symmetry found



   Cartesian axes

     site n.     atom                  positions (alat units)
         1           Si  tau(   1) = (   0.2740180   0.1853170   0.4207280  )
         2           Si  tau(   2) = (   0.9905270   0.4948160   0.3224480  )
         3           Si  tau(   3) = (   0.5216680   0.6755570   0.2609740  )
         4           Si  tau(   4) = (   0.8615720   0.1131800   0.7271150  )
         5           Si  tau(   5) = (   0.6422550   0.5174460   0.6730570  )
         6           Si  tau(   6) = (   0.4946760   0.1450100   0.9488460  )
         7           Si  tau(   7) = (   0.6162300   0.3746320   0.1106220  )
         8           Si  tau(   8) = (   0.6456480   0.0261310   0.3079010  )
         9           Si  tau(   9) = (   0.9715040   0.3882230   0.5369540  )
        10           Si  tau(  10) = (   0.4922150   0.9822050   0.4513920  )
        11           Si  tau(  11) = (   0.2047340   0.9865620   0.4963200  )
        12           Si  tau(  12) = (   0.1682610   0.2547810   0.8405230  )
        13           Si  tau(  13) = (   0.6915470   0.9588590   0.7295350  )
        14           Si  tau(  14) = (   0.7478470   0.6556970   0.2264400  )
        15           Si  tau(  15) = (   0.1106520   0.4904020   0.8392520  )
        16           Si  tau(  16) = (   0.5169980   0.6566050   0.5217490  )
        17           Si  tau(  17) = (   0.4548000   0.0196672   0.7393480  )
        18           Si  tau(  18) = (   0.9619740   0.9580280   0.4420350  )
        19           Si  tau(  19) = (   0.8172500   0.2353410   0.5527810  )
        20           Si  tau(  20) = (   0.3309120   0.7652920   0.3751210  )
        21           Si  tau(  21) = (   0.5972290   0.6073410   0.9167770  )
        22           Si  tau(  22) = (   0.4971690   0.2024880   0.2068250  )
        23           Si  tau(  23) = (   0.3115930   0.4700750   0.5344510  )
        24           Si  tau(  24) = (   0.9371340   0.8041740   0.8867420  )
        25           Si  tau(  25) = (   0.8859040   0.4850630   0.9162240  )
        26           Si  tau(  26) = (   0.4563690   0.5266640   0.0837782  )
        27           Si  tau(  27) = (   0.6491900   0.8226690   0.5301960  )
        28           Si  tau(  28) = (   0.2562040   0.2458830   0.1920020  )
        29           Si  tau(  29) = (   0.9011730   0.7345470   0.3519230  )
        30           Si  tau(  30) = (   0.9607820   0.1945280   0.9194930  )
        31           Si  tau(  31) = (   0.7456410   0.8981240   0.9817180  )
        32           Si  tau(  32) = (   0.5679470   0.3169520   0.7470130  )
        33           Si  tau(  33) = (   0.2080590   0.9876580   0.9662960  )
        34           Si  tau(  34) = (   0.7732320   0.4349380   0.2498250  )
        35           Si  tau(  35) = (   0.1661060   0.6289240   0.4911180  )
        36           Si  tau(  36) = (   0.3161830   0.8174410   0.6148420  )
        37           Si  tau(  37) = (   0.3030380   0.7043320   0.8294880  )
        38           Si  tau(  38) = (   0.7691240   0.6648090   0.0215041  )
        39           Si  tau(  39) = (   0.3159310   0.9627730   0.2617680  )
        40           Si  tau(  40) = (   0.6927830   0.4100610   0.4549180  )
        41           Si  tau(  41) = (   0.7227460   0.1049940   0.0552139  )
        42           Si  tau(  42) = (   0.3422340   0.3323870   0.9481010  )
        43           Si  tau(  43) = (   0.5991710   0.1642090   0.6054020  )
        44           Si  tau(  44) = (   0.2090480   0.0355691   0.7519570  )
        45           Si  tau(  45) = (   0.3996890   0.5017770   0.7819460  )
        46           Si  tau(  46) = (   0.0421958   0.3494840   0.1235820  )
        47           Si  tau(  47) = (   0.5174630   0.8337170   0.8900670  )
        48           Si  tau(  48) = (   0.7427920   0.2952270   0.8964350  )
        49           Si  tau(  49) = (   0.4842290   0.3036340   0.4400960  )
        50           Si  tau(  50) = (   0.8347630   0.1306740   0.3745230  )
        51           Si  tau(  51) = (   0.4131740   0.9750670   0.0366742  )
        52           Si  tau(  52) = (   0.0682522   0.6931210   0.7031690  )
        53           Si  tau(  53) = (   0.1784900   0.2785390   0.5929930  )
        54           Si  tau(  54) = (   0.1273040   0.6985010   0.2561740  )
        55           Si  tau(  55) = (   0.9897730   0.9974530   0.0415975  )
        56           Si  tau(  56) = (   0.8694610   0.2259810   0.1668450  )
        57           Si  tau(  57) = (   0.1888820   0.5195740   0.0520590  )
        58           Si  tau(  58) = (   0.1597500   0.7606600   0.0013719  )
        59           Si  tau(  59) = (   0.8704190   0.5309050   0.6811270  )
        60           Si  tau(  60) = (   0.8459230   0.7370330   0.5763120  )
        61           Si  tau(  61) = (   0.5899950   0.8713920   0.1620410  )
        62           Si  tau(  62) = (   0.9963030   0.9429560   0.6679840  )
        63           Si  tau(  63) = (   0.0851377   0.9432160   0.2312980  )
        64           Si  tau(  64) = (   0.3289520   0.4296520   0.3008840  )

     number of k points=     1  Fermi-Dirac smearing, width (Ry)=  0.0100
                       cart. coord. in units 2pi/alat
        k(    1) = (   0.0000000   0.0000000   0.0000000), wk =   2.0000000

     Dense  grid:    92154 G-vectors     FFT dimensions: (  72,  72,  72)

     Estimated max dynamical RAM per process >     147.69 MB

     Estimated total dynamical RAM >     568.28 MB

     Initial potential from superposition of free atoms

     starting charge     255.9608, renormalised to     256.0000
     Starting wfcs are  256 randomized atomic wfcs

     total cpu time spent up to now is        5.0 secs

     Self-consistent Calculation

     iteration #  1     ecut=    30.00 Ry     beta= 0.50
     Davidson diagonalization with overlap
     ethr =  1.00E-02,  avg # of iterations =  3.0

     Threshold (ethr) on eigenvalues was too large:
     Diagonalizing with lowered threshold

     Davidson diagonalization with overlap
     ethr =  3.84E-04,  avg # of iterations =  4.0

     total cpu time spent up to now is        5.3 secs

     total energy              =    -501.38118107 Ry
     estimated scf accuracy    <       1.18180451 Ry

     iteration #  2     ecut=    30.00 Ry     beta= 0.50
     Davidson diagonalization with overlap
     ethr =  4.62E-04,  avg # of iterations =  5.0

     total cpu time spent up to now is        5.4 secs

     total energy              =    -500.86532668 Ry
     estimated scf accuracy    <       5.78715603 Ry

     iteration #  3     ecut=    30.00 Ry     beta= 0.50
     Davidson diagonalization with overlap
     ethr =  4.62E-04,  avg # of iterations =  3.0

     total cpu time spent up to now is        5.5 secs

     total energy              =    -501.44056057 Ry
     estimated scf accuracy    <       1.78417175 Ry

     iteration #  4     ecut=    30.00 Ry     beta= 0.50
     Davidson diagonalization with overlap
     ethr =  4.62E-04,  avg # of iterations =  2.0

     total cpu time spent up to now is        5.6 secs

     total energy              =    -501.54170183 Ry
     estimated scf accuracy    <       0.48199615 Ry

     iteration #  5     ecut=    30.00 Ry     beta= 0.50
     Davidson diagonalization with overlap
     ethr =  1.88E-04,  avg # of iterations =  2.0

     total cpu time spent up to now is        5.7 secs

     total energy              =    -501.57784063 Ry
     estimated scf accuracy    <       0.17020918 Ry

     iteration #  6     ecut=    30.00 Ry     beta= 0.50
     Davidson diagonalization with overlap
     ethr =  6.65E-05,  avg # of iterations =  3.0

     total cpu time spent up to now is        5.8 secs

     total energy              =    -501.59519399 Ry
     estimated scf accuracy    <       0.17640616 Ry

     iteration #  7     ecut=    30.00 Ry     beta= 0.50
     Davidson diagonalization with overlap
     ethr =  6.65E-05,  avg # of iterations =  1.0

     total cpu time spent up to now is        5.9 secs

     total energy              =    -501.60701786 Ry
     estimated scf accuracy    <       0.01235341 Ry

     iteration #  8     ecut=    30.00 Ry     beta= 0.50
     Davidson diagonalization with overlap
     ethr =  4.83E-06,  avg # of iterations = 13.0

     total cpu time spent up to now is        6.1 secs

     total energy              =    -501.60869745 Ry
     estimated scf accuracy    <       0.02451186 Ry

     iteration #  9     ecut=    30.00 Ry     beta= 0.50
     Davidson diagonalization with overlap
     ethr =  4.83E-06,  avg # of iterations =  2.0

     total cpu time spent up to now is        6.2 secs

     total energy              =    -501.61040297 Ry
     estimated scf accuracy    <       0.00203504 Ry

     iteration # 10     ecut=    30.00 Ry     beta= 0.50
     Davidson diagonalization with overlap
     ethr =  7.95E-07,  avg # of iterations =  4.0

     total cpu time spent up to now is        6.3 secs

     total energy              =    -501.61054536 Ry
     estimated scf accuracy    <       0.00174760 Ry

     iteration # 11     ecut=    30.00 Ry     beta= 0.50
     Davidson diagonalization with overlap
     ethr =  6.83E-07,  avg # of iterations =  2.0

     total cpu time spent up to now is        6.4 secs

     total energy              =    -501.61067051 Ry
     estimated scf accuracy    <       0.00042663 Ry

     iteration # 12     ecut=    30.00 Ry     beta= 0.50
     Davidson diagonalization with overlap
     ethr =  1.67E-07,  avg # of iterations =  2.0

     total cpu time spent up to now is        6.5 secs

     total energy              =    -501.61072015 Ry
     estimated scf accuracy    <       0.00016884 Ry

     iteration # 13     ecut=    30.00 Ry     beta= 0.50
     Davidson diagonalization with overlap
     ethr =  6.60E-08,  avg # of iterations =  2.0

     total cpu time spent up to now is        6.6 secs

     total energy              =    -501.61072529 Ry
     estimated scf accuracy    <       0.00014708 Ry

     iteration # 14     ecut=    30.00 Ry     beta= 0.50
     Davidson diagonalization with overlap
     ethr =  5.75E-08,  avg # of iterations =  1.0

     total cpu time spent up to now is        6.7 secs

     total energy              =    -501.61073582 Ry
     estimated scf accuracy    <       0.00001897 Ry

     iteration # 15     ecut=    30.00 Ry     beta= 0.50
     Davidson diagonalization with overlap
     ethr =  7.41E-09,  avg # of iterations =  3.0

     total cpu time spent up to now is        6.8 secs

     total energy              =    -501.61073567 Ry
     estimated scf accuracy    <       0.00001575 Ry

     iteration # 16     ecut=    30.00 Ry     beta= 0.50
     Davidson diagonalization with overlap
     ethr =  6.15E-09,  avg # of iterations =  2.0

     total cpu time spent up to now is        6.9 secs

     total energy              =    -501.61073768 Ry
     estimated scf accuracy    <       0.00000878 Ry

     iteration # 17     ecut=    30.00 Ry     beta= 0.50
     Davidson diagonalization with overlap
     ethr =  3.43E-09,  avg # of iterations =  2.0

     total cpu time spent up to now is        7.0 secs

     total energy              =    -501.61073823 Ry
     estimated scf accuracy    <       0.00000168 Ry

     iteration # 18     ecut=    30.00 Ry     beta= 0.50
     Davidson diagonalization with overlap
     ethr =  6.55E-10,  avg # of iterations =  2.0

     total cpu time spent up to now is        7.0 secs

     End of self-consistent calculation

          k = 0.0000 0.0000 0.0000 ( 11492 PWs)   bands (ev):

    -5.4923  -4.5645  -4.5133  -4.3910  -4.2784  -4.2733  -4.1437  -3.5521
    -3.5387  -3.3632  -3.3400  -3.2420  -3.1577  -3.1346  -3.0883  -3.0045
    -2.8811  -2.7734  -2.6130  -2.2644  -2.1893  -2.1234  -1.9156  -1.8323
    -1.7353  -1.7054  -1.6763  -1.2161  -1.0480  -0.8883  -0.8019  -0.7664
    -0.5531  -0.4248  -0.3575  -0.2027  -0.1587   0.0203   0.0433   0.1459
     0.1802   0.2004   0.2733   0.4034   0.4260   0.5496   0.6072   0.7270
     0.7999   0.9127   1.0018   1.1155   1.1689   1.2707   1.3554   1.4597
     1.5279   1.5956   1.7030   1.8732   2.0358   2.0413   2.0857   2.2013
     2.3233   2.4833   2.5080   2.5462   2.6481   2.7123   2.8282   2.8882
     2.9459   3.0391   3.1026   3.1068   3.2162   3.3829   3.4329   3.4409
     3.6465   3.8985   3.9936   4.1094   4.1785   4.2377   4.3591   4.3669
     4.5329   4.5652   4.6085   4.6366   4.7433   4.8108   4.8492   4.9179
     5.0278   5.1130   5.1427   5.1815   5.2754   5.3025   5.3721   5.4017
     5.4697   5.5586   5.5788   5.6503   5.7594   5.7823   5.8405   5.8743
     5.9299   6.0092   6.0772   6.1586   6.2023   6.3083   6.3357   6.3790
     6.4069   6.4587   6.4904   6.6285   6.6743   6.7693   6.8090   6.8336
     6.8899   6.9472   7.0056   7.1110   7.1778   7.2114   7.3007   7.4001
     7.4783   7.4991   7.5912   7.6193   7.7185   7.7618   7.7988   7.8036
     7.9299   7.9859   8.0512   8.1189   8.1919   8.2242   8.2571   8.2797
     8.4054   8.5430

     the Fermi energy is     6.8818 ev

!    total energy              =    -501.61073818 Ry
     estimated scf accuracy    <       0.00000033 Ry
     smearing contrib. (-TS)   =      -0.14542300 Ry
     internal energy E=F+TS    =    -501.46531518 Ry

     The total energy is F=E-TS. E is the sum of the following terms:
     one-electron contribution =     179.77837741 Ry
     hartree contribution      =      26.14951921 Ry
     xc contribution           =    -150.73701365 Ry
     ewald contribution        =    -556.65619815 Ry

     convergence has been achieved in  18 iterations

     Forces acting on atoms (cartesian axes, Ry/au):

     atom    1 type  1   force =     0.03520318   -0.02124301   -0.02732595
     atom    2 type  1   force =     0.00920702    0.00067043    0.01117766
     atom    3 type  1   force =     0.00085468    0.00893396   -0.00247879
     atom    4 type  1   force =     0.00335900   -0.00392208    0.03735065
     atom    5 type  1   force =    -0.00858246    0.00870847   -0.02241852
     atom    6 type  1   force =     0.03039911    0.05704080   -0.01561472
     atom    7 type  1   force =    -0.00589098   -0.02410022   -0.03126080
     atom    8 type  1   force =     0.00552781    0.03896251   -0.02324689
     atom    9 type  1   force =     0.04789609    0.01732264    0.00050264
     atom   10 type  1   force =    -0.01638351   -0.00278468    0.03022246
     atom   11 type  1   force =    -0.00909637   -0.02350196    0.00182820
     atom   12 type  1   force =    -0.02662045   -0.00492698   -0.05911412
     atom   13 type  1   force =    -0.01876495   -0.00788041    0.01867828
     atom   14 type  1   force =    -0.04177703   -0.01210658    0.03524278
     atom   15 type  1   force =    -0.01437167   -0.00935263    0.00075307
     atom   16 type  1   force =    -0.04000372   -0.04205449    0.02219902
     atom   17 type  1   force =     0.00342513   -0.00368518    0.01531512
     atom   18 type  1   force =     0.02287594   -0.01763597   -0.02747333
     atom   19 type  1   force =    -0.03862160    0.02803846    0.00015748
     atom   20 type  1   force =     0.00578133    0.02076761   -0.00072241
     atom   21 type  1   force =    -0.07252746    0.02033609   -0.03553263
     atom   22 type  1   force =     0.00816555    0.00266451    0.00221917
     atom   23 type  1   force =     0.02837672   -0.01609535    0.02328001
     atom   24 type  1   force =     0.02096942    0.00846585    0.01309548
     atom   25 type  1   force =     0.01191139   -0.01184068   -0.02014295
     atom   26 type  1   force =    -0.02702972    0.01064758    0.01951034
     atom   27 type  1   force =     0.01332963    0.05001063   -0.00146102
     atom   28 type  1   force =     0.00024927    0.01006277    0.01115224
     atom   29 type  1   force =     0.05144208    0.01172897    0.04874387
     atom   30 type  1   force =     0.01197304   -0.00529721   -0.00539904
     atom   31 type  1   force =    -0.03012658   -0.01357990   -0.02212350
     atom   32 type  1   force =     0.00743885    0.03994438    0.05108693
     atom   33 type  1   force =    -0.02287326   -0.03288977   -0.00121145
     atom   34 type  1   force =     0.01571100   -0.00100421    0.01578751
     atom   35 type  1   force =    -0.01456116    0.00616578   -0.00024923
     atom   36 type  1   force =     0.03024263   -0.00779035    0.00021288
     atom   37 type  1   force =     0.01085682    0.01277539   -0.01796598
     atom   38 type  1   force =     0.07200714    0.01172561   -0.04935675
     atom   39 type  1   force =    -0.00163701   -0.00466637    0.00924704
     atom   40 type  1   force =    -0.02931445   -0.00506022    0.02982632
     atom   41 type  1   force =    -0.04146695    0.03147067   -0.01168856
     atom   42 type  1   force =     0.03288513    0.00699494    0.00297148
     atom   43 type  1   force =    -0.02164197   -0.06002245   -0.03987961
     atom   44 type  1   force =     0.00854871    0.02070336   -0.00622415
     atom   45 type  1   force =     0.01048565   -0.02695059   -0.01686161
     atom   46 type  1   force =     0.03375490    0.02320998    0.00146416
     atom   47 type  1   force =    -0.00140874   -0.02185446   -0.02061152
     atom   48 type  1   force =    -0.01805074    0.02008643    0.02978222
     atom   49 type  1   force =    -0.01127808   -0.00642499   -0.02872206
     atom   50 type  1   force =    -0.00731796   -0.03901218   -0.05723770
     atom   51 type  1   force =    -0.00840989   -0.03442622    0.05435541
     atom   52 type  1   force =     0.00216670   -0.00971818   -0.00939943
     atom   53 type  1   force =    -0.04128289    0.07068351    0.03603448
     atom   54 type  1   force =    -0.01618027    0.00226616   -0.00534114
     atom   55 type  1   force =    -0.01608849    0.00769761   -0.03426622
     atom   56 type  1   force =    -0.01910622   -0.01178981    0.04888779
     atom   57 type  1   force =     0.02065766    0.01461808   -0.00051599
     atom   58 type  1   force =    -0.01843443   -0.00232455    0.00786698
     atom   59 type  1   force =     0.00043465    0.01792407    0.01891595
     atom   60 type  1   force =     0.03348692    0.00190990   -0.00967736
     atom   61 type  1   force =     0.01069546   -0.01416995   -0.00752999
     atom   62 type  1   force =     0.00397376   -0.03778349   -0.00685676
     atom   63 type  1   force =     0.01931092   -0.04690427    0.03269605
     atom   64 type  1   force =     0.01524572    0.00026221   -0.01265350

     Total force =     0.346963     Total SCF correction =     0.001125


     Computing stress (Cartesian axis) and pressure

          total   stress  (Ry/bohr**3)                   (kbar)     P=      -31.28
  -0.00023614   0.00005054  -0.00001702          -34.74        7.43       -2.50
   0.00005054  -0.00014951   0.00000892            7.43      -21.99        1.31
  -0.00001702   0.00000892  -0.00025231           -2.50        1.31      -37.12

 
     init_run     :      1.07s CPU      4.93s WALL (       1 calls)
     electrons    :      1.86s CPU      2.03s WALL (       1 calls)
     forces       :      0.04s CPU      0.04s WALL (       1 calls)
     stress       :      0.15s CPU      0.16s WALL (       1 calls)

     Called by init_run:
     wfcinit      :      0.54s CPU      4.22s WALL (       1 calls)
                                        4.22s GPU  (       1 calls)
     potinit      :      0.04s CPU      0.15s WALL (       1 calls)
     hinit0       :      0.47s CPU      0.50s WALL (       1 calls)

     Called by electrons:
     c_bands      :      1.07s CPU      1.15s WALL (      19 calls)
     sum_band     :      0.39s CPU      0.44s WALL (      19 calls)
     v_of_rho     :      0.17s CPU      0.29s WALL (      19 calls)
     mix_rho      :      0.18s CPU      0.20s WALL (      19 calls)

     Called by c_bands:
     init_us_2    :      0.07s CPU      0.07s WALL (      39 calls)
     init_us_2:gp :      0.07s CPU      0.07s WALL (      39 calls)
     regterg      :      0.91s CPU      0.99s WALL (      19 calls)

     Called by *egterg:
     rdiaghg      :      0.38s CPU      1.13s WALL (      76 calls)
                                        1.12s GPU  (      76 calls)
     h_psi        :      0.91s CPU      3.88s WALL (      78 calls)
                                        3.88s GPU  (      78 calls)
     g_psi        :      0.00s CPU      0.00s WALL (      58 calls)
                                        0.00s GPU  (      58 calls)

     Called by h_psi:
     h_psi:calbec :      0.50s CPU      3.39s WALL (      78 calls)
                                        3.39s GPU  (      78 calls)
     vloc_psi     :      0.36s CPU      0.44s WALL (      78 calls)
                                        0.44s GPU  (      78 calls)
     add_vuspsi   :      0.03s CPU      0.05s WALL (      78 calls)
                                        0.05s GPU  (      78 calls)

     General routines
     calbec       :      0.51s CPU      3.39s WALL (      83 calls)
     fft          :      0.62s CPU      0.76s WALL (     159 calls)
                                        0.14s GPU  (     101 calls)
     ffts         :      0.04s CPU      0.05s WALL (      19 calls)
     fftw         :      0.45s CPU      0.60s WALL (    1981 calls)
                                        0.52s GPU  (    1981 calls)
 
     Parallel routines
 
     PWSCF        :      3.17s CPU      7.25s WALL

 
   This run was terminated on:  10:54:56  10May2023            

=------------------------------------------------------------------------------=
   JOB DONE.
=------------------------------------------------------------------------------=
