An instance of this daemon is already running
An instance of this daemon is already running

     Program PWSCF v.7.1 starts on 10May2023 at 11: 6:38 

     This program is part of the open-source Quantum ESPRESSO suite
     for quantum simulation of materials; please cite
         "P. Giannozzi et al., J. Phys.:Condens. Matter 21 395502 (2009);
         "P. Giannozzi et al., J. Phys.:Condens. Matter 29 465901 (2017);
         "P. Giannozzi et al., J. Chem. Phys. 152 154105 (2020);
          URL http://www.quantum-espresso.org", 
     in publications or presentations arising from this work. More details at
     http://www.quantum-espresso.org/quote

     Parallel version (MPI & OpenMP), running on       4 processor cores
     Number of MPI processes:                 4
     Threads/MPI process:                     1

     MPI processes distributed on     1 nodes
     753586 MiB available memory on the printing compute node when the environment starts
 
     Reading input from pw-si-78.in
Warning: card &CELL ignored
Warning: card / ignored

     Current dimensions of program PWSCF are:
     Max number of different atomic species (ntypx) = 10
     Max number of k-points (npk) =  40000
     Max angular momentum in pseudopotentials (lmaxx) =  4

     IMPORTANT: XC functional enforced from input :
     Exchange-correlation= PBE
                           (   1   4   3   4   0   0   0)
     Any further DFT definition will be discarded
     Please, verify this is what you really want


     gamma-point specific algorithms are used
 
     K-points division:     npool     =       2
     R & G space division:  proc/nbgrp/npool/nimage =       2
     Subspace diagonalization in iterative solution of the eigenvalue problem:
     a serial algorithm will be used

     Message from routine divide_et_impera:
     suboptimal parallelization: some nodes have no k-points
 
     Parallelization info
     --------------------
     sticks:   dense  smooth     PW     G-vecs:    dense   smooth      PW
     Min        1933    1933    515                90543    90543   12286
     Max        1936    1936    518                90548    90548   12287
     Sum        3869    3869   1033               181091   181091   24573
 
     Using Slab Decomposition
 


     bravais-lattice index     =            0
     lattice parameter (alat)  =      20.1353  a.u.
     unit-cell volume          =    8163.4972 (a.u.)^3
     number of atoms/cell      =           64
     number of atomic types    =            1
     number of electrons       =       256.00
     number of Kohn-Sham states=          154
     kinetic-energy cutoff     =      30.0000  Ry
     charge density cutoff     =     120.0000  Ry
     scf convergence threshold =      1.0E-06
     mixing beta               =       0.5000
     number of iterations used =            8  plain     mixing
     Exchange-correlation= PBE
                           (   1   4   3   4   0   0   0)

     GPU acceleration is ACTIVE.
     GPU-aware MPI enabled

     Message from routine print_cuda_info:
     High GPU oversubscription detected. Are you sure this is what you want?

     celldm(1)=  20.135330  celldm(2)=   0.000000  celldm(3)=   0.000000
     celldm(4)=   0.000000  celldm(5)=   0.000000  celldm(6)=   0.000000

     crystal axes: (cart. coord. in units of alat)
               a(1) = (   1.000000   0.000000   0.000000 )  
               a(2) = (   0.000000   1.000000   0.000000 )  
               a(3) = (   0.000000   0.000000   1.000000 )  

     reciprocal axes: (cart. coord. in units 2 pi/alat)
               b(1) = (  1.000000  0.000000  0.000000 )  
               b(2) = (  0.000000  1.000000  0.000000 )  
               b(3) = (  0.000000  0.000000  1.000000 )  


     PseudoPot. # 1 for Si read from file:
     /home/ppiaggi/pseudos/Si_ONCV_PBE_sr.upf
     MD5 check sum: 8553c464762ac42b85b1eed164b4d029
     Pseudo is Norm-conserving, Zval =  4.0
     Generated using ONCVPSP code by D. R. Hamann
     Using radial grid of 1510 points,  4 beta functions with: 
                l(1) =   0
                l(2) =   0
                l(3) =   1
                l(4) =   1

     atomic species   valence    mass     pseudopotential
        Si             4.00    28.08500     Si( 1.00)

     No symmetry found



   Cartesian axes

     site n.     atom                  positions (alat units)
         1           Si  tau(   1) = (   0.4516380   0.4739660   0.2726240  )
         2           Si  tau(   2) = (   0.5781880   0.0194726   0.1594500  )
         3           Si  tau(   3) = (   0.5627390   0.6291910   0.9598870  )
         4           Si  tau(   4) = (   0.1196090   0.9610370   0.6667080  )
         5           Si  tau(   5) = (   0.5061450   0.1051730   0.9578670  )
         6           Si  tau(   6) = (   0.6323190   0.1876160   0.5150590  )
         7           Si  tau(   7) = (   0.7687190   0.2410430   0.3448270  )
         8           Si  tau(   8) = (   0.3226440   0.0919065   0.4312230  )
         9           Si  tau(   9) = (   0.2134100   0.2244820   0.8031460  )
        10           Si  tau(  10) = (   0.2982230   0.7599490   0.7231410  )
        11           Si  tau(  11) = (   0.7261200   0.4037700   0.7778750  )
        12           Si  tau(  12) = (   0.0053555   0.8153540   0.7870410  )
        13           Si  tau(  13) = (   0.7556350   0.1407070   0.1324830  )
        14           Si  tau(  14) = (   0.3687200   0.3078160   0.1159370  )
        15           Si  tau(  15) = (   0.4174260   0.6579020   0.5775040  )
        16           Si  tau(  16) = (   0.0623815   0.2519180   0.0439242  )
        17           Si  tau(  17) = (   0.1803920   0.7167530   0.4177710  )
        18           Si  tau(  18) = (   0.6176080   0.8134440   0.1182650  )
        19           Si  tau(  19) = (   0.8303020   0.4072300   0.1550900  )
        20           Si  tau(  20) = (   0.6207800   0.4236500   0.4392460  )
        21           Si  tau(  21) = (   0.1727500   0.6858660   0.9562270  )
        22           Si  tau(  22) = (   0.5487320   0.9452310   0.7876480  )
        23           Si  tau(  23) = (   0.8966050   0.4317560   0.9295090  )
        24           Si  tau(  24) = (   0.6065070   0.4303940   0.0892362  )
        25           Si  tau(  25) = (   0.9836360   0.6764460   0.2932820  )
        26           Si  tau(  26) = (   0.5429530   0.4903560   0.6387310  )
        27           Si  tau(  27) = (   0.3227520   0.8075510   0.1578230  )
        28           Si  tau(  28) = (   0.0520719   0.3341860   0.2611380  )
        29           Si  tau(  29) = (   0.2772710   0.4287280   0.5675130  )
        30           Si  tau(  30) = (   0.0559544   0.3253880   0.5514170  )
        31           Si  tau(  31) = (   0.0032759   0.1495590   0.6952580  )
        32           Si  tau(  32) = (   0.9054340   0.9707200   0.2771680  )
        33           Si  tau(  33) = (   0.0476880   0.0014918   0.9509370  )
        34           Si  tau(  34) = (   0.8562890   0.4414000   0.5505220  )
        35           Si  tau(  35) = (   0.8516460   0.5149260   0.3349880  )
        36           Si  tau(  36) = (   0.6878710   0.6792900   0.7101610  )
        37           Si  tau(  37) = (   0.5772570   0.8242050   0.5426220  )
        38           Si  tau(  38) = (   0.8396290   0.0172442   0.5456010  )
        39           Si  tau(  39) = (   0.8321600   0.9134570   0.0273811  )
        40           Si  tau(  40) = (   0.1128110   0.9068600   0.1826060  )
        41           Si  tau(  41) = (   0.6717360   0.6773420   0.3189210  )
        42           Si  tau(  42) = (   0.9557410   0.7310970   0.0732641  )
        43           Si  tau(  43) = (   0.4136580   0.2557380   0.6666390  )
        44           Si  tau(  44) = (   0.3716370   0.9983910   0.6419560  )
        45           Si  tau(  45) = (   0.8323520   0.8058160   0.4522460  )
        46           Si  tau(  46) = (   0.3366890   0.0608266   0.1834990  )
        47           Si  tau(  47) = (   0.8752250   0.1536790   0.8790760  )
        48           Si  tau(  48) = (   0.2044320   0.5445450   0.2241140  )
        49           Si  tau(  49) = (   0.9033310   0.6653820   0.6045140  )
        50           Si  tau(  50) = (   0.6728580   0.1412030   0.7511920  )
        51           Si  tau(  51) = (   0.2678530   0.0781327   0.9615810  )
        52           Si  tau(  52) = (   0.3682130   0.4964470   0.8272950  )
        53           Si  tau(  53) = (   0.3962500   0.7925600   0.9298400  )
        54           Si  tau(  54) = (   0.4330270   0.6832330   0.3314380  )
        55           Si  tau(  55) = (   0.1203440   0.6129210   0.6306320  )
        56           Si  tau(  56) = (   0.3012050   0.3068520   0.3675290  )
        57           Si  tau(  57) = (   0.0881690   0.4634430   0.8097100  )
        58           Si  tau(  58) = (   0.7995790   0.8964940   0.8007910  )
        59           Si  tau(  59) = (   0.1404660   0.9414100   0.4281900  )
        60           Si  tau(  60) = (   0.2234240   0.4099440   0.0194018  )
        61           Si  tau(  61) = (   0.8054930   0.6266170   0.9474100  )
        62           Si  tau(  62) = (   0.5408240   0.0187531   0.4143410  )
        63           Si  tau(  63) = (   0.5111970   0.3320960   0.8930240  )
        64           Si  tau(  64) = (   0.9868830   0.1585630   0.4124560  )

     number of k points=     1  Fermi-Dirac smearing, width (Ry)=  0.0100
                       cart. coord. in units 2pi/alat
        k(    1) = (   0.0000000   0.0000000   0.0000000), wk =   2.0000000

     Dense  grid:    90546 G-vectors     FFT dimensions: (  72,  72,  72)

     Estimated max dynamical RAM per process >     145.44 MB

     Estimated total dynamical RAM >     559.66 MB

     Initial potential from superposition of free atoms

     starting charge     255.9608, renormalised to     256.0000
     Starting wfcs are  256 randomized atomic wfcs

     total cpu time spent up to now is        5.0 secs

     Self-consistent Calculation

     iteration #  1     ecut=    30.00 Ry     beta= 0.50
     Davidson diagonalization with overlap
     ethr =  1.00E-02,  avg # of iterations =  3.0

     Threshold (ethr) on eigenvalues was too large:
     Diagonalizing with lowered threshold

     Davidson diagonalization with overlap
     ethr =  3.61E-04,  avg # of iterations =  5.0

     total cpu time spent up to now is        5.3 secs

     total energy              =    -501.21428986 Ry
     estimated scf accuracy    <       1.08694388 Ry

     iteration #  2     ecut=    30.00 Ry     beta= 0.50
     Davidson diagonalization with overlap
     ethr =  4.25E-04,  avg # of iterations =  3.0

     total cpu time spent up to now is        5.4 secs

     total energy              =    -500.92515989 Ry
     estimated scf accuracy    <       2.90475159 Ry

     iteration #  3     ecut=    30.00 Ry     beta= 0.50
     Davidson diagonalization with overlap
     ethr =  4.25E-04,  avg # of iterations =  4.0

     total cpu time spent up to now is        5.5 secs

     total energy              =    -501.19334912 Ry
     estimated scf accuracy    <       2.44014698 Ry

     iteration #  4     ecut=    30.00 Ry     beta= 0.50
     Davidson diagonalization with overlap
     ethr =  4.25E-04,  avg # of iterations =  2.0

     total cpu time spent up to now is        5.6 secs

     total energy              =    -501.36025808 Ry
     estimated scf accuracy    <       0.44841213 Ry

     iteration #  5     ecut=    30.00 Ry     beta= 0.50
     Davidson diagonalization with overlap
     ethr =  1.75E-04,  avg # of iterations =  2.0

     total cpu time spent up to now is        5.7 secs

     total energy              =    -501.40298904 Ry
     estimated scf accuracy    <       0.10023785 Ry

     iteration #  6     ecut=    30.00 Ry     beta= 0.50
     Davidson diagonalization with overlap
     ethr =  3.92E-05,  avg # of iterations =  3.0

     total cpu time spent up to now is        5.8 secs

     total energy              =    -501.40832378 Ry
     estimated scf accuracy    <       0.18574828 Ry

     iteration #  7     ecut=    30.00 Ry     beta= 0.50
     Davidson diagonalization with overlap
     ethr =  3.92E-05,  avg # of iterations =  2.0

     total cpu time spent up to now is        5.9 secs

     total energy              =    -501.42281950 Ry
     estimated scf accuracy    <       0.01046434 Ry

     iteration #  8     ecut=    30.00 Ry     beta= 0.50
     Davidson diagonalization with overlap
     ethr =  4.09E-06,  avg # of iterations = 15.0

     total cpu time spent up to now is        6.1 secs

     total energy              =    -501.42367524 Ry
     estimated scf accuracy    <       0.01640838 Ry

     iteration #  9     ecut=    30.00 Ry     beta= 0.50
     Davidson diagonalization with overlap
     ethr =  4.09E-06,  avg # of iterations =  2.0

     total cpu time spent up to now is        6.2 secs

     total energy              =    -501.42500899 Ry
     estimated scf accuracy    <       0.00298282 Ry

     iteration # 10     ecut=    30.00 Ry     beta= 0.50
     Davidson diagonalization with overlap
     ethr =  1.17E-06,  avg # of iterations =  2.0

     total cpu time spent up to now is        6.3 secs

     total energy              =    -501.42525296 Ry
     estimated scf accuracy    <       0.00079355 Ry

     iteration # 11     ecut=    30.00 Ry     beta= 0.50
     Davidson diagonalization with overlap
     ethr =  3.10E-07,  avg # of iterations =  2.0

     total cpu time spent up to now is        6.4 secs

     total energy              =    -501.42530625 Ry
     estimated scf accuracy    <       0.00053427 Ry

     iteration # 12     ecut=    30.00 Ry     beta= 0.50
     Davidson diagonalization with overlap
     ethr =  2.09E-07,  avg # of iterations =  2.0

     total cpu time spent up to now is        6.5 secs

     total energy              =    -501.42536121 Ry
     estimated scf accuracy    <       0.00017899 Ry

     iteration # 13     ecut=    30.00 Ry     beta= 0.50
     Davidson diagonalization with overlap
     ethr =  6.99E-08,  avg # of iterations =  2.0

     total cpu time spent up to now is        6.6 secs

     total energy              =    -501.42537362 Ry
     estimated scf accuracy    <       0.00002502 Ry

     iteration # 14     ecut=    30.00 Ry     beta= 0.50
     Davidson diagonalization with overlap
     ethr =  9.77E-09,  avg # of iterations =  5.0

     total cpu time spent up to now is        6.7 secs

     total energy              =    -501.42537482 Ry
     estimated scf accuracy    <       0.00007117 Ry

     iteration # 15     ecut=    30.00 Ry     beta= 0.50
     Davidson diagonalization with overlap
     ethr =  9.77E-09,  avg # of iterations =  3.0

     total cpu time spent up to now is        6.8 secs

     total energy              =    -501.42537946 Ry
     estimated scf accuracy    <       0.00000580 Ry

     iteration # 16     ecut=    30.00 Ry     beta= 0.50
     Davidson diagonalization with overlap
     ethr =  2.27E-09,  avg # of iterations =  3.0

     total cpu time spent up to now is        6.9 secs

     total energy              =    -501.42538043 Ry
     estimated scf accuracy    <       0.00000735 Ry

     iteration # 17     ecut=    30.00 Ry     beta= 0.50
     Davidson diagonalization with overlap
     ethr =  2.27E-09,  avg # of iterations =  2.0

     total cpu time spent up to now is        7.0 secs

     total energy              =    -501.42538064 Ry
     estimated scf accuracy    <       0.00000373 Ry

     iteration # 18     ecut=    30.00 Ry     beta= 0.50
     Davidson diagonalization with overlap
     ethr =  1.46E-09,  avg # of iterations =  2.0

     total cpu time spent up to now is        7.1 secs

     total energy              =    -501.42538094 Ry
     estimated scf accuracy    <       0.00000113 Ry

     iteration # 19     ecut=    30.00 Ry     beta= 0.50
     Davidson diagonalization with overlap
     ethr =  4.42E-10,  avg # of iterations =  2.0

     total cpu time spent up to now is        7.2 secs

     End of self-consistent calculation

          k = 0.0000 0.0000 0.0000 ( 11372 PWs)   bands (ev):

    -5.2911  -4.3508  -4.3059  -4.1816  -4.0280  -3.9897  -3.9519  -3.2955
    -3.2525  -3.1615  -3.1122  -3.0175  -2.9535  -2.9027  -2.8394  -2.7509
    -2.6791  -2.5849  -2.5282  -2.0617  -1.9208  -1.8046  -1.7757  -1.7442
    -1.6454  -1.4578  -1.3176  -0.8548  -0.7517  -0.5966  -0.4677  -0.4521
    -0.2038  -0.1188  -0.0168   0.0684   0.0823   0.1587   0.2049   0.2996
     0.3645   0.4538   0.4742   0.6237   0.6634   0.7851   0.9417   0.9823
     1.0118   1.0799   1.2532   1.2617   1.3120   1.4735   1.5705   1.6535
     1.7678   1.8128   1.9237   2.0469   2.1370   2.2938   2.3834   2.4334
     2.5935   2.6209   2.6655   2.7300   2.8180   2.8770   2.9642   3.0195
     3.0675   3.1035   3.1356   3.2185   3.3673   3.4935   3.5323   3.6779
     3.8157   4.0897   4.1146   4.3512   4.4512   4.5417   4.5818   4.6538
     4.7118   4.8043   4.8189   4.9172   4.9384   5.0115   5.1256   5.2185
     5.2706   5.3098   5.3683   5.5036   5.5745   5.6335   5.6657   5.7363
     5.7942   5.8309   5.8944   5.9334   6.0095   6.0818   6.1250   6.2147
     6.3155   6.3384   6.3713   6.3895   6.4674   6.5185   6.5531   6.5600
     6.6987   6.7722   6.8182   6.8474   6.9418   6.9636   7.0340   7.0548
     7.1312   7.2271   7.3038   7.3805   7.4206   7.5016   7.5682   7.5927
     7.6101   7.7349   7.7965   7.8459   7.8567   7.9367   7.9938   8.0685
     8.0870   8.1744   8.2419   8.2753   8.3504   8.4299   8.4505   8.5295
     8.6138   8.6528

     the Fermi energy is     7.1309 ev

!    total energy              =    -501.42538064 Ry
     estimated scf accuracy    <       0.00000054 Ry
     smearing contrib. (-TS)   =      -0.14504069 Ry
     internal energy E=F+TS    =    -501.28033995 Ry

     The total energy is F=E-TS. E is the sum of the following terms:
     one-electron contribution =     194.23345427 Ry
     hartree contribution      =      20.95171320 Ry
     xc contribution           =    -150.51489654 Ry
     ewald contribution        =    -565.95061088 Ry

     convergence has been achieved in  19 iterations

     Forces acting on atoms (cartesian axes, Ry/au):

     atom    1 type  1   force =     0.00828392   -0.03035674    0.00647886
     atom    2 type  1   force =    -0.05439802    0.02361707    0.02665468
     atom    3 type  1   force =     0.02247384   -0.00099122    0.02171611
     atom    4 type  1   force =     0.03452258    0.00562177   -0.03627447
     atom    5 type  1   force =    -0.02121979    0.01232013   -0.00798245
     atom    6 type  1   force =     0.00888070    0.02402162    0.04684410
     atom    7 type  1   force =     0.03624991    0.00527119   -0.02375316
     atom    8 type  1   force =     0.01446306   -0.03165780   -0.00902630
     atom    9 type  1   force =    -0.00891725    0.03326169   -0.02008205
     atom   10 type  1   force =    -0.05134838    0.01753920    0.01942230
     atom   11 type  1   force =    -0.02144881   -0.02299507   -0.01892489
     atom   12 type  1   force =     0.00824615   -0.02346849    0.01538281
     atom   13 type  1   force =     0.04337025    0.00002789    0.01865276
     atom   14 type  1   force =     0.08357341   -0.07074615    0.06279188
     atom   15 type  1   force =     0.02167205   -0.01145672   -0.06264067
     atom   16 type  1   force =    -0.02011642   -0.00901057    0.00000449
     atom   17 type  1   force =    -0.01567237   -0.01747584    0.00536279
     atom   18 type  1   force =     0.04940995   -0.06702624   -0.00336528
     atom   19 type  1   force =    -0.02132975   -0.04828461   -0.03046978
     atom   20 type  1   force =     0.00547766   -0.01380665   -0.01088493
     atom   21 type  1   force =    -0.03757772   -0.02730392   -0.00105172
     atom   22 type  1   force =     0.00070322    0.00497555   -0.00038911
     atom   23 type  1   force =     0.00481805   -0.04120088    0.00089760
     atom   24 type  1   force =    -0.02493865    0.03228236   -0.00926558
     atom   25 type  1   force =     0.05901222    0.04741805   -0.02320408
     atom   26 type  1   force =     0.01156433   -0.00263082    0.03885460
     atom   27 type  1   force =    -0.00553245    0.01495656   -0.00996269
     atom   28 type  1   force =     0.02989659   -0.00695376   -0.01026311
     atom   29 type  1   force =    -0.02253303   -0.01291394   -0.01177070
     atom   30 type  1   force =    -0.00168238   -0.01110121    0.01630466
     atom   31 type  1   force =     0.01662838    0.01617095   -0.00424448
     atom   32 type  1   force =     0.01536339    0.01257296    0.01111359
     atom   33 type  1   force =     0.00670567   -0.01004222    0.02238873
     atom   34 type  1   force =     0.00951871    0.01063510   -0.00828984
     atom   35 type  1   force =    -0.03858203   -0.00088430    0.03750474
     atom   36 type  1   force =     0.02048995    0.01066587    0.01452265
     atom   37 type  1   force =     0.01717492   -0.00283473   -0.01493276
     atom   38 type  1   force =    -0.00004261    0.03261228    0.01425049
     atom   39 type  1   force =    -0.02650943    0.00483417    0.01575920
     atom   40 type  1   force =    -0.01433276   -0.00278703   -0.00894649
     atom   41 type  1   force =    -0.01092447    0.03310640    0.00618050
     atom   42 type  1   force =     0.04670290    0.02036571    0.03422583
     atom   43 type  1   force =    -0.01161017    0.01106742    0.01044951
     atom   44 type  1   force =    -0.02305996    0.00009217   -0.00660169
     atom   45 type  1   force =    -0.02608484    0.01577331   -0.03643973
     atom   46 type  1   force =     0.00975486    0.00013704   -0.01719701
     atom   47 type  1   force =     0.00199554    0.00868048    0.00226211
     atom   48 type  1   force =    -0.01986551   -0.01261807    0.00044206
     atom   49 type  1   force =    -0.01564986   -0.01970127    0.02002759
     atom   50 type  1   force =     0.00891724    0.01536498   -0.01860503
     atom   51 type  1   force =     0.00049561    0.00410676    0.02450882
     atom   52 type  1   force =     0.00346794    0.00767969   -0.00164129
     atom   53 type  1   force =     0.00701574    0.00008924   -0.00270576
     atom   54 type  1   force =     0.00478607    0.01100356    0.02666749
     atom   55 type  1   force =     0.03440764   -0.00037781   -0.00699167
     atom   56 type  1   force =    -0.02245659    0.03463326   -0.01573963
     atom   57 type  1   force =     0.04256315   -0.00414962    0.01234935
     atom   58 type  1   force =    -0.02625874    0.00467071    0.01302384
     atom   59 type  1   force =     0.00875535    0.02457495    0.01039958
     atom   60 type  1   force =    -0.06399250    0.07812185   -0.06226460
     atom   61 type  1   force =    -0.04578953    0.00997856   -0.01576072
     atom   62 type  1   force =    -0.03121701   -0.02885636   -0.01987273
     atom   63 type  1   force =     0.02033462   -0.03809823   -0.00119969
     atom   64 type  1   force =    -0.03460452   -0.01852019   -0.02469966

     Total force =     0.352637     Total SCF correction =     0.001492


     Computing stress (Cartesian axis) and pressure

          total   stress  (Ry/bohr**3)                   (kbar)     P=      -38.12
  -0.00024479  -0.00001190  -0.00001665          -36.01       -1.75       -2.45
  -0.00001190  -0.00024925   0.00003729           -1.75      -36.67        5.49
  -0.00001665   0.00003729  -0.00028340           -2.45        5.49      -41.69

 
     init_run     :      1.08s CPU      4.94s WALL (       1 calls)
     electrons    :      2.04s CPU      2.21s WALL (       1 calls)
     forces       :      0.04s CPU      0.04s WALL (       1 calls)
     stress       :      0.15s CPU      0.16s WALL (       1 calls)

     Called by init_run:
     wfcinit      :      0.53s CPU      4.22s WALL (       1 calls)
                                        4.22s GPU  (       1 calls)
     potinit      :      0.06s CPU      0.15s WALL (       1 calls)
     hinit0       :      0.47s CPU      0.50s WALL (       1 calls)

     Called by electrons:
     c_bands      :      1.21s CPU      1.29s WALL (      20 calls)
     sum_band     :      0.41s CPU      0.45s WALL (      20 calls)
     v_of_rho     :      0.20s CPU      0.30s WALL (      20 calls)
     mix_rho      :      0.20s CPU      0.21s WALL (      20 calls)

     Called by c_bands:
     init_us_2    :      0.07s CPU      0.08s WALL (      41 calls)
     init_us_2:gp :      0.07s CPU      0.07s WALL (      41 calls)
     regterg      :      1.03s CPU      1.11s WALL (      20 calls)

     Called by *egterg:
     rdiaghg      :      0.43s CPU      1.19s WALL (      85 calls)
                                        1.17s GPU  (      85 calls)
     h_psi        :      0.94s CPU      3.92s WALL (      87 calls)
                                        3.92s GPU  (      87 calls)
     g_psi        :      0.00s CPU      0.00s WALL (      66 calls)
                                        0.00s GPU  (      66 calls)

     Called by h_psi:
     h_psi:calbec :      0.48s CPU      3.38s WALL (      87 calls)
                                        3.38s GPU  (      87 calls)
     vloc_psi     :      0.40s CPU      0.47s WALL (      87 calls)
                                        0.47s GPU  (      87 calls)
     add_vuspsi   :      0.03s CPU      0.05s WALL (      87 calls)
                                        0.05s GPU  (      87 calls)

     General routines
     calbec       :      0.49s CPU      3.39s WALL (      92 calls)
     fft          :      0.64s CPU      0.77s WALL (     167 calls)
                                        0.14s GPU  (     106 calls)
     ffts         :      0.05s CPU      0.05s WALL (      20 calls)
     fftw         :      0.49s CPU      0.64s WALL (    2100 calls)
                                        0.56s GPU  (    2100 calls)
 
     Parallel routines
 
     PWSCF        :      3.36s CPU      7.43s WALL

 
   This run was terminated on:  11: 6:45  10May2023            

=------------------------------------------------------------------------------=
   JOB DONE.
=------------------------------------------------------------------------------=
