10.945482856382357 0.0 0.0 0.0 11.07524155564477 0.0 0.0 0.0 10.804559764606434
11.112049320369758 0.0 0.0 0.0 10.916110554703678 0.0 0.0 0.0 10.956991784153319
10.965911742510846 0.0 0.0 0.0 11.061852504346072 0.0 0.0 0.0 11.004917490578958
10.893966925971931 0.0 0.0 0.0 11.178364826541353 0.0 0.0 0.0 10.975540950313608
10.769283779671294 0.0 0.0 0.0 10.930219956474703 0.0 0.0 0.0 10.862933471419316
10.886327723792139 0.0 0.0 0.0 11.09164386466286 0.0 0.0 0.0 11.083914571978967
10.763005092094179 0.0 0.0 0.0 11.07117145389102 0.0 0.0 0.0 10.799265656249444
11.192310685915157 0.0 0.0 0.0 10.793517463865314 0.0 0.0 0.0 11.087449927098818
10.878514422310799 0.0 0.0 0.0 10.859487900586178 0.0 0.0 0.0 11.046620105678766
10.925834506636189 0.0 0.0 0.0 11.158369042440926 0.0 0.0 0.0 11.088891660813227
11.10505783109299 0.0 0.0 0.0 10.878325865355565 0.0 0.0 0.0 11.123381176514293
11.067354484175011 0.0 0.0 0.0 11.063148889471025 0.0 0.0 0.0 10.961882595940823
11.088042667135593 0.0 0.0 0.0 11.037325959976116 0.0 0.0 0.0 10.917952092621732
10.826982616584123 0.0 0.0 0.0 10.99215906338273 0.0 0.0 0.0 11.079337927411467
10.931282385996187 0.0 0.0 0.0 10.929970632109868 0.0 0.0 0.0 10.858622151976471
10.98699416249165 0.0 0.0 0.0 11.087228510236061 0.0 0.0 0.0 10.903822616681587
10.927084952379527 0.0 0.0 0.0 11.054112314950938 0.0 0.0 0.0 10.828347812749826
11.090743587607028 0.0 0.0 0.0 11.155502439415065 0.0 0.0 0.0 10.906027253155433
11.046538769507215 0.0 0.0 0.0 10.772463096096972 0.0 0.0 0.0 11.009610190400753
11.081123145959161 0.0 0.0 0.0 10.835953296354814 0.0 0.0 0.0 10.767582766544248
10.88897890160599 0.0 0.0 0.0 10.794495231676754 0.0 0.0 0.0 10.9846494702355
11.102279650749136 0.0 0.0 0.0 10.898053216573604 0.0 0.0 0.0 10.92361066432963
11.01845004328781 0.0 0.0 0.0 11.052199555770402 0.0 0.0 0.0 11.08554138560139
10.818487205681215 0.0 0.0 0.0 11.078487908695351 0.0 0.0 0.0 10.83936688598818
10.859221150471438 0.0 0.0 0.0 11.12375177769692 0.0 0.0 0.0 11.08451741168027
10.956554831112738 0.0 0.0 0.0 10.808093513151162 0.0 0.0 0.0 10.767477564392227
11.137207463209302 0.0 0.0 0.0 11.059859557377314 0.0 0.0 0.0 11.057721213544378
11.064443480351857 0.0 0.0 0.0 10.806431722833532 0.0 0.0 0.0 10.925927712421332
11.172911049456916 0.0 0.0 0.0 10.974200826442324 0.0 0.0 0.0 11.028333580476945
11.173694231725278 0.0 0.0 0.0 10.773698325617977 0.0 0.0 0.0 10.948209082129063
10.90856851268203 0.0 0.0 0.0 10.917382636040276 0.0 0.0 0.0 10.944021360348247
11.017162555139885 0.0 0.0 0.0 11.189393857364387 0.0 0.0 0.0 10.968466696646168
10.770240532063998 0.0 0.0 0.0 11.170451899994964 0.0 0.0 0.0 10.914604836155783
10.938090779958866 0.0 0.0 0.0 10.824083059759355 0.0 0.0 0.0 11.124005508945826
11.090611293304939 0.0 0.0 0.0 11.008507497900602 0.0 0.0 0.0 11.182951722932996
11.077158021136967 0.0 0.0 0.0 10.834335640155624 0.0 0.0 0.0 11.128135102350239
11.033632137395472 0.0 0.0 0.0 10.78424998382606 0.0 0.0 0.0 10.897499184084287
10.988788073227967 0.0 0.0 0.0 10.76500140411668 0.0 0.0 0.0 10.938591289309462
11.12109295886052 0.0 0.0 0.0 10.852652017019546 0.0 0.0 0.0 10.78720438495665
11.113171176051468 0.0 0.0 0.0 11.00142823987627 0.0 0.0 0.0 11.027555305311166
11.185808685556117 0.0 0.0 0.0 11.17663632243396 0.0 0.0 0.0 11.116534972366468
11.014538365363661 0.0 0.0 0.0 10.856336550821943 0.0 0.0 0.0 11.192885770575629
11.195235977522936 0.0 0.0 0.0 10.988683873737639 0.0 0.0 0.0 11.158638751112413
10.807633251960675 0.0 0.0 0.0 11.027039014608729 0.0 0.0 0.0 11.167786822449012
11.199651961326646 0.0 0.0 0.0 11.126361438891724 0.0 0.0 0.0 10.842259867588751
11.140457140445802 0.0 0.0 0.0 11.152845328785977 0.0 0.0 0.0 10.840088135025102
10.898432123256017 0.0 0.0 0.0 11.061723331758762 0.0 0.0 0.0 11.157422464233072
11.112915054282626 0.0 0.0 0.0 10.962279490721825 0.0 0.0 0.0 11.131218025377029
11.201580283073886 0.0 0.0 0.0 10.89042278597066 0.0 0.0 0.0 11.037880388817044
10.947176752626296 0.0 0.0 0.0 11.182409686686729 0.0 0.0 0.0 10.85061170649138
11.078821225102823 0.0 0.0 0.0 11.155896584365864 0.0 0.0 0.0 10.994456001473665
11.194986735057801 0.0 0.0 0.0 11.081671079325547 0.0 0.0 0.0 11.019337393184745
10.766612493123526 0.0 0.0 0.0 10.876108942178593 0.0 0.0 0.0 10.782794711700692
10.878583215347884 0.0 0.0 0.0 10.881846790312489 0.0 0.0 0.0 10.96679764664114
10.875175843303296 0.0 0.0 0.0 11.191295454716437 0.0 0.0 0.0 11.070994259537814
10.892767810417801 0.0 0.0 0.0 10.927995021516692 0.0 0.0 0.0 11.108923894847733
11.198046437676501 0.0 0.0 0.0 10.946851859986541 0.0 0.0 0.0 10.833303669108501
10.909897805829415 0.0 0.0 0.0 11.164065695011821 0.0 0.0 0.0 11.001595496887411
11.053983763651543 0.0 0.0 0.0 10.778794837855438 0.0 0.0 0.0 10.853365012325032
10.79157166533273 0.0 0.0 0.0 10.797269615172027 0.0 0.0 0.0 10.769222320413826
10.81602759001679 0.0 0.0 0.0 10.997845013804971 0.0 0.0 0.0 10.77160616470459
10.864490167935013 0.0 0.0 0.0 10.94674522299645 0.0 0.0 0.0 10.995820125085013
11.00481579251458 0.0 0.0 0.0 10.803966899485397 0.0 0.0 0.0 11.02822303570526
11.090050894641294 0.0 0.0 0.0 10.933658996925063 0.0 0.0 0.0 10.903582778898796
11.17540717834872 0.0 0.0 0.0 10.938075056102129 0.0 0.0 0.0 11.039044859958508
10.854426275786546 0.0 0.0 0.0 10.96261234247731 0.0 0.0 0.0 11.133352467795433
11.041855551213287 0.0 0.0 0.0 11.19614339883039 0.0 0.0 0.0 10.88307366838684
10.762537828619203 0.0 0.0 0.0 10.995826598592354 0.0 0.0 0.0 11.144543346308213
11.107317946949868 0.0 0.0 0.0 11.12792202174146 0.0 0.0 0.0 11.191011587680135
11.095145812803322 0.0 0.0 0.0 11.167785732439746 0.0 0.0 0.0 11.192272719248601
11.149140938434883 0.0 0.0 0.0 11.117566571297235 0.0 0.0 0.0 11.075032598617106
10.860647812225158 0.0 0.0 0.0 10.997741769558877 0.0 0.0 0.0 11.068520611351147
11.113870219143703 0.0 0.0 0.0 10.896760764412731 0.0 0.0 0.0 10.922411576878515
11.119484789324334 0.0 0.0 0.0 11.139499861945119 0.0 0.0 0.0 10.876357254405757
11.030615298130648 0.0 0.0 0.0 10.79982173424786 0.0 0.0 0.0 10.835042488894791
10.944759471138536 0.0 0.0 0.0 10.99200799777544 0.0 0.0 0.0 11.12504154914713
10.984122846959123 0.0 0.0 0.0 11.030442893004748 0.0 0.0 0.0 10.994403985943876
10.796888837922264 0.0 0.0 0.0 10.916734304023203 0.0 0.0 0.0 10.904933304523354
10.824220840733727 0.0 0.0 0.0 11.067202950166518 0.0 0.0 0.0 10.882206191777538
11.025832065344341 0.0 0.0 0.0 10.896091099431434 0.0 0.0 0.0 10.988950657085764
11.09844682022903 0.0 0.0 0.0 11.072276682626931 0.0 0.0 0.0 11.023110563213315
10.828859078964943 0.0 0.0 0.0 10.776945528540384 0.0 0.0 0.0 11.19224310307777
11.13164845663555 0.0 0.0 0.0 10.870678090218185 0.0 0.0 0.0 10.784986660399005
10.816344567164592 0.0 0.0 0.0 11.04744658518663 0.0 0.0 0.0 10.880572021204415
11.051038363309845 0.0 0.0 0.0 10.76919268089199 0.0 0.0 0.0 11.14427597398109
10.773934718155514 0.0 0.0 0.0 10.802000818096309 0.0 0.0 0.0 10.878775876897885
10.78233117292046 0.0 0.0 0.0 10.915978167808808 0.0 0.0 0.0 10.815066330361446
11.152672667123435 0.0 0.0 0.0 10.809727982609388 0.0 0.0 0.0 10.983241263964496
10.769483808656052 0.0 0.0 0.0 10.881604904587968 0.0 0.0 0.0 11.057298263442386
10.875237227859465 0.0 0.0 0.0 11.079213177305197 0.0 0.0 0.0 10.794673470475482
10.900727693985855 0.0 0.0 0.0 10.828815593388631 0.0 0.0 0.0 11.137785819146965
11.17390907767187 0.0 0.0 0.0 11.01898282830995 0.0 0.0 0.0 10.822087376452295
11.123956865912131 0.0 0.0 0.0 11.201146002604697 0.0 0.0 0.0 10.78549935430989
11.10714067258507 0.0 0.0 0.0 10.802049732590502 0.0 0.0 0.0 11.086670212325496
11.162202090291466 0.0 0.0 0.0 11.084044351255246 0.0 0.0 0.0 10.930876614172266
10.770028861180657 0.0 0.0 0.0 10.993216169270905 0.0 0.0 0.0 10.82899476919562
11.130756263862265 0.0 0.0 0.0 10.824326543918136 0.0 0.0 0.0 10.938984464192181
10.778379277528476 0.0 0.0 0.0 11.135995123577594 0.0 0.0 0.0 11.002418669191183
11.037709447785836 0.0 0.0 0.0 10.911636730473226 0.0 0.0 0.0 11.016009311011489
10.881892689608929 0.0 0.0 0.0 11.0409968426237 0.0 0.0 0.0 11.032824541213806
