
     Program PWSCF v.7.1 starts on 10May2023 at 11:12:44 

     This program is part of the open-source Quantum ESPRESSO suite
     for quantum simulation of materials; please cite
         "P. Giannozzi et al., J. Phys.:Condens. Matter 21 395502 (2009);
         "P. Giannozzi et al., J. Phys.:Condens. Matter 29 465901 (2017);
         "P. Giannozzi et al., J. Chem. Phys. 152 154105 (2020);
          URL http://www.quantum-espresso.org", 
     in publications or presentations arising from this work. More details at
     http://www.quantum-espresso.org/quote

     Parallel version (MPI & OpenMP), running on       4 processor cores
     Number of MPI processes:                 4
     Threads/MPI process:                     1

     MPI processes distributed on     1 nodes
     150112 MiB available memory on the printing compute node when the environment starts
 
     Reading input from pw-si-19.in
Warning: card &CELL ignored
Warning: card / ignored

     Current dimensions of program PWSCF are:
     Max number of different atomic species (ntypx) = 10
     Max number of k-points (npk) =  40000
     Max angular momentum in pseudopotentials (lmaxx) =  4

     IMPORTANT: XC functional enforced from input :
     Exchange-correlation= PBE
                           (   1   4   3   4   0   0   0)
     Any further DFT definition will be discarded
     Please, verify this is what you really want


     gamma-point specific algorithms are used
 
     K-points division:     npool     =       2
     R & G space division:  proc/nbgrp/npool/nimage =       2
     Subspace diagonalization in iterative solution of the eigenvalue problem:
     a serial algorithm will be used

     Message from routine divide_et_impera:
     suboptimal parallelization: some nodes have no k-points
 
     Parallelization info
     --------------------
     sticks:   dense  smooth     PW     G-vecs:    dense   smooth      PW
     Min        2051    2051    543                96837    96837   13135
     Max        2052    2052    546                96840    96840   13138
     Sum        4103    4103   1089               193677   193677   26273
 
     Using Slab Decomposition
 


     bravais-lattice index     =            0
     lattice parameter (alat)  =      20.9403  a.u.
     unit-cell volume          =    8725.0020 (a.u.)^3
     number of atoms/cell      =           64
     number of atomic types    =            1
     number of electrons       =       256.00
     number of Kohn-Sham states=          154
     kinetic-energy cutoff     =      30.0000  Ry
     charge density cutoff     =     120.0000  Ry
     scf convergence threshold =      1.0E-06
     mixing beta               =       0.5000
     number of iterations used =            8  plain     mixing
     Exchange-correlation= PBE
                           (   1   4   3   4   0   0   0)

     GPU acceleration is ACTIVE.
     GPU-aware MPI enabled

     Message from routine print_cuda_info:
     High GPU oversubscription detected. Are you sure this is what you want?

     celldm(1)=  20.940288  celldm(2)=   0.000000  celldm(3)=   0.000000
     celldm(4)=   0.000000  celldm(5)=   0.000000  celldm(6)=   0.000000

     crystal axes: (cart. coord. in units of alat)
               a(1) = (   1.000000   0.000000   0.000000 )  
               a(2) = (   0.000000   0.977875   0.000000 )  
               a(3) = (   0.000000   0.000000   0.971705 )  

     reciprocal axes: (cart. coord. in units 2 pi/alat)
               b(1) = (  1.000000  0.000000  0.000000 )  
               b(2) = (  0.000000  1.022626  0.000000 )  
               b(3) = (  0.000000  0.000000  1.029119 )  


     PseudoPot. # 1 for Si read from file:
     /home/ppiaggi/pseudos/Si_ONCV_PBE_sr.upf
     MD5 check sum: 8553c464762ac42b85b1eed164b4d029
     Pseudo is Norm-conserving, Zval =  4.0
     Generated using ONCVPSP code by D. R. Hamann
     Using radial grid of 1510 points,  4 beta functions with: 
                l(1) =   0
                l(2) =   0
                l(3) =   1
                l(4) =   1

     atomic species   valence    mass     pseudopotential
        Si             4.00    28.08500     Si( 1.00)

     No symmetry found



   Cartesian axes

     site n.     atom                  positions (alat units)
         1           Si  tau(   1) = (   0.0023553  -0.0025546   0.0035110  )
         2           Si  tau(   2) = (  -0.0016038   0.2453666   0.2462607  )
         3           Si  tau(   3) = (   0.2488445   0.0045122   0.2379759  )
         4           Si  tau(   4) = (   0.2459367   0.2495052   0.0024606  )
         5           Si  tau(   5) = (   0.1270634   0.1236679   0.1248274  )
         6           Si  tau(   6) = (   0.4948499  -0.0004520  -0.0015605  )
         7           Si  tau(   7) = (   0.4956108   0.2472210   0.2420306  )
         8           Si  tau(   8) = (   0.6213707   0.1215459   0.1187459  )
         9           Si  tau(   9) = (   0.7422878   0.0043526   0.2466845  )
        10           Si  tau(  10) = (   0.7415744   0.2467655  -0.0013173  )
        11           Si  tau(  11) = (  -0.0026390   0.4990146  -0.0026108  )
        12           Si  tau(  12) = (   0.2492662   0.4976252   0.2390581  )
        13           Si  tau(  13) = (   0.1231740   0.6189370   0.1236377  )
        14           Si  tau(  14) = (   0.3740025   0.3717220   0.1232127  )
        15           Si  tau(  15) = (   0.5014752   0.5009047  -0.0001833  )
        16           Si  tau(  16) = (   0.6233897   0.6220312   0.1238664  )
        17           Si  tau(  17) = (   0.8688659   0.3718577   0.1180782  )
        18           Si  tau(  18) = (   0.7421455   0.4971876   0.2426864  )
        19           Si  tau(  19) = (  -0.0043691   0.7439424   0.2417987  )
        20           Si  tau(  20) = (   0.2519275   0.7489571  -0.0006736  )
        21           Si  tau(  21) = (   0.3726114   0.8746082   0.1246158  )
        22           Si  tau(  22) = (   0.4979317   0.7489181   0.2427678  )
        23           Si  tau(  23) = (   0.7488335   0.7464512   0.0042832  )
        24           Si  tau(  24) = (   0.8702948   0.8699130   0.1253895  )
        25           Si  tau(  25) = (  -0.0034097   0.0032020   0.4857877  )
        26           Si  tau(  26) = (   0.2489226   0.2458011   0.4877786  )
        27           Si  tau(  27) = (   0.1240716   0.1205894   0.6074750  )
        28           Si  tau(  28) = (   0.3736442   0.1245586   0.3619953  )
        29           Si  tau(  29) = (   0.4944675  -0.0031728   0.4846337  )
        30           Si  tau(  30) = (   0.6170254   0.1207250   0.6089163  )
        31           Si  tau(  31) = (   0.8710178   0.1227560   0.3624813  )
        32           Si  tau(  32) = (   0.7432350   0.2466628   0.4806229  )
        33           Si  tau(  33) = (   0.1208270   0.3737684   0.3617678  )
        34           Si  tau(  34) = (   0.0027924   0.4975096   0.4881872  )
        35           Si  tau(  35) = (   0.1258742   0.6209004   0.6049940  )
        36           Si  tau(  36) = (   0.6234567   0.3714684   0.3633966  )
        37           Si  tau(  37) = (   0.3710211   0.6222864   0.3653468  )
        38           Si  tau(  38) = (   0.3758101   0.3724499   0.6026019  )
        39           Si  tau(  39) = (   0.4998790   0.5012445   0.4882457  )
        40           Si  tau(  40) = (   0.6202335   0.6198293   0.6073645  )
        41           Si  tau(  41) = (   0.8703212   0.6221409   0.3673521  )
        42           Si  tau(  42) = (   0.8735977   0.3782313   0.6058952  )
        43           Si  tau(  43) = (   0.1222830   0.8729418   0.3641311  )
        44           Si  tau(  44) = (   0.2507011   0.7500457   0.4877309  )
        45           Si  tau(  45) = (   0.6209908   0.8722609   0.3638783  )
        46           Si  tau(  46) = (   0.3752513   0.8750184   0.6033561  )
        47           Si  tau(  47) = (   0.7455510   0.7494711   0.4818882  )
        48           Si  tau(  48) = (   0.8696856   0.8727936   0.6048765  )
        49           Si  tau(  49) = (   0.0000755   0.2468100   0.7249169  )
        50           Si  tau(  50) = (   0.2502208  -0.0010191   0.7292872  )
        51           Si  tau(  51) = (   0.3734413   0.1286132   0.8506016  )
        52           Si  tau(  52) = (   0.4951769   0.2511568   0.7236373  )
        53           Si  tau(  53) = (   0.7464825   0.0040674   0.7265502  )
        54           Si  tau(  54) = (   0.8692720   0.1256345   0.8516438  )
        55           Si  tau(  55) = (   0.1283692   0.3694784   0.8498305  )
        56           Si  tau(  56) = (   0.2483902   0.5021064   0.7244833  )
        57           Si  tau(  57) = (   0.6238446   0.3722713   0.8524598  )
        58           Si  tau(  58) = (   0.3692512   0.6197809   0.8455728  )
        59           Si  tau(  59) = (   0.7461847   0.5027452   0.7262824  )
        60           Si  tau(  60) = (   0.8738508   0.6185969   0.8501841  )
        61           Si  tau(  61) = (   0.0040787   0.7504703   0.7265016  )
        62           Si  tau(  62) = (   0.1249108   0.8737110   0.8521370  )
        63           Si  tau(  63) = (   0.4998186   0.7484344   0.7232971  )
        64           Si  tau(  64) = (   0.6213956   0.8750946   0.8520401  )

     number of k points=     1  Fermi-Dirac smearing, width (Ry)=  0.0100
                       cart. coord. in units 2pi/alat
        k(    1) = (   0.0000000   0.0000000   0.0000000), wk =   2.0000000

     Dense  grid:    96839 G-vectors     FFT dimensions: (  75,  72,  72)

     Estimated max dynamical RAM per process >     154.89 MB

     Estimated total dynamical RAM >     595.93 MB

     Initial potential from superposition of free atoms

     starting charge     255.9608, renormalised to     256.0000
     Starting wfcs are  256 randomized atomic wfcs

     total cpu time spent up to now is        4.3 secs

     Self-consistent Calculation

     iteration #  1     ecut=    30.00 Ry     beta= 0.50
     Davidson diagonalization with overlap
     ethr =  1.00E-02,  avg # of iterations =  3.0

     Threshold (ethr) on eigenvalues was too large:
     Diagonalizing with lowered threshold

     Davidson diagonalization with overlap
     ethr =  6.73E-04,  avg # of iterations =  3.0

     total cpu time spent up to now is        4.5 secs

     total energy              =    -503.78981539 Ry
     estimated scf accuracy    <       1.90569756 Ry

     iteration #  2     ecut=    30.00 Ry     beta= 0.50
     Davidson diagonalization with overlap
     ethr =  7.44E-04,  avg # of iterations =  1.0

     total cpu time spent up to now is        4.6 secs

     total energy              =    -503.77470542 Ry
     estimated scf accuracy    <       0.35029530 Ry

     iteration #  3     ecut=    30.00 Ry     beta= 0.50
     Davidson diagonalization with overlap
     ethr =  1.37E-04,  avg # of iterations =  5.0

     total cpu time spent up to now is        4.7 secs

     total energy              =    -503.79103791 Ry
     estimated scf accuracy    <       0.05683512 Ry

     iteration #  4     ecut=    30.00 Ry     beta= 0.50
     Davidson diagonalization with overlap
     c_bands:  2 eigenvalues not converged
     ethr =  2.22E-05,  avg # of iterations = 20.0

     total cpu time spent up to now is        4.9 secs

     total energy              =    -503.80229108 Ry
     estimated scf accuracy    <       0.01084564 Ry

     iteration #  5     ecut=    30.00 Ry     beta= 0.50
     Davidson diagonalization with overlap
     ethr =  4.24E-06,  avg # of iterations = 19.0

     total cpu time spent up to now is        5.1 secs

     total energy              =    -503.80399427 Ry
     estimated scf accuracy    <       0.00213356 Ry

     iteration #  6     ecut=    30.00 Ry     beta= 0.50
     Davidson diagonalization with overlap
     ethr =  8.33E-07,  avg # of iterations =  9.0

     total cpu time spent up to now is        5.2 secs

     total energy              =    -503.80426334 Ry
     estimated scf accuracy    <       0.00067745 Ry

     iteration #  7     ecut=    30.00 Ry     beta= 0.50
     Davidson diagonalization with overlap
     ethr =  2.65E-07,  avg # of iterations =  4.0

     total cpu time spent up to now is        5.3 secs

     total energy              =    -503.80433073 Ry
     estimated scf accuracy    <       0.00008786 Ry

     iteration #  8     ecut=    30.00 Ry     beta= 0.50
     Davidson diagonalization with overlap
     ethr =  3.43E-08,  avg # of iterations =  5.0

     total cpu time spent up to now is        5.5 secs

     total energy              =    -503.80435433 Ry
     estimated scf accuracy    <       0.00002210 Ry

     iteration #  9     ecut=    30.00 Ry     beta= 0.50
     Davidson diagonalization with overlap
     ethr =  8.63E-09,  avg # of iterations =  3.0

     total cpu time spent up to now is        5.6 secs

     total energy              =    -503.80435594 Ry
     estimated scf accuracy    <       0.00000356 Ry

     iteration # 10     ecut=    30.00 Ry     beta= 0.50
     Davidson diagonalization with overlap
     ethr =  1.39E-09,  avg # of iterations =  5.0

     total cpu time spent up to now is        5.7 secs

     End of self-consistent calculation

          k = 0.0000 0.0000 0.0000 ( 12105 PWs)   bands (ev):

    -5.8133  -4.8074  -4.7901  -4.7703  -4.7257  -4.6663  -4.5477  -4.0216
    -3.8920  -3.8520  -3.8335  -3.8105  -3.7576  -3.7368  -3.6659  -3.6485
    -3.5798  -3.5696  -3.5498  -3.4805  -3.3985  -3.3341  -3.2771  -1.9386
    -1.8924  -1.6698  -1.6454  -1.5862  -1.5625  -1.5490  -1.5370  -1.5151
    -1.4926  -1.4735  -1.4494  -1.4353  -1.4160  -1.3894  -1.3724  -1.3351
    -1.2844  -0.8541  -0.8208  -0.7609  -0.6573   0.5313   0.5711   0.5909
     0.6115   0.6425   0.6798   0.6986   0.7242   0.7431   0.7635   0.7863
     0.8087   2.0790   2.0929   2.1386   2.1563   2.2504   2.2561   2.2910
     2.2985   2.3285   2.3401   2.3489   2.3767   2.3899   2.4135   2.4327
     2.4360   2.4603   2.4924   2.5139   2.5358   2.5498   2.5828   2.6138
     2.6274   2.6349   2.6593   2.6717   2.7393   2.7639   2.8008   3.1410
     3.2352   3.2678   3.2945   3.4706   3.4843   4.1001   4.1427   4.1592
     4.1732   4.2001   4.2685   4.2866   4.3399   4.3523   4.4069   4.4241
     4.4434   4.4614   4.6709   4.7432   4.7481   4.7925   4.8122   4.8386
     4.8733   4.9000   4.9251   4.9450   4.9722   4.9871   5.0163   5.0688
     5.0753   5.1271   5.1338   5.1944   5.2844   6.0707   6.2084   6.2905
     6.6242   6.6864   6.7413   6.8585   7.0002   7.0456   7.1665   7.1965
     7.2570   7.3251   7.3985   7.4321   7.5354   7.5870   7.5965   7.6114
     8.3008   8.3487   8.3937   8.4511   8.4778   8.5229   8.5660   8.6156
     8.6373   8.6470

     the Fermi energy is     6.4295 ev

!    total energy              =    -503.80435671 Ry
     estimated scf accuracy    <       0.00000047 Ry
     smearing contrib. (-TS)   =      -0.05740338 Ry
     internal energy E=F+TS    =    -503.74695333 Ry

     The total energy is F=E-TS. E is the sum of the following terms:
     one-electron contribution =     147.92280551 Ry
     hartree contribution      =      37.00739046 Ry
     xc contribution           =    -154.02701069 Ry
     ewald contribution        =    -534.65013861 Ry

     convergence has been achieved in  10 iterations

     Forces acting on atoms (cartesian axes, Ry/au):

     atom    1 type  1   force =    -0.03624517    0.07084485    0.00793528
     atom    2 type  1   force =    -0.01327284    0.01540536   -0.02699756
     atom    3 type  1   force =    -0.01086725    0.03230020    0.04989020
     atom    4 type  1   force =     0.01963808   -0.00467437    0.00079853
     atom    5 type  1   force =    -0.03176450    0.02209745   -0.02027571
     atom    6 type  1   force =    -0.00382345    0.06583389    0.00570402
     atom    7 type  1   force =     0.01982165    0.00273646   -0.00082536
     atom    8 type  1   force =    -0.01468478    0.01489965    0.00930964
     atom    9 type  1   force =     0.02470878    0.03514451   -0.03037542
     atom   10 type  1   force =     0.02303902    0.00131956    0.00856859
     atom   11 type  1   force =     0.01348684   -0.03157227    0.00831334
     atom   12 type  1   force =    -0.00197985   -0.01018273    0.02355064
     atom   13 type  1   force =    -0.00170252    0.02299724   -0.02541064
     atom   14 type  1   force =     0.00360094    0.01562643   -0.01985237
     atom   15 type  1   force =    -0.02308569   -0.01556029   -0.00303033
     atom   16 type  1   force =    -0.00915203    0.01542317   -0.00712240
     atom   17 type  1   force =     0.01167072    0.00201934    0.01359116
     atom   18 type  1   force =     0.03304076   -0.00748634    0.00520590
     atom   19 type  1   force =     0.00823167   -0.00250457    0.01685349
     atom   20 type  1   force =    -0.01599681   -0.02207456    0.01074866
     atom   21 type  1   force =     0.01242872   -0.07525680   -0.02198157
     atom   22 type  1   force =    -0.00689092   -0.01778677    0.00301647
     atom   23 type  1   force =    -0.00456211   -0.00738034   -0.02318136
     atom   24 type  1   force =     0.00503527   -0.03306223   -0.00058369
     atom   25 type  1   force =    -0.00084589    0.03853834   -0.00624517
     atom   26 type  1   force =    -0.00924685    0.01155436   -0.02090569
     atom   27 type  1   force =     0.00148608    0.01235920    0.00132249
     atom   28 type  1   force =    -0.00795278    0.00186422    0.01180682
     atom   29 type  1   force =     0.02596048    0.08877564   -0.02466974
     atom   30 type  1   force =     0.00963811    0.02380065   -0.02335334
     atom   31 type  1   force =     0.00184511    0.01684852    0.01448296
     atom   32 type  1   force =     0.01957861    0.00161396    0.03473321
     atom   33 type  1   force =     0.02204181   -0.00533481    0.01397420
     atom   34 type  1   force =    -0.02204006    0.00486208   -0.02069090
     atom   35 type  1   force =    -0.00415323    0.02868395    0.00286063
     atom   36 type  1   force =    -0.02550498    0.01207550   -0.00055652
     atom   37 type  1   force =     0.00985047    0.00640077   -0.00457732
     atom   38 type  1   force =    -0.02139044    0.02160827    0.00764814
     atom   39 type  1   force =    -0.01062495   -0.02752125   -0.03216142
     atom   40 type  1   force =     0.02071039    0.03502001   -0.00845051
     atom   41 type  1   force =     0.00952958   -0.01227927   -0.01103256
     atom   42 type  1   force =    -0.01108519   -0.02619724   -0.00110670
     atom   43 type  1   force =     0.00575836   -0.05439809   -0.01148531
     atom   44 type  1   force =    -0.01555245   -0.01318388   -0.01562314
     atom   45 type  1   force =    -0.00558489   -0.06034045    0.00300991
     atom   46 type  1   force =    -0.02624250   -0.08189058    0.03935540
     atom   47 type  1   force =    -0.00183940   -0.02136313    0.02111998
     atom   48 type  1   force =     0.01274824   -0.05850000    0.00712645
     atom   49 type  1   force =    -0.01353442    0.01063501    0.01749240
     atom   50 type  1   force =     0.00391200    0.06451565    0.00228260
     atom   51 type  1   force =    -0.00844407   -0.00024924   -0.00515495
     atom   52 type  1   force =     0.01597833   -0.00223538    0.02908486
     atom   53 type  1   force =    -0.00053786    0.03707477    0.01824088
     atom   54 type  1   force =     0.02822457   -0.00170523   -0.00447181
     atom   55 type  1   force =    -0.02595330    0.02776498   -0.01520208
     atom   56 type  1   force =     0.00211027   -0.04878695    0.00424868
     atom   57 type  1   force =    -0.01287036    0.01721779   -0.03135558
     atom   58 type  1   force =     0.03427220    0.02697116    0.01455116
     atom   59 type  1   force =     0.00868453   -0.03136248    0.01696280
     atom   60 type  1   force =     0.00047642    0.04185455   -0.01126839
     atom   61 type  1   force =    -0.02835274   -0.02093576    0.00518009
     atom   62 type  1   force =     0.00911581   -0.06819769   -0.00886700
     atom   63 type  1   force =    -0.01227969   -0.00582487    0.02518669
     atom   64 type  1   force =     0.02144016   -0.07883989   -0.01734173

     Total force =     0.341541     Total SCF correction =     0.001170


     Computing stress (Cartesian axis) and pressure

          total   stress  (Ry/bohr**3)                   (kbar)     P=       23.71
   0.00009038  -0.00002259  -0.00006026           13.30       -3.32       -8.86
  -0.00002259   0.00016231  -0.00000012           -3.32       23.88       -0.02
  -0.00006026  -0.00000012   0.00023082           -8.86       -0.02       33.96

 
     init_run     :      1.08s CPU      4.25s WALL (       1 calls)
     electrons    :      1.25s CPU      1.35s WALL (       1 calls)
     forces       :      0.03s CPU      0.04s WALL (       1 calls)
     stress       :      0.15s CPU      0.15s WALL (       1 calls)

     Called by init_run:
     wfcinit      :      0.44s CPU      3.45s WALL (       1 calls)
                                        3.45s GPU  (       1 calls)
     potinit      :      0.14s CPU      0.23s WALL (       1 calls)
     hinit0       :      0.48s CPU      0.50s WALL (       1 calls)

     Called by electrons:
     c_bands      :      0.91s CPU      0.98s WALL (      11 calls)
     sum_band     :      0.18s CPU      0.20s WALL (      11 calls)
     v_of_rho     :      0.08s CPU      0.18s WALL (      11 calls)
     mix_rho      :      0.06s CPU      0.07s WALL (      11 calls)

     Called by c_bands:
     init_us_2    :      0.03s CPU      0.03s WALL (      23 calls)
     init_us_2:gp :      0.03s CPU      0.03s WALL (      23 calls)
     regterg      :      0.83s CPU      0.89s WALL (      11 calls)

     Called by *egterg:
     rdiaghg      :      0.40s CPU      1.04s WALL (      87 calls)
                                        1.02s GPU  (      87 calls)
     h_psi        :      0.72s CPU      3.13s WALL (      89 calls)
                                        3.13s GPU  (      89 calls)
     g_psi        :      0.00s CPU      0.00s WALL (      77 calls)
                                        0.00s GPU  (      77 calls)

     Called by h_psi:
     h_psi:calbec :      0.40s CPU      2.75s WALL (      89 calls)
                                        2.75s GPU  (      89 calls)
     vloc_psi     :      0.29s CPU      0.34s WALL (      89 calls)
                                        0.33s GPU  (      89 calls)
     add_vuspsi   :      0.03s CPU      0.04s WALL (      89 calls)
                                        0.04s GPU  (      89 calls)

     General routines
     calbec       :      0.40s CPU      2.75s WALL (      94 calls)
     fft          :      0.50s CPU      0.61s WALL (      95 calls)
                                        0.11s GPU  (      61 calls)
     ffts         :      0.02s CPU      0.02s WALL (      11 calls)
     fftw         :      0.32s CPU      0.43s WALL (    1245 calls)
                                        0.38s GPU  (    1245 calls)
 
     Parallel routines
 
     PWSCF        :      2.53s CPU      5.86s WALL

 
   This run was terminated on:  11:12:50  10May2023            

=------------------------------------------------------------------------------=
   JOB DONE.
=------------------------------------------------------------------------------=
