An instance of this daemon is already running
An instance of this daemon is already running
An instance of this daemon is already running

     Program PWSCF v.7.1 starts on 10May2023 at 11:15: 6 

     This program is part of the open-source Quantum ESPRESSO suite
     for quantum simulation of materials; please cite
         "P. Giannozzi et al., J. Phys.:Condens. Matter 21 395502 (2009);
         "P. Giannozzi et al., J. Phys.:Condens. Matter 29 465901 (2017);
         "P. Giannozzi et al., J. Chem. Phys. 152 154105 (2020);
          URL http://www.quantum-espresso.org", 
     in publications or presentations arising from this work. More details at
     http://www.quantum-espresso.org/quote

     Parallel version (MPI & OpenMP), running on       4 processor cores
     Number of MPI processes:                 4
     Threads/MPI process:                     1

     MPI processes distributed on     1 nodes
     150153 MiB available memory on the printing compute node when the environment starts
 
     Reading input from pw-si-36.in
Warning: card &CELL ignored
Warning: card / ignored

     Current dimensions of program PWSCF are:
     Max number of different atomic species (ntypx) = 10
     Max number of k-points (npk) =  40000
     Max angular momentum in pseudopotentials (lmaxx) =  4

     IMPORTANT: XC functional enforced from input :
     Exchange-correlation= PBE
                           (   1   4   3   4   0   0   0)
     Any further DFT definition will be discarded
     Please, verify this is what you really want


     gamma-point specific algorithms are used
 
     K-points division:     npool     =       2
     R & G space division:  proc/nbgrp/npool/nimage =       2
     Subspace diagonalization in iterative solution of the eigenvalue problem:
     a serial algorithm will be used

     Message from routine divide_et_impera:
     suboptimal parallelization: some nodes have no k-points
 
     Parallelization info
     --------------------
     sticks:   dense  smooth     PW     G-vecs:    dense   smooth      PW
     Min        2027    2027    538                97116    97116   13178
     Max        2028    2028    539                97117    97117   13179
     Sum        4055    4055   1077               194233   194233   26357
 
     Using Slab Decomposition
 


     bravais-lattice index     =            0
     lattice parameter (alat)  =      20.8505  a.u.
     unit-cell volume          =    8750.4796 (a.u.)^3
     number of atoms/cell      =           64
     number of atomic types    =            1
     number of electrons       =       256.00
     number of Kohn-Sham states=          154
     kinetic-energy cutoff     =      30.0000  Ry
     charge density cutoff     =     120.0000  Ry
     scf convergence threshold =      1.0E-06
     mixing beta               =       0.5000
     number of iterations used =            8  plain     mixing
     Exchange-correlation= PBE
                           (   1   4   3   4   0   0   0)

     GPU acceleration is ACTIVE.
     GPU-aware MPI enabled

     Message from routine print_cuda_info:
     High GPU oversubscription detected. Are you sure this is what you want?

     celldm(1)=  20.850543  celldm(2)=   0.000000  celldm(3)=   0.000000
     celldm(4)=   0.000000  celldm(5)=   0.000000  celldm(6)=   0.000000

     crystal axes: (cart. coord. in units of alat)
               a(1) = (   1.000000   0.000000   0.000000 )  
               a(2) = (   0.000000   0.977398   0.000000 )  
               a(3) = (   0.000000   0.000000   0.987662 )  

     reciprocal axes: (cart. coord. in units 2 pi/alat)
               b(1) = (  1.000000  0.000000  0.000000 )  
               b(2) = (  0.000000  1.023125  0.000000 )  
               b(3) = (  0.000000  0.000000  1.012492 )  


     PseudoPot. # 1 for Si read from file:
     /home/ppiaggi/pseudos/Si_ONCV_PBE_sr.upf
     MD5 check sum: 8553c464762ac42b85b1eed164b4d029
     Pseudo is Norm-conserving, Zval =  4.0
     Generated using ONCVPSP code by D. R. Hamann
     Using radial grid of 1510 points,  4 beta functions with: 
                l(1) =   0
                l(2) =   0
                l(3) =   1
                l(4) =   1

     atomic species   valence    mass     pseudopotential
        Si             4.00    28.08500     Si( 1.00)

     No symmetry found



   Cartesian axes

     site n.     atom                  positions (alat units)
         1           Si  tau(   1) = (   0.0040521  -0.0015023   0.0006659  )
         2           Si  tau(   2) = (   0.0016837   0.2491890   0.2410808  )
         3           Si  tau(   3) = (   0.2478265   0.0034832   0.2431462  )
         4           Si  tau(   4) = (   0.2514311   0.2490890   0.0042086  )
         5           Si  tau(   5) = (   0.1244293   0.1234662   0.1208868  )
         6           Si  tau(   6) = (   0.4938043   0.0002194  -0.0038459  )
         7           Si  tau(   7) = (   0.4986469   0.2514595   0.2405662  )
         8           Si  tau(   8) = (   0.6168664   0.1210815   0.1244876  )
         9           Si  tau(   9) = (   0.7423147  -0.0023401   0.2477571  )
        10           Si  tau(  10) = (   0.7424480   0.2450616  -0.0030329  )
        11           Si  tau(  11) = (  -0.0011067   0.4965698  -0.0019100  )
        12           Si  tau(  12) = (   0.2516818   0.4918547   0.2478326  )
        13           Si  tau(  13) = (   0.1258883   0.6197066   0.1258280  )
        14           Si  tau(  14) = (   0.3761138   0.3713135   0.1208898  )
        15           Si  tau(  15) = (   0.4967837   0.4909937  -0.0039318  )
        16           Si  tau(  16) = (   0.6153515   0.6207040   0.1211681  )
        17           Si  tau(  17) = (   0.8705166   0.3686693   0.1185168  )
        18           Si  tau(  18) = (   0.7440710   0.4928443   0.2468697  )
        19           Si  tau(  19) = (  -0.0026321   0.7459248   0.2460482  )
        20           Si  tau(  20) = (   0.2498566   0.7416414   0.0030469  )
        21           Si  tau(  21) = (   0.3737780   0.8703604   0.1187678  )
        22           Si  tau(  22) = (   0.4930928   0.7437595   0.2402981  )
        23           Si  tau(  23) = (   0.7475713   0.7454347   0.0013789  )
        24           Si  tau(  24) = (   0.8646625   0.8707416   0.1260701  )
        25           Si  tau(  25) = (   0.0013723   0.0012740   0.4878844  )
        26           Si  tau(  26) = (   0.2497530   0.2447304   0.4846450  )
        27           Si  tau(  27) = (   0.1217626   0.1236058   0.6129790  )
        28           Si  tau(  28) = (   0.3762015   0.1261461   0.3679723  )
        29           Si  tau(  29) = (   0.4956747   0.0037765   0.4873260  )
        30           Si  tau(  30) = (   0.6212595   0.1221901   0.6134300  )
        31           Si  tau(  31) = (   0.8696635   0.1217843   0.3681885  )
        32           Si  tau(  32) = (   0.7468962   0.2496921   0.4836372  )
        33           Si  tau(  33) = (   0.1239146   0.3680130   0.3614604  )
        34           Si  tau(  34) = (  -0.0016041   0.4911706   0.4849487  )
        35           Si  tau(  35) = (   0.1267981   0.6195871   0.6124585  )
        36           Si  tau(  36) = (   0.6234026   0.3729862   0.3653929  )
        37           Si  tau(  37) = (   0.3738309   0.6201045   0.3623654  )
        38           Si  tau(  38) = (   0.3750556   0.3675320   0.6087857  )
        39           Si  tau(  39) = (   0.4936055   0.4921238   0.4830944  )
        40           Si  tau(  40) = (   0.6192416   0.6151798   0.6127796  )
        41           Si  tau(  41) = (   0.8662848   0.6167630   0.3662106  )
        42           Si  tau(  42) = (   0.8658926   0.3711614   0.6076730  )
        43           Si  tau(  43) = (   0.1259156   0.8681560   0.3626444  )
        44           Si  tau(  44) = (   0.2472914   0.7452488   0.4855750  )
        45           Si  tau(  45) = (   0.6182789   0.8681215   0.3696390  )
        46           Si  tau(  46) = (   0.3747501   0.8627912   0.6089852  )
        47           Si  tau(  47) = (   0.7480523   0.7473486   0.4883631  )
        48           Si  tau(  48) = (   0.8664390   0.8655414   0.6131109  )
        49           Si  tau(  49) = (  -0.0012101   0.2459515   0.7298144  )
        50           Si  tau(  50) = (   0.2486676  -0.0037006   0.7265958  )
        51           Si  tau(  51) = (   0.3742520   0.1223854   0.8490284  )
        52           Si  tau(  52) = (   0.4977962   0.2461041   0.7270767  )
        53           Si  tau(  53) = (   0.7419850   0.0002192   0.7341240  )
        54           Si  tau(  54) = (   0.8698690   0.1263065   0.8544152  )
        55           Si  tau(  55) = (   0.1209404   0.3747420   0.8546245  )
        56           Si  tau(  56) = (   0.2459669   0.4970669   0.7333713  )
        57           Si  tau(  57) = (   0.6172171   0.3736223   0.8537785  )
        58           Si  tau(  58) = (   0.3747560   0.6150645   0.8492338  )
        59           Si  tau(  59) = (   0.7441053   0.4908816   0.7297741  )
        60           Si  tau(  60) = (   0.8672437   0.6232986   0.8525122  )
        61           Si  tau(  61) = (   0.0030661   0.7453847   0.7309411  )
        62           Si  tau(  62) = (   0.1265270   0.8704502   0.8506174  )
        63           Si  tau(  63) = (   0.4943905   0.7397890   0.7281720  )
        64           Si  tau(  64) = (   0.6157138   0.8646952   0.8499231  )

     number of k points=     1  Fermi-Dirac smearing, width (Ry)=  0.0100
                       cart. coord. in units 2pi/alat
        k(    1) = (   0.0000000   0.0000000   0.0000000), wk =   2.0000000

     Dense  grid:    97117 G-vectors     FFT dimensions: (  75,  72,  72)

     Estimated max dynamical RAM per process >     155.30 MB

     Estimated total dynamical RAM >     597.50 MB

     Initial potential from superposition of free atoms

     starting charge     255.9608, renormalised to     256.0000
     Starting wfcs are  256 randomized atomic wfcs

     total cpu time spent up to now is        4.2 secs

     Self-consistent Calculation

     iteration #  1     ecut=    30.00 Ry     beta= 0.50
     Davidson diagonalization with overlap
     ethr =  1.00E-02,  avg # of iterations =  3.0

     Threshold (ethr) on eigenvalues was too large:
     Diagonalizing with lowered threshold

     Davidson diagonalization with overlap
     ethr =  6.70E-04,  avg # of iterations =  4.0

     total cpu time spent up to now is        4.4 secs

     total energy              =    -503.79212894 Ry
     estimated scf accuracy    <       1.89716059 Ry

     iteration #  2     ecut=    30.00 Ry     beta= 0.50
     Davidson diagonalization with overlap
     ethr =  7.41E-04,  avg # of iterations =  1.0

     total cpu time spent up to now is        4.5 secs

     total energy              =    -503.77737220 Ry
     estimated scf accuracy    <       0.34794366 Ry

     iteration #  3     ecut=    30.00 Ry     beta= 0.50
     Davidson diagonalization with overlap
     ethr =  1.36E-04,  avg # of iterations =  4.0

     total cpu time spent up to now is        4.6 secs

     total energy              =    -503.79583565 Ry
     estimated scf accuracy    <       0.04036033 Ry

     iteration #  4     ecut=    30.00 Ry     beta= 0.50
     Davidson diagonalization with overlap
     c_bands:  3 eigenvalues not converged
     ethr =  1.58E-05,  avg # of iterations = 20.0

     total cpu time spent up to now is        4.8 secs

     total energy              =    -503.80432748 Ry
     estimated scf accuracy    <       0.00942935 Ry

     iteration #  5     ecut=    30.00 Ry     beta= 0.50
     Davidson diagonalization with overlap
     c_bands:  1 eigenvalues not converged
     ethr =  3.68E-06,  avg # of iterations = 20.0

     total cpu time spent up to now is        5.0 secs

     total energy              =    -503.80591283 Ry
     estimated scf accuracy    <       0.00194394 Ry

     iteration #  6     ecut=    30.00 Ry     beta= 0.50
     Davidson diagonalization with overlap
     ethr =  7.59E-07,  avg # of iterations =  3.0

     total cpu time spent up to now is        5.1 secs

     total energy              =    -503.80611373 Ry
     estimated scf accuracy    <       0.00056569 Ry

     iteration #  7     ecut=    30.00 Ry     beta= 0.50
     Davidson diagonalization with overlap
     ethr =  2.21E-07,  avg # of iterations =  4.0

     total cpu time spent up to now is        5.2 secs

     total energy              =    -503.80617636 Ry
     estimated scf accuracy    <       0.00007655 Ry

     iteration #  8     ecut=    30.00 Ry     beta= 0.50
     Davidson diagonalization with overlap
     ethr =  2.99E-08,  avg # of iterations =  4.0

     total cpu time spent up to now is        5.3 secs

     total energy              =    -503.80619667 Ry
     estimated scf accuracy    <       0.00002134 Ry

     iteration #  9     ecut=    30.00 Ry     beta= 0.50
     Davidson diagonalization with overlap
     ethr =  8.33E-09,  avg # of iterations =  3.0

     total cpu time spent up to now is        5.4 secs

     total energy              =    -503.80619830 Ry
     estimated scf accuracy    <       0.00000269 Ry

     iteration # 10     ecut=    30.00 Ry     beta= 0.50
     Davidson diagonalization with overlap
     ethr =  1.05E-09,  avg # of iterations =  5.0

     total cpu time spent up to now is        5.5 secs

     End of self-consistent calculation

          k = 0.0000 0.0000 0.0000 ( 12121 PWs)   bands (ev):

    -5.8192  -4.8456  -4.8103  -4.7812  -4.7288  -4.6268  -4.5864  -3.9978
    -3.9348  -3.9154  -3.8526  -3.8316  -3.7722  -3.7388  -3.7144  -3.6839
    -3.6379  -3.6081  -3.5447  -3.5181  -3.4223  -3.3587  -3.2041  -1.8964
    -1.8731  -1.7583  -1.7011  -1.6602  -1.6361  -1.6153  -1.5911  -1.5290
    -1.5235  -1.4979  -1.4444  -1.4415  -1.4102  -1.4019  -1.3801  -1.3596
    -1.2467  -0.8940  -0.8469  -0.7767  -0.6592   0.5175   0.5625   0.5798
     0.6121   0.6223   0.6450   0.6810   0.6860   0.7010   0.7123   0.7465
     0.8036   2.1006   2.1039   2.1649   2.1756   2.2066   2.2154   2.2417
     2.2488   2.2663   2.2906   2.3119   2.3363   2.3557   2.3842   2.3921
     2.4202   2.4301   2.4619   2.4655   2.4779   2.5104   2.5203   2.5301
     2.5950   2.6279   2.6499   2.6997   2.7452   2.8051   2.8258   3.1427
     3.2414   3.2773   3.2871   3.3933   3.4355   4.0036   4.1012   4.1506
     4.1709   4.2815   4.3046   4.3058   4.3228   4.3416   4.3485   4.3724
     4.4102   4.4430   4.6459   4.6808   4.7263   4.7449   4.7711   4.7958
     4.8345   4.8471   4.8500   4.8735   4.9105   4.9263   4.9508   4.9954
     5.0091   5.0646   5.0981   5.2778   5.4320   6.0533   6.1462   6.2966
     6.5803   6.7040   6.7520   6.7969   6.9522   7.0071   7.1359   7.1908
     7.2202   7.3061   7.3353   7.3942   7.5073   7.5439   7.5714   7.5848
     8.2326   8.3835   8.4218   8.4361   8.4789   8.4971   8.5160   8.5602
     8.5847   8.5948

     the Fermi energy is     6.4095 ev

!    total energy              =    -503.80619892 Ry
     estimated scf accuracy    <       0.00000047 Ry
     smearing contrib. (-TS)   =      -0.05705024 Ry
     internal energy E=F+TS    =    -503.74914868 Ry

     The total energy is F=E-TS. E is the sum of the following terms:
     one-electron contribution =     147.07066262 Ry
     hartree contribution      =      37.15372758 Ry
     xc contribution           =    -153.93476273 Ry
     ewald contribution        =    -534.03877616 Ry

     convergence has been achieved in  10 iterations

     Forces acting on atoms (cartesian axes, Ry/au):

     atom    1 type  1   force =    -0.03683599    0.03427528   -0.03033215
     atom    2 type  1   force =    -0.03588090   -0.02400471   -0.00156244
     atom    3 type  1   force =     0.02385167    0.03724075   -0.00108558
     atom    4 type  1   force =    -0.01249583   -0.00940691   -0.06376400
     atom    5 type  1   force =     0.00115177    0.01533013   -0.00182361
     atom    6 type  1   force =     0.02576552    0.04313072   -0.04029101
     atom    7 type  1   force =     0.00407516   -0.01325358    0.02335499
     atom    8 type  1   force =     0.01595607    0.00504700   -0.02311063
     atom    9 type  1   force =    -0.00529061    0.06531198    0.00506302
     atom   10 type  1   force =    -0.00085749    0.00487574   -0.01476336
     atom   11 type  1   force =    -0.01693017    0.00904763   -0.01828043
     atom   12 type  1   force =    -0.00663014    0.00891057   -0.02349889
     atom   13 type  1   force =    -0.01469901   -0.00821715   -0.00600778
     atom   14 type  1   force =    -0.01517611    0.01149814    0.00161304
     atom   15 type  1   force =    -0.00052927    0.02610943   -0.02116252
     atom   16 type  1   force =     0.02887727   -0.01558461   -0.00897830
     atom   17 type  1   force =     0.00171952    0.01427038    0.00132554
     atom   18 type  1   force =     0.00757168    0.01394227   -0.03989324
     atom   19 type  1   force =    -0.01679619   -0.02014556   -0.00710332
     atom   20 type  1   force =     0.00189709   -0.00293414   -0.05405060
     atom   21 type  1   force =    -0.02546092   -0.04697396    0.01278553
     atom   22 type  1   force =     0.01560813    0.01169420    0.01272260
     atom   23 type  1   force =    -0.02453534   -0.01044451   -0.03652333
     atom   24 type  1   force =     0.05343333   -0.04774215   -0.03099286
     atom   25 type  1   force =    -0.02916132    0.02011269    0.01609451
     atom   26 type  1   force =    -0.01746330    0.00855346    0.02499475
     atom   27 type  1   force =     0.01678536    0.00290270   -0.02502511
     atom   28 type  1   force =    -0.01114578    0.00569468   -0.03476837
     atom   29 type  1   force =     0.00476307    0.02687019    0.02610115
     atom   30 type  1   force =     0.01302629    0.01765315   -0.03539240
     atom   31 type  1   force =     0.02491582    0.01630918   -0.02191741
     atom   32 type  1   force =    -0.01399625   -0.02345925    0.02419606
     atom   33 type  1   force =     0.00424905    0.00771510    0.02125770
     atom   34 type  1   force =    -0.00328823    0.01554710    0.01579052
     atom   35 type  1   force =    -0.02266812   -0.00196412   -0.03201810
     atom   36 type  1   force =    -0.01870858   -0.01199010   -0.00282640
     atom   37 type  1   force =    -0.01383448    0.00183361    0.01443071
     atom   38 type  1   force =    -0.03259377    0.02145769   -0.00552823
     atom   39 type  1   force =     0.01623946    0.01331952    0.02080826
     atom   40 type  1   force =     0.00736540    0.00784999   -0.03743764
     atom   41 type  1   force =     0.03112761    0.01614738    0.00115656
     atom   42 type  1   force =     0.03914161   -0.00660539   -0.00020305
     atom   43 type  1   force =    -0.01752111   -0.03522589    0.01275983
     atom   44 type  1   force =     0.00787846   -0.02258823    0.00294697
     atom   45 type  1   force =    -0.00361054   -0.06129658   -0.01515462
     atom   46 type  1   force =    -0.00767383   -0.02432996   -0.02142907
     atom   47 type  1   force =    -0.02546679   -0.03977345    0.00882394
     atom   48 type  1   force =     0.04602117   -0.01595004   -0.01202501
     atom   49 type  1   force =    -0.02183786    0.02308319    0.01775764
     atom   50 type  1   force =     0.01333646    0.06036391    0.01130420
     atom   51 type  1   force =    -0.01852132    0.01372695    0.03717083
     atom   52 type  1   force =     0.00275509    0.00715525    0.03047076
     atom   53 type  1   force =     0.02082646    0.03757302    0.01013102
     atom   54 type  1   force =     0.01333104   -0.01313439    0.02797436
     atom   55 type  1   force =     0.00564301   -0.01729322    0.03067632
     atom   56 type  1   force =     0.01791420   -0.03043404   -0.00902642
     atom   57 type  1   force =     0.01471093   -0.02621377    0.01796530
     atom   58 type  1   force =    -0.01296611    0.01355783    0.05826989
     atom   59 type  1   force =     0.00521984    0.02096076    0.02495577
     atom   60 type  1   force =     0.02437665   -0.01131336    0.02454061
     atom   61 type  1   force =    -0.03042350   -0.00988063    0.01048548
     atom   62 type  1   force =    -0.01373533   -0.06217466    0.05907091
     atom   63 type  1   force =     0.01227555   -0.00840224    0.01538822
     atom   64 type  1   force =     0.00492442   -0.03833499    0.05358892

     Total force =     0.334245     Total SCF correction =     0.001251


     Computing stress (Cartesian axis) and pressure

          total   stress  (Ry/bohr**3)                   (kbar)     P=       21.19
   0.00009610   0.00001119  -0.00006748           14.14        1.65       -9.93
   0.00001119   0.00018360   0.00002428            1.65       27.01        3.57
  -0.00006748   0.00002428   0.00015239           -9.93        3.57       22.42

 
     init_run     :      1.10s CPU      4.17s WALL (       1 calls)
     electrons    :      1.23s CPU      1.32s WALL (       1 calls)
     forces       :      0.03s CPU      0.04s WALL (       1 calls)
     stress       :      0.15s CPU      0.15s WALL (       1 calls)

     Called by init_run:
     wfcinit      :      0.45s CPU      3.38s WALL (       1 calls)
                                        3.38s GPU  (       1 calls)
     potinit      :      0.15s CPU      0.22s WALL (       1 calls)
     hinit0       :      0.48s CPU      0.50s WALL (       1 calls)

     Called by electrons:
     c_bands      :      0.88s CPU      0.94s WALL (      11 calls)
     sum_band     :      0.19s CPU      0.21s WALL (      11 calls)
     v_of_rho     :      0.08s CPU      0.16s WALL (      11 calls)
     mix_rho      :      0.06s CPU      0.07s WALL (      11 calls)

     Called by c_bands:
     init_us_2    :      0.03s CPU      0.03s WALL (      23 calls)
     init_us_2:gp :      0.03s CPU      0.03s WALL (      23 calls)
     regterg      :      0.79s CPU      0.85s WALL (      11 calls)

     Called by *egterg:
     rdiaghg      :      0.38s CPU      1.00s WALL (      81 calls)
                                        0.98s GPU  (      81 calls)
     h_psi        :      0.72s CPU      3.08s WALL (      83 calls)
                                        3.08s GPU  (      83 calls)
     g_psi        :      0.00s CPU      0.00s WALL (      71 calls)
                                        0.00s GPU  (      71 calls)

     Called by h_psi:
     h_psi:calbec :      0.40s CPU      2.70s WALL (      83 calls)
                                        2.70s GPU  (      83 calls)
     vloc_psi     :      0.28s CPU      0.33s WALL (      83 calls)
                                        0.33s GPU  (      83 calls)
     add_vuspsi   :      0.03s CPU      0.04s WALL (      83 calls)
                                        0.04s GPU  (      83 calls)

     General routines
     calbec       :      0.40s CPU      2.70s WALL (      88 calls)
     fft          :      0.50s CPU      0.60s WALL (      95 calls)
                                        0.10s GPU  (      61 calls)
     ffts         :      0.02s CPU      0.02s WALL (      11 calls)
     fftw         :      0.32s CPU      0.43s WALL (    1231 calls)
                                        0.39s GPU  (    1231 calls)
 
     Parallel routines
 
     PWSCF        :      2.54s CPU      5.74s WALL

 
   This run was terminated on:  11:15:12  10May2023            

=------------------------------------------------------------------------------=
   JOB DONE.
=------------------------------------------------------------------------------=
