An instance of this daemon is already running

     Program PWSCF v.7.1 starts on 10May2023 at 11:13:35 

     This program is part of the open-source Quantum ESPRESSO suite
     for quantum simulation of materials; please cite
         "P. Giannozzi et al., J. Phys.:Condens. Matter 21 395502 (2009);
         "P. Giannozzi et al., J. Phys.:Condens. Matter 29 465901 (2017);
         "P. Giannozzi et al., J. Chem. Phys. 152 154105 (2020);
          URL http://www.quantum-espresso.org", 
     in publications or presentations arising from this work. More details at
     http://www.quantum-espresso.org/quote

     Parallel version (MPI & OpenMP), running on       4 processor cores
     Number of MPI processes:                 4
     Threads/MPI process:                     1

     MPI processes distributed on     1 nodes
     150147 MiB available memory on the printing compute node when the environment starts
 
     Reading input from pw-si-25.in
Warning: card &CELL ignored
Warning: card / ignored

     Current dimensions of program PWSCF are:
     Max number of different atomic species (ntypx) = 10
     Max number of k-points (npk) =  40000
     Max angular momentum in pseudopotentials (lmaxx) =  4

     IMPORTANT: XC functional enforced from input :
     Exchange-correlation= PBE
                           (   1   4   3   4   0   0   0)
     Any further DFT definition will be discarded
     Please, verify this is what you really want


     gamma-point specific algorithms are used
 
     K-points division:     npool     =       2
     R & G space division:  proc/nbgrp/npool/nimage =       2
     Subspace diagonalization in iterative solution of the eigenvalue problem:
     a serial algorithm will be used

     Message from routine divide_et_impera:
     suboptimal parallelization: some nodes have no k-points
 
     Parallelization info
     --------------------
     sticks:   dense  smooth     PW     G-vecs:    dense   smooth      PW
     Min        2015    2015    536                95517    95517   12957
     Max        2016    2016    537                95524    95524   12960
     Sum        4031    4031   1073               191041   191041   25917
 
     Using Slab Decomposition
 


     bravais-lattice index     =            0
     lattice parameter (alat)  =      20.7049  a.u.
     unit-cell volume          =    8604.6670 (a.u.)^3
     number of atoms/cell      =           64
     number of atomic types    =            1
     number of electrons       =       256.00
     number of Kohn-Sham states=          154
     kinetic-energy cutoff     =      30.0000  Ry
     charge density cutoff     =     120.0000  Ry
     scf convergence threshold =      1.0E-06
     mixing beta               =       0.5000
     number of iterations used =            8  plain     mixing
     Exchange-correlation= PBE
                           (   1   4   3   4   0   0   0)

     GPU acceleration is ACTIVE.
     GPU-aware MPI enabled

     Message from routine print_cuda_info:
     High GPU oversubscription detected. Are you sure this is what you want?

     celldm(1)=  20.704888  celldm(2)=   0.000000  celldm(3)=   0.000000
     celldm(4)=   0.000000  celldm(5)=   0.000000  celldm(6)=   0.000000

     crystal axes: (cart. coord. in units of alat)
               a(1) = (   1.000000   0.000000   0.000000 )  
               a(2) = (   0.000000   0.986450   0.000000 )  
               a(3) = (   0.000000   0.000000   0.982743 )  

     reciprocal axes: (cart. coord. in units 2 pi/alat)
               b(1) = (  1.000000  0.000000  0.000000 )  
               b(2) = (  0.000000  1.013736  0.000000 )  
               b(3) = (  0.000000  0.000000  1.017560 )  


     PseudoPot. # 1 for Si read from file:
     /home/ppiaggi/pseudos/Si_ONCV_PBE_sr.upf
     MD5 check sum: 8553c464762ac42b85b1eed164b4d029
     Pseudo is Norm-conserving, Zval =  4.0
     Generated using ONCVPSP code by D. R. Hamann
     Using radial grid of 1510 points,  4 beta functions with: 
                l(1) =   0
                l(2) =   0
                l(3) =   1
                l(4) =   1

     atomic species   valence    mass     pseudopotential
        Si             4.00    28.08500     Si( 1.00)

     No symmetry found



   Cartesian axes

     site n.     atom                  positions (alat units)
         1           Si  tau(   1) = (  -0.0027067   0.0000992   0.0021579  )
         2           Si  tau(   2) = (   0.0023252   0.2452576   0.2394238  )
         3           Si  tau(   3) = (   0.2536470  -0.0008795   0.2398461  )
         4           Si  tau(   4) = (   0.2483324   0.2475865   0.0019436  )
         5           Si  tau(   5) = (   0.1261034   0.1241336   0.1250809  )
         6           Si  tau(   6) = (   0.5085974  -0.0019872   0.0021576  )
         7           Si  tau(   7) = (   0.5036057   0.2429192   0.2426763  )
         8           Si  tau(   8) = (   0.6304276   0.1252942   0.1198151  )
         9           Si  tau(   9) = (   0.7539584  -0.0033810   0.2398535  )
        10           Si  tau(  10) = (   0.7584828   0.2390449  -0.0007189  )
        11           Si  tau(  11) = (  -0.0025194   0.4873747   0.0005587  )
        12           Si  tau(  12) = (   0.2496431   0.4832111   0.2398377  )
        13           Si  tau(  13) = (   0.1259329   0.6075499   0.1188115  )
        14           Si  tau(  14) = (   0.3776244   0.3669569   0.1234373  )
        15           Si  tau(  15) = (   0.5019038   0.4891854   0.0006144  )
        16           Si  tau(  16) = (   0.6344715   0.6118962   0.1215880  )
        17           Si  tau(  17) = (   0.8858018   0.3691828   0.1211025  )
        18           Si  tau(  18) = (   0.7619246   0.4908806   0.2433606  )
        19           Si  tau(  19) = (  -0.0001325   0.7342400   0.2451054  )
        20           Si  tau(  20) = (   0.2533354   0.7265430   0.0029824  )
        21           Si  tau(  21) = (   0.3825776   0.8484755   0.1202743  )
        22           Si  tau(  22) = (   0.5054929   0.7282277   0.2398314  )
        23           Si  tau(  23) = (   0.7616935   0.7316973  -0.0041294  )
        24           Si  tau(  24) = (   0.8804125   0.8495804   0.1250820  )
        25           Si  tau(  25) = (   0.0021466  -0.0043264   0.4901443  )
        26           Si  tau(  26) = (   0.2503559   0.2447308   0.4862752  )
        27           Si  tau(  27) = (   0.1219652   0.1247927   0.6108441  )
        28           Si  tau(  28) = (   0.3772536   0.1261530   0.3642260  )
        29           Si  tau(  29) = (   0.5016574   0.0000277   0.4908914  )
        30           Si  tau(  30) = (   0.6306232   0.1256097   0.6075128  )
        31           Si  tau(  31) = (   0.8806494   0.1217470   0.3618921  )
        32           Si  tau(  32) = (   0.7582390   0.2464738   0.4904287  )
        33           Si  tau(  33) = (   0.1226190   0.3650635   0.3670975  )
        34           Si  tau(  34) = (  -0.0030325   0.4878854   0.4856199  )
        35           Si  tau(  35) = (   0.1233842   0.6125317   0.6055666  )
        36           Si  tau(  36) = (   0.6329458   0.3624193   0.3631873  )
        37           Si  tau(  37) = (   0.3802776   0.6086958   0.3621426  )
        38           Si  tau(  38) = (   0.3765027   0.3655560   0.6059603  )
        39           Si  tau(  39) = (   0.5052936   0.4896768   0.4908136  )
        40           Si  tau(  40) = (   0.6335259   0.6049335   0.6084727  )
        41           Si  tau(  41) = (   0.8876724   0.6068002   0.3655650  )
        42           Si  tau(  42) = (   0.8812190   0.3667210   0.6094446  )
        43           Si  tau(  43) = (   0.1287104   0.8547789   0.3684157  )
        44           Si  tau(  44) = (   0.2503411   0.7343708   0.4891296  )
        45           Si  tau(  45) = (   0.6360615   0.8488108   0.3694559  )
        46           Si  tau(  46) = (   0.3814319   0.8527663   0.6093371  )
        47           Si  tau(  47) = (   0.7623784   0.7314816   0.4909936  )
        48           Si  tau(  48) = (   0.8858439   0.8486346   0.6109588  )
        49           Si  tau(  49) = (  -0.0030251   0.2400460   0.7299511  )
        50           Si  tau(  50) = (   0.2556044   0.0027826   0.7327802  )
        51           Si  tau(  51) = (   0.3825075   0.1252742   0.8476313  )
        52           Si  tau(  52) = (   0.5072527   0.2472994   0.7271587  )
        53           Si  tau(  53) = (   0.7591216   0.0005722   0.7337495  )
        54           Si  tau(  54) = (   0.8839421   0.1219322   0.8482926  )
        55           Si  tau(  55) = (   0.1253428   0.3633435   0.8554081  )
        56           Si  tau(  56) = (   0.2564079   0.4870581   0.7262217  )
        57           Si  tau(  57) = (   0.6322439   0.3646788   0.8552623  )
        58           Si  tau(  58) = (   0.3834979   0.6115305   0.8499350  )
        59           Si  tau(  59) = (   0.7576523   0.4895312   0.7315803  )
        60           Si  tau(  60) = (   0.8871212   0.6052159   0.8497044  )
        61           Si  tau(  61) = (  -0.0032364   0.7338584   0.7280263  )
        62           Si  tau(  62) = (   0.1224187   0.8532424   0.8550804  )
        63           Si  tau(  63) = (   0.5024950   0.7344022   0.7268965  )
        64           Si  tau(  64) = (   0.6303018   0.8495007   0.8501327  )

     number of k points=     1  Fermi-Dirac smearing, width (Ry)=  0.0100
                       cart. coord. in units 2pi/alat
        k(    1) = (   0.0000000   0.0000000   0.0000000), wk =   2.0000000

     Dense  grid:    95521 G-vectors     FFT dimensions: (  75,  72,  72)

     Estimated max dynamical RAM per process >     153.00 MB

     Estimated total dynamical RAM >     588.66 MB

     Initial potential from superposition of free atoms

     starting charge     255.9608, renormalised to     256.0000
     Starting wfcs are  256 randomized atomic wfcs

     total cpu time spent up to now is        4.3 secs

     Self-consistent Calculation

     iteration #  1     ecut=    30.00 Ry     beta= 0.50
     Davidson diagonalization with overlap
     ethr =  1.00E-02,  avg # of iterations =  3.0

     Threshold (ethr) on eigenvalues was too large:
     Diagonalizing with lowered threshold

     Davidson diagonalization with overlap
     ethr =  6.89E-04,  avg # of iterations =  3.0

     total cpu time spent up to now is        4.5 secs

     total energy              =    -503.75824470 Ry
     estimated scf accuracy    <       1.95038938 Ry

     iteration #  2     ecut=    30.00 Ry     beta= 0.50
     Davidson diagonalization with overlap
     ethr =  7.62E-04,  avg # of iterations =  1.0

     total cpu time spent up to now is        4.6 secs

     total energy              =    -503.74498479 Ry
     estimated scf accuracy    <       0.35247604 Ry

     iteration #  3     ecut=    30.00 Ry     beta= 0.50
     Davidson diagonalization with overlap
     ethr =  1.38E-04,  avg # of iterations =  4.0

     total cpu time spent up to now is        4.7 secs

     total energy              =    -503.76345061 Ry
     estimated scf accuracy    <       0.04360364 Ry

     iteration #  4     ecut=    30.00 Ry     beta= 0.50
     Davidson diagonalization with overlap
     c_bands:  2 eigenvalues not converged
     ethr =  1.70E-05,  avg # of iterations = 20.0

     total cpu time spent up to now is        4.9 secs

     total energy              =    -503.77295309 Ry
     estimated scf accuracy    <       0.01100723 Ry

     iteration #  5     ecut=    30.00 Ry     beta= 0.50
     Davidson diagonalization with overlap
     ethr =  4.30E-06,  avg # of iterations = 17.0

     total cpu time spent up to now is        5.0 secs

     total energy              =    -503.77471801 Ry
     estimated scf accuracy    <       0.00164420 Ry

     iteration #  6     ecut=    30.00 Ry     beta= 0.50
     Davidson diagonalization with overlap
     ethr =  6.42E-07,  avg # of iterations =  9.0

     total cpu time spent up to now is        5.2 secs

     total energy              =    -503.77493153 Ry
     estimated scf accuracy    <       0.00041036 Ry

     iteration #  7     ecut=    30.00 Ry     beta= 0.50
     Davidson diagonalization with overlap
     ethr =  1.60E-07,  avg # of iterations =  4.0

     total cpu time spent up to now is        5.3 secs

     total energy              =    -503.77498313 Ry
     estimated scf accuracy    <       0.00007147 Ry

     iteration #  8     ecut=    30.00 Ry     beta= 0.50
     Davidson diagonalization with overlap
     ethr =  2.79E-08,  avg # of iterations =  5.0

     total cpu time spent up to now is        5.4 secs

     total energy              =    -503.77500012 Ry
     estimated scf accuracy    <       0.00001311 Ry

     iteration #  9     ecut=    30.00 Ry     beta= 0.50
     Davidson diagonalization with overlap
     ethr =  5.12E-09,  avg # of iterations =  3.0

     total cpu time spent up to now is        5.5 secs

     total energy              =    -503.77500140 Ry
     estimated scf accuracy    <       0.00000219 Ry

     iteration # 10     ecut=    30.00 Ry     beta= 0.50
     Davidson diagonalization with overlap
     ethr =  8.57E-10,  avg # of iterations =  5.0

     total cpu time spent up to now is        5.6 secs

     End of self-consistent calculation

          k = 0.0000 0.0000 0.0000 ( 11929 PWs)   bands (ev):

    -5.7618  -4.7891  -4.7527  -4.7289  -4.6002  -4.5545  -4.5229  -3.9345
    -3.8970  -3.8265  -3.7312  -3.7057  -3.6951  -3.6662  -3.6286  -3.5894
    -3.5320  -3.4957  -3.4698  -3.4193  -3.3500  -3.2416  -3.0713  -1.7429
    -1.7133  -1.6640  -1.6194  -1.5770  -1.5263  -1.4831  -1.4307  -1.4187
    -1.3959  -1.3870  -1.3668  -1.3539  -1.2583  -1.2545  -1.2395  -1.1914
    -1.1118  -0.8316  -0.7333  -0.6609  -0.5425   0.6668   0.6722   0.7040
     0.7514   0.7650   0.7994   0.8140   0.8178   0.8495   0.8898   0.8924
     0.9210   2.2360   2.2569   2.2697   2.2863   2.2914   2.3122   2.3421
     2.3724   2.3760   2.3902   2.4209   2.4409   2.4623   2.4694   2.4906
     2.5306   2.5348   2.5466   2.5935   2.6097   2.6475   2.6603   2.6920
     2.7129   2.8049   2.8196   2.8601   2.8723   2.8996   2.9413   3.3339
     3.3532   3.4066   3.4286   3.4872   3.5540   4.2204   4.2292   4.2597
     4.2897   4.3229   4.4230   4.4341   4.4660   4.5591   4.5698   4.5824
     4.6019   4.6808   4.7523   4.7973   4.8304   4.8474   4.8723   4.9137
     4.9425   4.9921   5.0154   5.0448   5.0709   5.0967   5.1181   5.1735
     5.2186   5.2371   5.3177   5.4319   5.5288   6.2031   6.2984   6.4926
     6.7519   6.8283   6.8932   6.9786   7.0679   7.1549   7.2766   7.3239
     7.4058   7.4526   7.4937   7.5590   7.7603   7.7839   7.8058   7.8213
     8.4998   8.5238   8.5755   8.5995   8.6014   8.6627   8.6754   8.7272
     8.7887   8.7935

     the Fermi energy is     6.5733 ev

!    total energy              =    -503.77500197 Ry
     estimated scf accuracy    <       0.00000023 Ry
     smearing contrib. (-TS)   =      -0.05904553 Ry
     internal energy E=F+TS    =    -503.71595644 Ry

     The total energy is F=E-TS. E is the sum of the following terms:
     one-electron contribution =     151.17089772 Ry
     hartree contribution      =      36.64929327 Ry
     xc contribution           =    -154.49403314 Ry
     ewald contribution        =    -537.04211429 Ry

     convergence has been achieved in  10 iterations

     Forces acting on atoms (cartesian axes, Ry/au):

     atom    1 type  1   force =     0.02396813   -0.02441104   -0.01354036
     atom    2 type  1   force =     0.00496837   -0.00245604    0.03144331
     atom    3 type  1   force =     0.00836637   -0.03105478    0.01535212
     atom    4 type  1   force =     0.02855938   -0.02148858   -0.02921033
     atom    5 type  1   force =     0.00911538   -0.02599387   -0.03159775
     atom    6 type  1   force =    -0.02123249   -0.02220580   -0.04516847
     atom    7 type  1   force =     0.00438826    0.01302727   -0.00109009
     atom    8 type  1   force =     0.00023514   -0.02919694    0.00867212
     atom    9 type  1   force =    -0.00507842   -0.01640159    0.01988528
     atom   10 type  1   force =     0.00972116    0.03039631   -0.02388059
     atom   11 type  1   force =     0.05224418    0.01019577   -0.04324150
     atom   12 type  1   force =    -0.00268821    0.02321414    0.03126310
     atom   13 type  1   force =    -0.00790929    0.00496432    0.01843225
     atom   14 type  1   force =     0.00694530   -0.01307077   -0.01913426
     atom   15 type  1   force =     0.02137625    0.00169881   -0.01914961
     atom   16 type  1   force =     0.00207774   -0.01414814   -0.02229846
     atom   17 type  1   force =    -0.05613794   -0.03117937   -0.00159454
     atom   18 type  1   force =    -0.02762609   -0.01429984    0.00106998
     atom   19 type  1   force =     0.05325560   -0.01427594    0.00432691
     atom   20 type  1   force =     0.00202605    0.02094439   -0.05184111
     atom   21 type  1   force =    -0.01275877    0.05079494   -0.00506391
     atom   22 type  1   force =     0.01621359    0.01673182    0.03126209
     atom   23 type  1   force =    -0.01634936   -0.01149526   -0.02217186
     atom   24 type  1   force =    -0.02096284    0.05463255   -0.02968341
     atom   25 type  1   force =     0.00483435   -0.00395600   -0.01347332
     atom   26 type  1   force =    -0.00829244   -0.00457790    0.00602136
     atom   27 type  1   force =     0.03676644   -0.02982644   -0.01080929
     atom   28 type  1   force =     0.00079797   -0.03584271    0.00314765
     atom   29 type  1   force =     0.01507286   -0.02201394   -0.02224718
     atom   30 type  1   force =     0.01108421   -0.02973109    0.00975006
     atom   31 type  1   force =    -0.01074533   -0.01499971    0.01167369
     atom   32 type  1   force =    -0.00565697   -0.01697597   -0.02701078
     atom   33 type  1   force =     0.01467034    0.00091046   -0.01284877
     atom   34 type  1   force =     0.05075680   -0.01321188    0.02769340
     atom   35 type  1   force =     0.01308640   -0.01701351    0.01529115
     atom   36 type  1   force =    -0.00436818    0.02487910    0.00767471
     atom   37 type  1   force =    -0.01961442   -0.00204278    0.01038528
     atom   38 type  1   force =     0.01771004   -0.00616931   -0.00080109
     atom   39 type  1   force =    -0.00426265   -0.01920168   -0.03551394
     atom   40 type  1   force =    -0.00565612    0.03770014    0.00733319
     atom   41 type  1   force =    -0.05024487    0.03526198   -0.01044208
     atom   42 type  1   force =    -0.01663441    0.00152685    0.00985716
     atom   43 type  1   force =    -0.00097938    0.03554514   -0.02321893
     atom   44 type  1   force =     0.02896703   -0.01356580   -0.01291064
     atom   45 type  1   force =    -0.03247526    0.04362685   -0.01712100
     atom   46 type  1   force =    -0.03228282    0.04839482   -0.00649928
     atom   47 type  1   force =    -0.01246051   -0.02536652   -0.01106318
     atom   48 type  1   force =    -0.05404019    0.08604301   -0.02015065
     atom   49 type  1   force =     0.04169347    0.04731619    0.00294362
     atom   50 type  1   force =    -0.02366013   -0.04021705   -0.00574138
     atom   51 type  1   force =    -0.00124416   -0.00656660    0.05877512
     atom   52 type  1   force =    -0.00830861    0.00684767    0.01072462
     atom   53 type  1   force =    -0.02780428   -0.04158670   -0.02592141
     atom   54 type  1   force =    -0.03253725   -0.02633209    0.06495302
     atom   55 type  1   force =     0.00133667    0.01496696   -0.00612392
     atom   56 type  1   force =    -0.03235467    0.01570565    0.02689329
     atom   57 type  1   force =    -0.00316576    0.00540910    0.01970008
     atom   58 type  1   force =    -0.02363091   -0.01115568    0.02497635
     atom   59 type  1   force =    -0.00965266   -0.02091283    0.01274153
     atom   60 type  1   force =    -0.03379484    0.02014893    0.02760034
     atom   61 type  1   force =     0.06930807   -0.03004719    0.04168940
     atom   62 type  1   force =     0.02781516    0.02876199    0.02125270
     atom   63 type  1   force =     0.03120858   -0.02369175    0.00736598
     atom   64 type  1   force =     0.01604091    0.04703795    0.03041219

     Total force =     0.355981     Total SCF correction =     0.000734


     Computing stress (Cartesian axis) and pressure

          total   stress  (Ry/bohr**3)                   (kbar)     P=       38.03
   0.00020978   0.00003166   0.00005491           30.86        4.66        8.08
   0.00003166   0.00027262  -0.00006614            4.66       40.10       -9.73
   0.00005491  -0.00006614   0.00029314            8.08       -9.73       43.12

 
     init_run     :      1.05s CPU      4.23s WALL (       1 calls)
     electrons    :      1.20s CPU      1.32s WALL (       1 calls)
     forces       :      0.04s CPU      0.08s WALL (       1 calls)
     stress       :      0.15s CPU      0.15s WALL (       1 calls)

     Called by init_run:
     wfcinit      :      0.41s CPU      3.45s WALL (       1 calls)
                                        3.45s GPU  (       1 calls)
     potinit      :      0.14s CPU      0.22s WALL (       1 calls)
     hinit0       :      0.48s CPU      0.50s WALL (       1 calls)

     Called by electrons:
     c_bands      :      0.86s CPU      0.93s WALL (      11 calls)
     sum_band     :      0.19s CPU      0.22s WALL (      11 calls)
     v_of_rho     :      0.08s CPU      0.16s WALL (      11 calls)
     mix_rho      :      0.06s CPU      0.08s WALL (      11 calls)

     Called by c_bands:
     init_us_2    :      0.03s CPU      0.03s WALL (      23 calls)
     init_us_2:gp :      0.03s CPU      0.03s WALL (      23 calls)
     regterg      :      0.78s CPU      0.84s WALL (      11 calls)

     Called by *egterg:
     rdiaghg      :      0.37s CPU      0.97s WALL (      84 calls)
                                        0.95s GPU  (      84 calls)
     h_psi        :      0.68s CPU      3.16s WALL (      86 calls)
                                        3.15s GPU  (      86 calls)
     g_psi        :      0.00s CPU      0.00s WALL (      74 calls)
                                        0.00s GPU  (      74 calls)

     Called by h_psi:
     h_psi:calbec :      0.37s CPU      2.77s WALL (      86 calls)
                                        2.77s GPU  (      86 calls)
     vloc_psi     :      0.28s CPU      0.34s WALL (      86 calls)
                                        0.33s GPU  (      86 calls)
     add_vuspsi   :      0.03s CPU      0.04s WALL (      86 calls)
                                        0.04s GPU  (      86 calls)

     General routines
     calbec       :      0.37s CPU      2.78s WALL (      91 calls)
     fft          :      0.51s CPU      0.61s WALL (      95 calls)
                                        0.11s GPU  (      61 calls)
     ffts         :      0.02s CPU      0.02s WALL (      11 calls)
     fftw         :      0.32s CPU      0.43s WALL (    1241 calls)
                                        0.38s GPU  (    1241 calls)
 
     Parallel routines
 
     PWSCF        :      2.47s CPU      5.86s WALL

 
   This run was terminated on:  11:13:41  10May2023            

=------------------------------------------------------------------------------=
   JOB DONE.
=------------------------------------------------------------------------------=
