An instance of this daemon is already running

     Program PWSCF v.7.1 starts on 10May2023 at 11:22:12 

     This program is part of the open-source Quantum ESPRESSO suite
     for quantum simulation of materials; please cite
         "P. Giannozzi et al., J. Phys.:Condens. Matter 21 395502 (2009);
         "P. Giannozzi et al., J. Phys.:Condens. Matter 29 465901 (2017);
         "P. Giannozzi et al., J. Chem. Phys. 152 154105 (2020);
          URL http://www.quantum-espresso.org", 
     in publications or presentations arising from this work. More details at
     http://www.quantum-espresso.org/quote

     Parallel version (MPI & OpenMP), running on       4 processor cores
     Number of MPI processes:                 4
     Threads/MPI process:                     1

     MPI processes distributed on     1 nodes
     150867 MiB available memory on the printing compute node when the environment starts
 
     Reading input from pw-si-87.in
Warning: card &CELL ignored
Warning: card / ignored

     Current dimensions of program PWSCF are:
     Max number of different atomic species (ntypx) = 10
     Max number of k-points (npk) =  40000
     Max angular momentum in pseudopotentials (lmaxx) =  4

     IMPORTANT: XC functional enforced from input :
     Exchange-correlation= PBE
                           (   1   4   3   4   0   0   0)
     Any further DFT definition will be discarded
     Please, verify this is what you really want


     gamma-point specific algorithms are used
 
     K-points division:     npool     =       2
     R & G space division:  proc/nbgrp/npool/nimage =       2
     Subspace diagonalization in iterative solution of the eigenvalue problem:
     a serial algorithm will be used

     Message from routine divide_et_impera:
     suboptimal parallelization: some nodes have no k-points
 
     Parallelization info
     --------------------
     sticks:   dense  smooth     PW     G-vecs:    dense   smooth      PW
     Min        2054    2054    543                99190    99190   13467
     Max        2057    2057    546                99193    99193   13470
     Sum        4111    4111   1089               198383   198383   26937
 
     Using Slab Decomposition
 


     bravais-lattice index     =            0
     lattice parameter (alat)  =      21.0755  a.u.
     unit-cell volume          =    8935.5414 (a.u.)^3
     number of atoms/cell      =           64
     number of atomic types    =            1
     number of electrons       =       256.00
     number of Kohn-Sham states=          154
     kinetic-energy cutoff     =      30.0000  Ry
     charge density cutoff     =     120.0000  Ry
     scf convergence threshold =      1.0E-06
     mixing beta               =       0.5000
     number of iterations used =            8  plain     mixing
     Exchange-correlation= PBE
                           (   1   4   3   4   0   0   0)

     GPU acceleration is ACTIVE.
     GPU-aware MPI enabled

     Message from routine print_cuda_info:
     High GPU oversubscription detected. Are you sure this is what you want?

     celldm(1)=  21.075497  celldm(2)=   0.000000  celldm(3)=   0.000000
     celldm(4)=   0.000000  celldm(5)=   0.000000  celldm(6)=   0.000000

     crystal axes: (cart. coord. in units of alat)
               a(1) = (   1.000000   0.000000   0.000000 )  
               a(2) = (   0.000000   0.969250   0.000000 )  
               a(3) = (   0.000000   0.000000   0.984808 )  

     reciprocal axes: (cart. coord. in units 2 pi/alat)
               b(1) = (  1.000000  0.000000  0.000000 )  
               b(2) = (  0.000000  1.031725  0.000000 )  
               b(3) = (  0.000000  0.000000  1.015426 )  


     PseudoPot. # 1 for Si read from file:
     /home/ppiaggi/pseudos/Si_ONCV_PBE_sr.upf
     MD5 check sum: 8553c464762ac42b85b1eed164b4d029
     Pseudo is Norm-conserving, Zval =  4.0
     Generated using ONCVPSP code by D. R. Hamann
     Using radial grid of 1510 points,  4 beta functions with: 
                l(1) =   0
                l(2) =   0
                l(3) =   1
                l(4) =   1

     atomic species   valence    mass     pseudopotential
        Si             4.00    28.08500     Si( 1.00)

     No symmetry found



   Cartesian axes

     site n.     atom                  positions (alat units)
         1           Si  tau(   1) = (   0.0000495   0.0032470  -0.0026465  )
         2           Si  tau(   2) = (  -0.0042114   0.2481855   0.2506888  )
         3           Si  tau(   3) = (   0.2516666  -0.0032835   0.2534395  )
         4           Si  tau(   4) = (   0.2553469   0.2449671   0.0018318  )
         5           Si  tau(   5) = (   0.1259688   0.1183572   0.1282908  )
         6           Si  tau(   6) = (   0.5046298   0.0009580  -0.0041410  )
         7           Si  tau(   7) = (   0.5065395   0.2458047   0.2497499  )
         8           Si  tau(   8) = (   0.6410872   0.1213376   0.1240507  )
         9           Si  tau(   9) = (   0.7601792  -0.0040946   0.2469128  )
        10           Si  tau(  10) = (   0.7593956   0.2454431  -0.0013258  )
        11           Si  tau(  11) = (   0.0044296   0.4864742   0.0013989  )
        12           Si  tau(  12) = (   0.2506659   0.4857504   0.2482184  )
        13           Si  tau(  13) = (   0.1234111   0.6057839   0.1242151  )
        14           Si  tau(  14) = (   0.3813618   0.3617791   0.1295087  )
        15           Si  tau(  15) = (   0.5135560   0.4884536  -0.0012482  )
        16           Si  tau(  16) = (   0.6351192   0.6104009   0.1238337  )
        17           Si  tau(  17) = (   0.8933803   0.3630150   0.1234168  )
        18           Si  tau(  18) = (   0.7676771   0.4836323   0.2457726  )
        19           Si  tau(  19) = (  -0.0045376   0.7343223   0.2494073  )
        20           Si  tau(  20) = (   0.2574622   0.7328624  -0.0041983  )
        21           Si  tau(  21) = (   0.3824470   0.8541877   0.1222173  )
        22           Si  tau(  22) = (   0.5131297   0.7316926   0.2462217  )
        23           Si  tau(  23) = (   0.7666843   0.7309066  -0.0019619  )
        24           Si  tau(  24) = (   0.8870728   0.8520010   0.1287511  )
        25           Si  tau(  25) = (  -0.0009798  -0.0033226   0.5007387  )
        26           Si  tau(  26) = (   0.2555035   0.2444602   0.4976089  )
        27           Si  tau(  27) = (   0.1270316   0.1229005   0.6242223  )
        28           Si  tau(  28) = (   0.3775220   0.1214614   0.3721345  )
        29           Si  tau(  29) = (   0.5084656  -0.0005939   0.4958958  )
        30           Si  tau(  30) = (   0.6331007   0.1205164   0.6275065  )
        31           Si  tau(  31) = (   0.8897437   0.1200536   0.3705641  )
        32           Si  tau(  32) = (   0.7619046   0.2400899   0.4967878  )
        33           Si  tau(  33) = (   0.1274265   0.3694129   0.3731020  )
        34           Si  tau(  34) = (  -0.0026232   0.4906810   0.4988304  )
        35           Si  tau(  35) = (   0.1274904   0.6103302   0.6218008  )
        36           Si  tau(  36) = (   0.6323409   0.3640210   0.3727462  )
        37           Si  tau(  37) = (   0.3775640   0.6093776   0.3768304  )
        38           Si  tau(  38) = (   0.3773437   0.3640717   0.6235260  )
        39           Si  tau(  39) = (   0.5090134   0.4875669   0.5028718  )
        40           Si  tau(  40) = (   0.6357113   0.6133355   0.6217579  )
        41           Si  tau(  41) = (   0.8951434   0.6062630   0.3752723  )
        42           Si  tau(  42) = (   0.8878050   0.3681629   0.6260567  )
        43           Si  tau(  43) = (   0.1283410   0.8518597   0.3704954  )
        44           Si  tau(  44) = (   0.2576549   0.7356289   0.4964650  )
        45           Si  tau(  45) = (   0.6373549   0.8572366   0.3794765  )
        46           Si  tau(  46) = (   0.3824649   0.8553170   0.6247650  )
        47           Si  tau(  47) = (   0.7627514   0.7287777   0.5030622  )
        48           Si  tau(  48) = (   0.8948653   0.8502925   0.6214721  )
        49           Si  tau(  49) = (  -0.0019945   0.2458945   0.7470102  )
        50           Si  tau(  50) = (   0.2573178  -0.0041834   0.7516735  )
        51           Si  tau(  51) = (   0.3821420   0.1188112   0.8787926  )
        52           Si  tau(  52) = (   0.5075763   0.2399229   0.7459832  )
        53           Si  tau(  53) = (   0.7668150  -0.0021753   0.7459851  )
        54           Si  tau(  54) = (   0.8886154   0.1203358   0.8710764  )
        55           Si  tau(  55) = (   0.1275744   0.3697274   0.8715804  )
        56           Si  tau(  56) = (   0.2552014   0.4850986   0.7524614  )
        57           Si  tau(  57) = (   0.6381292   0.3671189   0.8739485  )
        58           Si  tau(  58) = (   0.3776876   0.6101248   0.8738830  )
        59           Si  tau(  59) = (   0.7592601   0.4868922   0.7542260  )
        60           Si  tau(  60) = (   0.8948700   0.6063984   0.8793422  )
        61           Si  tau(  61) = (   0.0006212   0.7353069   0.7540468  )
        62           Si  tau(  62) = (   0.1282413   0.8557371   0.8749624  )
        63           Si  tau(  63) = (   0.5105910   0.7293125   0.7528164  )
        64           Si  tau(  64) = (   0.6361504   0.8518842   0.8761766  )

     number of k points=     1  Fermi-Dirac smearing, width (Ry)=  0.0100
                       cart. coord. in units 2pi/alat
        k(    1) = (   0.0000000   0.0000000   0.0000000), wk =   2.0000000

     Dense  grid:    99192 G-vectors     FFT dimensions: (  75,  72,  75)

     Estimated max dynamical RAM per process >     158.98 MB

     Estimated total dynamical RAM >     611.70 MB

     Initial potential from superposition of free atoms

     starting charge     255.9608, renormalised to     256.0000
     Starting wfcs are  256 randomized atomic wfcs

     total cpu time spent up to now is        4.3 secs

     Self-consistent Calculation

     iteration #  1     ecut=    30.00 Ry     beta= 0.50
     Davidson diagonalization with overlap
     ethr =  1.00E-02,  avg # of iterations =  3.0

     Threshold (ethr) on eigenvalues was too large:
     Diagonalizing with lowered threshold

     Davidson diagonalization with overlap
     ethr =  6.45E-04,  avg # of iterations =  4.0

     total cpu time spent up to now is        4.5 secs

     total energy              =    -503.70644432 Ry
     estimated scf accuracy    <       1.82882848 Ry

     iteration #  2     ecut=    30.00 Ry     beta= 0.50
     Davidson diagonalization with overlap
     ethr =  7.14E-04,  avg # of iterations =  1.0

     total cpu time spent up to now is        4.6 secs

     total energy              =    -503.69249931 Ry
     estimated scf accuracy    <       0.34045955 Ry

     iteration #  3     ecut=    30.00 Ry     beta= 0.50
     Davidson diagonalization with overlap
     ethr =  1.33E-04,  avg # of iterations =  5.0

     total cpu time spent up to now is        4.7 secs

     total energy              =    -503.70632504 Ry
     estimated scf accuracy    <       0.06577245 Ry

     iteration #  4     ecut=    30.00 Ry     beta= 0.50
     Davidson diagonalization with overlap
     c_bands:  2 eigenvalues not converged
     ethr =  2.57E-05,  avg # of iterations = 20.0

     total cpu time spent up to now is        4.9 secs

     total energy              =    -503.71897798 Ry
     estimated scf accuracy    <       0.01104644 Ry

     iteration #  5     ecut=    30.00 Ry     beta= 0.50
     Davidson diagonalization with overlap
     ethr =  4.32E-06,  avg # of iterations = 14.0

     total cpu time spent up to now is        5.1 secs

     total energy              =    -503.72073217 Ry
     estimated scf accuracy    <       0.00184070 Ry

     iteration #  6     ecut=    30.00 Ry     beta= 0.50
     Davidson diagonalization with overlap
     ethr =  7.19E-07,  avg # of iterations =  4.0

     total cpu time spent up to now is        5.2 secs

     total energy              =    -503.72097185 Ry
     estimated scf accuracy    <       0.00059119 Ry

     iteration #  7     ecut=    30.00 Ry     beta= 0.50
     Davidson diagonalization with overlap
     ethr =  2.31E-07,  avg # of iterations =  4.0

     total cpu time spent up to now is        5.3 secs

     total energy              =    -503.72103595 Ry
     estimated scf accuracy    <       0.00013084 Ry

     iteration #  8     ecut=    30.00 Ry     beta= 0.50
     Davidson diagonalization with overlap
     ethr =  5.11E-08,  avg # of iterations =  4.0

     total cpu time spent up to now is        5.4 secs

     total energy              =    -503.72106340 Ry
     estimated scf accuracy    <       0.00001434 Ry

     iteration #  9     ecut=    30.00 Ry     beta= 0.50
     Davidson diagonalization with overlap
     ethr =  5.60E-09,  avg # of iterations =  4.0

     total cpu time spent up to now is        5.5 secs

     total energy              =    -503.72106552 Ry
     estimated scf accuracy    <       0.00000268 Ry

     iteration # 10     ecut=    30.00 Ry     beta= 0.50
     Davidson diagonalization with overlap
     ethr =  1.05E-09,  avg # of iterations =  5.0

     total cpu time spent up to now is        5.6 secs

     End of self-consistent calculation

          k = 0.0000 0.0000 0.0000 ( 12398 PWs)   bands (ev):

    -5.9306  -4.9879  -4.9567  -4.8975  -4.7825  -4.7532  -4.7388  -4.2094
    -4.1147  -4.0620  -3.9810  -3.9444  -3.9304  -3.8587  -3.8484  -3.8191
    -3.6901  -3.6453  -3.6195  -3.5643  -3.5204  -3.4725  -3.4031  -2.1529
    -2.0707  -1.9998  -1.8981  -1.8480  -1.8093  -1.7594  -1.7080  -1.6766
    -1.6704  -1.6182  -1.5826  -1.5651  -1.5449  -1.5240  -1.4975  -1.4745
    -1.4578  -1.0429  -0.9703  -0.9195  -0.7322   0.2638   0.3688   0.3740
     0.4231   0.4452   0.4734   0.4823   0.5088   0.5217   0.5429   0.5925
     0.6158   1.8627   1.9003   1.9204   1.9528   1.9907   2.0126   2.1004
     2.1155   2.1372   2.1496   2.1861   2.2085   2.2261   2.2396   2.2604
     2.2790   2.3180   2.3233   2.3649   2.3734   2.3922   2.4150   2.4487
     2.4655   2.4934   2.5189   2.5446   2.5596   2.6038   2.6828   3.0116
     3.0259   3.0741   3.1123   3.1876   3.2846   3.8562   3.9015   3.9618
     3.9987   4.0259   4.0500   4.0772   4.1021   4.1222   4.1674   4.1990
     4.2245   4.2735   4.3148   4.3758   4.5422   4.5672   4.5940   4.6158
     4.6701   4.7244   4.7318   4.7656   4.7781   4.7967   4.8536   4.8744
     4.9098   4.9526   4.9981   5.0338   5.1038   5.8195   5.9407   6.1385
     6.3612   6.4413   6.5212   6.6516   6.7398   6.8548   6.8933   6.9237
     7.0682   7.1081   7.1799   7.2016   7.2389   7.2481   7.2743   7.2784
     7.9843   8.0151   8.0798   8.1234   8.1388   8.2319   8.3003   8.3074
     8.3451   8.3729

     the Fermi energy is     6.2052 ev

!    total energy              =    -503.72106590 Ry
     estimated scf accuracy    <       0.00000067 Ry
     smearing contrib. (-TS)   =      -0.05923003 Ry
     internal energy E=F+TS    =    -503.66183587 Ry

     The total energy is F=E-TS. E is the sum of the following terms:
     one-electron contribution =     141.46637723 Ry
     hartree contribution      =      37.98248559 Ry
     xc contribution           =    -153.22344721 Ry
     ewald contribution        =    -529.88725149 Ry

     convergence has been achieved in  10 iterations

     Forces acting on atoms (cartesian axes, Ry/au):

     atom    1 type  1   force =     0.04628749   -0.01611102    0.07945177
     atom    2 type  1   force =     0.08228926   -0.02898668    0.01123253
     atom    3 type  1   force =     0.01955403    0.02473248   -0.03287942
     atom    4 type  1   force =    -0.01482742   -0.00820996    0.03633156
     atom    5 type  1   force =     0.00542513    0.02674908   -0.00035727
     atom    6 type  1   force =     0.04080026   -0.00104835    0.07468293
     atom    7 type  1   force =     0.00917338   -0.03015867    0.00057377
     atom    8 type  1   force =    -0.03972713    0.00560873    0.00233875
     atom    9 type  1   force =     0.00186182    0.03380892    0.01902697
     atom   10 type  1   force =     0.02788921   -0.01738695    0.04002832
     atom   11 type  1   force =     0.04868465   -0.02951597    0.05138551
     atom   12 type  1   force =     0.01579825    0.01141271    0.00385811
     atom   13 type  1   force =     0.02859475    0.03526636    0.01026836
     atom   14 type  1   force =     0.00465026    0.02969872   -0.02337230
     atom   15 type  1   force =    -0.04193067   -0.00116458    0.04883626
     atom   16 type  1   force =     0.02885886   -0.00687563    0.00262705
     atom   17 type  1   force =    -0.06994681    0.01311818   -0.01907687
     atom   18 type  1   force =    -0.02537251    0.01177862    0.01341263
     atom   19 type  1   force =     0.07639337   -0.03011150    0.00922973
     atom   20 type  1   force =    -0.02877896   -0.00198351    0.06938073
     atom   21 type  1   force =    -0.00035510   -0.01966768    0.01983672
     atom   22 type  1   force =    -0.02474451    0.00363947    0.02659053
     atom   23 type  1   force =    -0.01873392   -0.00537899    0.05513391
     atom   24 type  1   force =    -0.03877911    0.00558497   -0.04190522
     atom   25 type  1   force =     0.07577764    0.04737398   -0.04293350
     atom   26 type  1   force =    -0.01965040   -0.00238878   -0.00562174
     atom   27 type  1   force =     0.01213876   -0.00716240    0.00393229
     atom   28 type  1   force =     0.01910988    0.00166103    0.00743597
     atom   29 type  1   force =    -0.01767108    0.03501965    0.01941562
     atom   30 type  1   force =     0.01830540   -0.00725854   -0.02448659
     atom   31 type  1   force =    -0.05310998   -0.00927488    0.01767980
     atom   32 type  1   force =    -0.01093469    0.01003374    0.00815271
     atom   33 type  1   force =    -0.00687035   -0.01302673    0.01662201
     atom   34 type  1   force =     0.07719304   -0.03148582    0.02479129
     atom   35 type  1   force =     0.01314387    0.00959571    0.01784144
     atom   36 type  1   force =     0.01909881    0.01047564    0.01125950
     atom   37 type  1   force =     0.02834858   -0.00316017   -0.01869280
     atom   38 type  1   force =     0.02416045    0.00298958    0.00940133
     atom   39 type  1   force =    -0.01349838   -0.00097359   -0.01738831
     atom   40 type  1   force =    -0.00485987   -0.02445531    0.03204096
     atom   41 type  1   force =    -0.09386002    0.02697015   -0.02217466
     atom   42 type  1   force =    -0.06074811   -0.00068857   -0.01548500
     atom   43 type  1   force =    -0.01479922   -0.02079460    0.03042612
     atom   44 type  1   force =    -0.01737421   -0.01180200    0.01177832
     atom   45 type  1   force =     0.00359828   -0.04812897   -0.01983827
     atom   46 type  1   force =     0.01711897   -0.03028157   -0.00000374
     atom   47 type  1   force =     0.01193451    0.00946486   -0.02960137
     atom   48 type  1   force =    -0.08016372   -0.03000245    0.02943223
     atom   49 type  1   force =     0.05939421   -0.00599640    0.00513743
     atom   50 type  1   force =    -0.01199966    0.04346065   -0.01444128
     atom   51 type  1   force =    -0.02173535    0.03674545   -0.07488516
     atom   52 type  1   force =    -0.01163804    0.01784846    0.02028094
     atom   53 type  1   force =    -0.02494319    0.00808451   -0.00084780
     atom   54 type  1   force =    -0.06496796    0.03731549   -0.04735018
     atom   55 type  1   force =     0.01068249   -0.03424031   -0.02754515
     atom   56 type  1   force =    -0.00590674    0.01711983   -0.03470073
     atom   57 type  1   force =    -0.03064270   -0.01543930   -0.04965330
     atom   58 type  1   force =     0.03903847   -0.02258104   -0.04085861
     atom   59 type  1   force =     0.01757015    0.02139742   -0.02982711
     atom   60 type  1   force =    -0.07627306    0.02945065   -0.07748813
     atom   61 type  1   force =     0.05606780   -0.02859847   -0.01542895
     atom   62 type  1   force =     0.00896927   -0.02280143   -0.03813407
     atom   63 type  1   force =    -0.01552519    0.00962624   -0.02159602
     atom   64 type  1   force =     0.01245678   -0.00889045   -0.05328054

     Total force =     0.442124     Total SCF correction =     0.001483


     Computing stress (Cartesian axis) and pressure

          total   stress  (Ry/bohr**3)                   (kbar)     P=        3.76
  -0.00006296  -0.00008332  -0.00001132           -9.26      -12.26       -1.66
  -0.00008332   0.00011118  -0.00008600          -12.26       16.36      -12.65
  -0.00001132  -0.00008600   0.00002837           -1.66      -12.65        4.17

 
     init_run     :      0.98s CPU      4.22s WALL (       1 calls)
     electrons    :      1.24s CPU      1.35s WALL (       1 calls)
     forces       :      0.04s CPU      0.05s WALL (       1 calls)
     stress       :      0.15s CPU      0.16s WALL (       1 calls)

     Called by init_run:
     wfcinit      :      0.41s CPU      3.50s WALL (       1 calls)
                                        3.50s GPU  (       1 calls)
     potinit      :      0.15s CPU      0.23s WALL (       1 calls)
     hinit0       :      0.40s CPU      0.42s WALL (       1 calls)

     Called by electrons:
     c_bands      :      0.88s CPU      0.96s WALL (      11 calls)
     sum_band     :      0.19s CPU      0.21s WALL (      11 calls)
     v_of_rho     :      0.09s CPU      0.18s WALL (      11 calls)
     mix_rho      :      0.06s CPU      0.08s WALL (      11 calls)

     Called by c_bands:
     init_us_2    :      0.03s CPU      0.03s WALL (      23 calls)
     init_us_2:gp :      0.03s CPU      0.03s WALL (      23 calls)
     regterg      :      0.81s CPU      0.87s WALL (      11 calls)

     Called by *egterg:
     rdiaghg      :      0.38s CPU      0.99s WALL (      78 calls)
                                        0.98s GPU  (      78 calls)
     h_psi        :      0.72s CPU      3.22s WALL (      80 calls)
                                        3.21s GPU  (      80 calls)
     g_psi        :      0.00s CPU      0.00s WALL (      68 calls)
                                        0.00s GPU  (      68 calls)

     Called by h_psi:
     h_psi:calbec :      0.37s CPU      2.81s WALL (      80 calls)
                                        2.81s GPU  (      80 calls)
     vloc_psi     :      0.31s CPU      0.36s WALL (      80 calls)
                                        0.36s GPU  (      80 calls)
     add_vuspsi   :      0.03s CPU      0.04s WALL (      80 calls)
                                        0.04s GPU  (      80 calls)

     General routines
     calbec       :      0.37s CPU      2.81s WALL (      85 calls)
     fft          :      0.42s CPU      0.53s WALL (      95 calls)
                                        0.11s GPU  (      61 calls)
     ffts         :      0.02s CPU      0.02s WALL (      11 calls)
     fftw         :      0.35s CPU      0.46s WALL (    1231 calls)
                                        0.41s GPU  (    1231 calls)
 
     Parallel routines
 
     PWSCF        :      2.44s CPU      5.85s WALL

 
   This run was terminated on:  11:22:17  10May2023            

=------------------------------------------------------------------------------=
   JOB DONE.
=------------------------------------------------------------------------------=
