An instance of this daemon is already running

     Program PWSCF v.7.1 starts on 10May2023 at 11:14:40 

     This program is part of the open-source Quantum ESPRESSO suite
     for quantum simulation of materials; please cite
         "P. Giannozzi et al., J. Phys.:Condens. Matter 21 395502 (2009);
         "P. Giannozzi et al., J. Phys.:Condens. Matter 29 465901 (2017);
         "P. Giannozzi et al., J. Chem. Phys. 152 154105 (2020);
          URL http://www.quantum-espresso.org", 
     in publications or presentations arising from this work. More details at
     http://www.quantum-espresso.org/quote

     Parallel version (MPI & OpenMP), running on       4 processor cores
     Number of MPI processes:                 4
     Threads/MPI process:                     1

     MPI processes distributed on     1 nodes
     150162 MiB available memory on the printing compute node when the environment starts
 
     Reading input from pw-si-33.in
Warning: card &CELL ignored
Warning: card / ignored

     Current dimensions of program PWSCF are:
     Max number of different atomic species (ntypx) = 10
     Max number of k-points (npk) =  40000
     Max angular momentum in pseudopotentials (lmaxx) =  4

     IMPORTANT: XC functional enforced from input :
     Exchange-correlation= PBE
                           (   1   4   3   4   0   0   0)
     Any further DFT definition will be discarded
     Please, verify this is what you really want


     gamma-point specific algorithms are used
 
     K-points division:     npool     =       2
     R & G space division:  proc/nbgrp/npool/nimage =       2
     Subspace diagonalization in iterative solution of the eigenvalue problem:
     a serial algorithm will be used

     Message from routine divide_et_impera:
     suboptimal parallelization: some nodes have no k-points
 
     Parallelization info
     --------------------
     sticks:   dense  smooth     PW     G-vecs:    dense   smooth      PW
     Min        2013    2013    536                98641    98641   13401
     Max        2014    2014    537                98642    98642   13404
     Sum        4027    4027   1073               197283   197283   26805
 
     Using Slab Decomposition
 


     bravais-lattice index     =            0
     lattice parameter (alat)  =      20.6700  a.u.
     unit-cell volume          =    8887.7169 (a.u.)^3
     number of atoms/cell      =           64
     number of atomic types    =            1
     number of electrons       =       256.00
     number of Kohn-Sham states=          154
     kinetic-energy cutoff     =      30.0000  Ry
     charge density cutoff     =     120.0000  Ry
     scf convergence threshold =      1.0E-06
     mixing beta               =       0.5000
     number of iterations used =            8  plain     mixing
     Exchange-correlation= PBE
                           (   1   4   3   4   0   0   0)

     GPU acceleration is ACTIVE.
     GPU-aware MPI enabled

     Message from routine print_cuda_info:
     High GPU oversubscription detected. Are you sure this is what you want?

     celldm(1)=  20.669996  celldm(2)=   0.000000  celldm(3)=   0.000000
     celldm(4)=   0.000000  celldm(5)=   0.000000  celldm(6)=   0.000000

     crystal axes: (cart. coord. in units of alat)
               a(1) = (   1.000000   0.000000   0.000000 )  
               a(2) = (   0.000000   0.989577   0.000000 )  
               a(3) = (   0.000000   0.000000   1.016997 )  

     reciprocal axes: (cart. coord. in units 2 pi/alat)
               b(1) = (  1.000000  0.000000  0.000000 )  
               b(2) = (  0.000000  1.010533  0.000000 )  
               b(3) = (  0.000000  0.000000  0.983287 )  


     PseudoPot. # 1 for Si read from file:
     /home/ppiaggi/pseudos/Si_ONCV_PBE_sr.upf
     MD5 check sum: 8553c464762ac42b85b1eed164b4d029
     Pseudo is Norm-conserving, Zval =  4.0
     Generated using ONCVPSP code by D. R. Hamann
     Using radial grid of 1510 points,  4 beta functions with: 
                l(1) =   0
                l(2) =   0
                l(3) =   1
                l(4) =   1

     atomic species   valence    mass     pseudopotential
        Si             4.00    28.08500     Si( 1.00)

     No symmetry found



   Cartesian axes

     site n.     atom                  positions (alat units)
         1           Si  tau(   1) = (  -0.0006738   0.0025126  -0.0005855  )
         2           Si  tau(   2) = (  -0.0017364   0.2410676   0.2604121  )
         3           Si  tau(   3) = (   0.2591004  -0.0038783   0.2542659  )
         4           Si  tau(   4) = (   0.2525258   0.2442335   0.0001184  )
         5           Si  tau(   5) = (   0.1268232   0.1196167   0.1269348  )
         6           Si  tau(   6) = (   0.5087628  -0.0024648   0.0021489  )
         7           Si  tau(   7) = (   0.5077882   0.2424998   0.2558415  )
         8           Si  tau(   8) = (   0.6386242   0.1200237   0.1304600  )
         9           Si  tau(   9) = (   0.7682036  -0.0000748   0.2565793  )
        10           Si  tau(  10) = (   0.7615141   0.2438451   0.0013753  )
        11           Si  tau(  11) = (   0.0012346   0.4846454   0.0030799  )
        12           Si  tau(  12) = (   0.2547015   0.4907070   0.2602573  )
        13           Si  tau(  13) = (   0.1306234   0.6102129   0.1295050  )
        14           Si  tau(  14) = (   0.3823347   0.3686063   0.1312454  )
        15           Si  tau(  15) = (   0.5111581   0.4857323  -0.0025416  )
        16           Si  tau(  16) = (   0.6335404   0.6039150   0.1296709  )
        17           Si  tau(  17) = (   0.8899049   0.3690590   0.1323904  )
        18           Si  tau(  18) = (   0.7639455   0.4871047   0.2574179  )
        19           Si  tau(  19) = (   0.0039175   0.7293155   0.2550911  )
        20           Si  tau(  20) = (   0.2538768   0.7252611  -0.0038384  )
        21           Si  tau(  21) = (   0.3818752   0.8543304   0.1293786  )
        22           Si  tau(  22) = (   0.5117836   0.7305354   0.2562588  )
        23           Si  tau(  23) = (   0.7676026   0.7313425   0.0006883  )
        24           Si  tau(  24) = (   0.8906359   0.8553443   0.1269723  )
        25           Si  tau(  25) = (   0.0037060  -0.0018365   0.5131678  )
        26           Si  tau(  26) = (   0.2519669   0.2470654   0.5129134  )
        27           Si  tau(  27) = (   0.1310665   0.1213893   0.6376312  )
        28           Si  tau(  28) = (   0.3833033   0.1226049   0.3866158  )
        29           Si  tau(  29) = (   0.5074362   0.0007045   0.5095657  )
        30           Si  tau(  30) = (   0.6385452   0.1199189   0.6432839  )
        31           Si  tau(  31) = (   0.8942308   0.1180735   0.3867131  )
        32           Si  tau(  32) = (   0.7675559   0.2466317   0.5150602  )
        33           Si  tau(  33) = (   0.1311579   0.3618304   0.3813272  )
        34           Si  tau(  34) = (  -0.0035760   0.4869015   0.5114235  )
        35           Si  tau(  35) = (   0.1238895   0.6071844   0.6393963  )
        36           Si  tau(  36) = (   0.6397922   0.3665574   0.3852305  )
        37           Si  tau(  37) = (   0.3823785   0.6101352   0.3803336  )
        38           Si  tau(  38) = (   0.3802974   0.3637181   0.6385830  )
        39           Si  tau(  39) = (   0.5103001   0.4882354   0.5108653  )
        40           Si  tau(  40) = (   0.6344652   0.6113520   0.6429270  )
        41           Si  tau(  41) = (   0.8890872   0.6072978   0.3795169  )
        42           Si  tau(  42) = (   0.8935736   0.3626628   0.6438793  )
        43           Si  tau(  43) = (   0.1260735   0.8544523   0.3817984  )
        44           Si  tau(  44) = (   0.2530116   0.7275831   0.5084560  )
        45           Si  tau(  45) = (   0.6362509   0.8544755   0.3865281  )
        46           Si  tau(  46) = (   0.3784092   0.8471934   0.6366560  )
        47           Si  tau(  47) = (   0.7663908   0.7303347   0.5136487  )
        48           Si  tau(  48) = (   0.8896885   0.8533668   0.6408728  )
        49           Si  tau(  49) = (  -0.0019352   0.2394801   0.7683722  )
        50           Si  tau(  50) = (   0.2540468  -0.0026872   0.7650469  )
        51           Si  tau(  51) = (   0.3828438   0.1213987   0.9000075  )
        52           Si  tau(  52) = (   0.5052058   0.2422862   0.7672113  )
        53           Si  tau(  53) = (   0.7693269   0.0003963   0.7677278  )
        54           Si  tau(  54) = (   0.8939641   0.1184293   0.8932905  )
        55           Si  tau(  55) = (   0.1278989   0.3659663   0.8990155  )
        56           Si  tau(  56) = (   0.2535592   0.4887021   0.7658999  )
        57           Si  tau(  57) = (   0.6366398   0.3624051   0.8977466  )
        58           Si  tau(  58) = (   0.3830098   0.6089917   0.8909566  )
        59           Si  tau(  59) = (   0.7676294   0.4861408   0.7676122  )
        60           Si  tau(  60) = (   0.8903979   0.6121487   0.8934509  )
        61           Si  tau(  61) = (  -0.0031094   0.7264679   0.7672771  )
        62           Si  tau(  62) = (   0.1273980   0.8545469   0.8944021  )
        63           Si  tau(  63) = (   0.5094619   0.7326976   0.7680100  )
        64           Si  tau(  64) = (   0.6332007   0.8503629   0.8922235  )

     number of k points=     1  Fermi-Dirac smearing, width (Ry)=  0.0100
                       cart. coord. in units 2pi/alat
        k(    1) = (   0.0000000   0.0000000   0.0000000), wk =   2.0000000

     Dense  grid:    98642 G-vectors     FFT dimensions: (  75,  72,  75)

     Estimated max dynamical RAM per process >     158.22 MB

     Estimated total dynamical RAM >     608.80 MB

     Initial potential from superposition of free atoms

     starting charge     255.9608, renormalised to     256.0000
     Starting wfcs are  256 randomized atomic wfcs

     total cpu time spent up to now is        4.3 secs

     Self-consistent Calculation

     iteration #  1     ecut=    30.00 Ry     beta= 0.50
     Davidson diagonalization with overlap
     ethr =  1.00E-02,  avg # of iterations =  3.0

     Threshold (ethr) on eigenvalues was too large:
     Diagonalizing with lowered threshold

     Davidson diagonalization with overlap
     ethr =  6.51E-04,  avg # of iterations =  4.0

     total cpu time spent up to now is        4.5 secs

     total energy              =    -503.77959206 Ry
     estimated scf accuracy    <       1.84670587 Ry

     iteration #  2     ecut=    30.00 Ry     beta= 0.50
     Davidson diagonalization with overlap
     ethr =  7.21E-04,  avg # of iterations =  1.0

     total cpu time spent up to now is        4.6 secs

     total energy              =    -503.76460466 Ry
     estimated scf accuracy    <       0.34355354 Ry

     iteration #  3     ecut=    30.00 Ry     beta= 0.50
     Davidson diagonalization with overlap
     ethr =  1.34E-04,  avg # of iterations =  4.0

     total cpu time spent up to now is        4.7 secs

     total energy              =    -503.77972578 Ry
     estimated scf accuracy    <       0.05733660 Ry

     iteration #  4     ecut=    30.00 Ry     beta= 0.50
     Davidson diagonalization with overlap
     c_bands:  1 eigenvalues not converged
     ethr =  2.24E-05,  avg # of iterations = 20.0

     total cpu time spent up to now is        4.9 secs

     total energy              =    -503.79116611 Ry
     estimated scf accuracy    <       0.00976657 Ry

     iteration #  5     ecut=    30.00 Ry     beta= 0.50
     Davidson diagonalization with overlap
     ethr =  3.82E-06,  avg # of iterations = 15.0

     total cpu time spent up to now is        5.1 secs

     total energy              =    -503.79267128 Ry
     estimated scf accuracy    <       0.00238982 Ry

     iteration #  6     ecut=    30.00 Ry     beta= 0.50
     Davidson diagonalization with overlap
     ethr =  9.34E-07,  avg # of iterations =  4.0

     total cpu time spent up to now is        5.2 secs

     total energy              =    -503.79297956 Ry
     estimated scf accuracy    <       0.00065398 Ry

     iteration #  7     ecut=    30.00 Ry     beta= 0.50
     Davidson diagonalization with overlap
     ethr =  2.55E-07,  avg # of iterations =  4.0

     total cpu time spent up to now is        5.3 secs

     total energy              =    -503.79305148 Ry
     estimated scf accuracy    <       0.00007353 Ry

     iteration #  8     ecut=    30.00 Ry     beta= 0.50
     Davidson diagonalization with overlap
     ethr =  2.87E-08,  avg # of iterations =  5.0

     total cpu time spent up to now is        5.4 secs

     total energy              =    -503.79307139 Ry
     estimated scf accuracy    <       0.00001703 Ry

     iteration #  9     ecut=    30.00 Ry     beta= 0.50
     Davidson diagonalization with overlap
     ethr =  6.65E-09,  avg # of iterations =  3.0

     total cpu time spent up to now is        5.5 secs

     total energy              =    -503.79307326 Ry
     estimated scf accuracy    <       0.00000193 Ry

     iteration # 10     ecut=    30.00 Ry     beta= 0.50
     Davidson diagonalization with overlap
     ethr =  7.52E-10,  avg # of iterations =  5.0

     total cpu time spent up to now is        5.6 secs

     End of self-consistent calculation

          k = 0.0000 0.0000 0.0000 ( 12328 PWs)   bands (ev):

    -5.8906  -4.9356  -4.8911  -4.8627  -4.8189  -4.6924  -4.6569  -4.1850
    -4.0441  -3.9988  -3.9100  -3.8691  -3.8424  -3.8325  -3.7745  -3.7486
    -3.7298  -3.7064  -3.6116  -3.5923  -3.4935  -3.4421  -3.2917  -2.0810
    -2.0294  -1.8881  -1.7955  -1.7819  -1.7423  -1.7019  -1.6919  -1.6519
    -1.6212  -1.5979  -1.5875  -1.5538  -1.5145  -1.4772  -1.4692  -1.4427
    -1.4302  -1.0272  -0.9194  -0.8699  -0.7203   0.3856   0.4267   0.4434
     0.4471   0.4845   0.4963   0.5184   0.5325   0.5701   0.6066   0.6425
     0.6770   1.9596   1.9826   1.9934   2.0244   2.0984   2.1064   2.1439
     2.1614   2.1819   2.2002   2.2179   2.2270   2.2664   2.2813   2.3011
     2.3252   2.3424   2.3615   2.3714   2.3882   2.4237   2.4385   2.4652
     2.5018   2.5307   2.5618   2.5651   2.5886   2.6026   2.6225   3.0139
     3.0733   3.1046   3.1776   3.3008   3.3539   3.9409   3.9576   3.9704
     4.0234   4.0615   4.1183   4.1681   4.1983   4.2264   4.2553   4.2668
     4.2787   4.2976   4.4642   4.5000   4.5606   4.6035   4.6193   4.6574
     4.6821   4.6964   4.7530   4.7813   4.7882   4.8119   4.8532   4.9251
     4.9420   4.9702   5.0044   5.0861   5.1595   5.8279   6.0594   6.1260
     6.4689   6.5142   6.5441   6.6805   6.8411   6.8981   6.9673   7.0813
     7.1169   7.1484   7.2104   7.2440   7.2873   7.3235   7.3285   7.3653
     8.0850   8.1163   8.1595   8.2067   8.3004   8.3344   8.3885   8.3908
     8.4249   8.4511

     the Fermi energy is     6.2595 ev

!    total energy              =    -503.79307359 Ry
     estimated scf accuracy    <       0.00000055 Ry
     smearing contrib. (-TS)   =      -0.05712201 Ry
     internal energy E=F+TS    =    -503.73595158 Ry

     The total energy is F=E-TS. E is the sum of the following terms:
     one-electron contribution =     143.00790699 Ry
     hartree contribution      =      37.74410418 Ry
     xc contribution           =    -153.41205239 Ry
     ewald contribution        =    -531.07591037 Ry

     convergence has been achieved in  10 iterations

     Forces acting on atoms (cartesian axes, Ry/au):

     atom    1 type  1   force =     0.07033663   -0.07505333    0.04083502
     atom    2 type  1   force =     0.06560039    0.00887094   -0.02964582
     atom    3 type  1   force =    -0.01696815   -0.01331856    0.00951679
     atom    4 type  1   force =     0.01594173   -0.00111977    0.03600397
     atom    5 type  1   force =     0.01051254    0.00299209    0.01734271
     atom    6 type  1   force =     0.01053855   -0.03490081    0.01508279
     atom    7 type  1   force =     0.01346253    0.00814077    0.00754380
     atom    8 type  1   force =    -0.00786657   -0.00427045   -0.00198068
     atom    9 type  1   force =    -0.01984608   -0.04046702    0.00639674
     atom   10 type  1   force =     0.02005658   -0.01304888    0.02148368
     atom   11 type  1   force =     0.04517859    0.03123709    0.00679539
     atom   12 type  1   force =     0.00235135   -0.01340387   -0.02053064
     atom   13 type  1   force =    -0.00203107   -0.01554206   -0.00623627
     atom   14 type  1   force =    -0.00541834   -0.00883288   -0.01168089
     atom   15 type  1   force =    -0.02099918    0.00538477    0.02448944
     atom   16 type  1   force =     0.02215493    0.02128347   -0.00988337
     atom   17 type  1   force =    -0.04993658   -0.03227233   -0.00166256
     atom   18 type  1   force =    -0.02153865    0.00205910   -0.00701558
     atom   19 type  1   force =     0.03130876    0.02167365   -0.00770422
     atom   20 type  1   force =     0.00913105    0.03699179    0.02899187
     atom   21 type  1   force =     0.00557392    0.00619562   -0.01329102
     atom   22 type  1   force =    -0.00811010    0.01483985   -0.00430575
     atom   23 type  1   force =    -0.04308584    0.00300859    0.01898654
     atom   24 type  1   force =    -0.03170431    0.02931762    0.00505536
     atom   25 type  1   force =     0.04504257   -0.04738749    0.01124270
     atom   26 type  1   force =     0.01943330   -0.02004140   -0.00919280
     atom   27 type  1   force =    -0.00986004   -0.00383828    0.01303854
     atom   28 type  1   force =    -0.01694191   -0.00025371   -0.01081068
     atom   29 type  1   force =     0.01028019   -0.04549710    0.02321932
     atom   30 type  1   force =    -0.00738483    0.00486039   -0.01591899
     atom   31 type  1   force =    -0.07005090    0.00540865    0.01133920
     atom   32 type  1   force =    -0.01871610   -0.02351764   -0.00634587
     atom   33 type  1   force =    -0.02224969    0.02178120    0.01280556
     atom   34 type  1   force =     0.06726195   -0.01326532   -0.00977826
     atom   35 type  1   force =     0.01222216    0.00350056   -0.01000354
     atom   36 type  1   force =    -0.01115464   -0.01397120    0.00096357
     atom   37 type  1   force =     0.01266021    0.00014694    0.02251924
     atom   38 type  1   force =     0.00858920    0.01583986    0.00211457
     atom   39 type  1   force =    -0.00832300    0.00182583    0.00434464
     atom   40 type  1   force =     0.01888639   -0.01571616   -0.01101685
     atom   41 type  1   force =    -0.04186161    0.01441144    0.01930567
     atom   42 type  1   force =    -0.05687980    0.01675234   -0.01622571
     atom   43 type  1   force =     0.02074973    0.02630842    0.00675099
     atom   44 type  1   force =    -0.01031274    0.00743272    0.00129359
     atom   45 type  1   force =     0.01097287    0.02916658   -0.00631875
     atom   46 type  1   force =     0.01239363    0.05357771    0.00292165
     atom   47 type  1   force =    -0.02292636    0.00636053   -0.00951197
     atom   48 type  1   force =    -0.03142121    0.03744201   -0.01019224
     atom   49 type  1   force =     0.09469826    0.01144264   -0.00379518
     atom   50 type  1   force =     0.01521651   -0.02988878    0.00981639
     atom   51 type  1   force =    -0.01137007   -0.01097010   -0.03524120
     atom   52 type  1   force =     0.01439052   -0.00280643    0.00584371
     atom   53 type  1   force =    -0.03427436   -0.05065845   -0.00308359
     atom   54 type  1   force =    -0.08994346    0.02375121   -0.00175388
     atom   55 type  1   force =    -0.00100732   -0.00636336   -0.04312278
     atom   56 type  1   force =    -0.00090322   -0.01087541    0.00038379
     atom   57 type  1   force =    -0.00035668    0.00541023   -0.04521868
     atom   58 type  1   force =     0.00636714   -0.00943962   -0.00738967
     atom   59 type  1   force =    -0.03148852    0.00353965    0.00507842
     atom   60 type  1   force =    -0.05009002   -0.04193913    0.02034650
     atom   61 type  1   force =     0.07861363    0.04403783   -0.01739352
     atom   62 type  1   force =    -0.00478316    0.02089924   -0.01854748
     atom   63 type  1   force =    -0.01815825   -0.00112306   -0.01728587
     atom   64 type  1   force =     0.02803694    0.05389130    0.01023216

     Total force =     0.360571     Total SCF correction =     0.001367


     Computing stress (Cartesian axis) and pressure

          total   stress  (Ry/bohr**3)                   (kbar)     P=        7.09
   0.00004232  -0.00002407   0.00003876            6.23       -3.54        5.70
  -0.00002407   0.00011129  -0.00008592           -3.54       16.37      -12.64
   0.00003876  -0.00008592  -0.00000900            5.70      -12.64       -1.32

 
     init_run     :      0.96s CPU      4.23s WALL (       1 calls)
     electrons    :      1.26s CPU      1.36s WALL (       1 calls)
     forces       :      0.04s CPU      0.05s WALL (       1 calls)
     stress       :      0.15s CPU      0.16s WALL (       1 calls)

     Called by init_run:
     wfcinit      :      0.41s CPU      3.53s WALL (       1 calls)
                                        3.53s GPU  (       1 calls)
     potinit      :      0.14s CPU      0.22s WALL (       1 calls)
     hinit0       :      0.39s CPU      0.42s WALL (       1 calls)

     Called by electrons:
     c_bands      :      0.90s CPU      0.96s WALL (      11 calls)
     sum_band     :      0.20s CPU      0.22s WALL (      11 calls)
     v_of_rho     :      0.09s CPU      0.17s WALL (      11 calls)
     mix_rho      :      0.06s CPU      0.08s WALL (      11 calls)

     Called by c_bands:
     init_us_2    :      0.03s CPU      0.03s WALL (      23 calls)
     init_us_2:gp :      0.03s CPU      0.03s WALL (      23 calls)
     regterg      :      0.82s CPU      0.87s WALL (      11 calls)

     Called by *egterg:
     rdiaghg      :      0.39s CPU      0.99s WALL (      78 calls)
                                        0.98s GPU  (      78 calls)
     h_psi        :      0.71s CPU      3.25s WALL (      80 calls)
                                        3.25s GPU  (      80 calls)
     g_psi        :      0.00s CPU      0.00s WALL (      68 calls)
                                        0.00s GPU  (      68 calls)

     Called by h_psi:
     h_psi:calbec :      0.36s CPU      2.84s WALL (      80 calls)
                                        2.84s GPU  (      80 calls)
     vloc_psi     :      0.30s CPU      0.37s WALL (      80 calls)
                                        0.36s GPU  (      80 calls)
     add_vuspsi   :      0.03s CPU      0.04s WALL (      80 calls)
                                        0.04s GPU  (      80 calls)

     General routines
     calbec       :      0.37s CPU      2.84s WALL (      85 calls)
     fft          :      0.42s CPU      0.52s WALL (      95 calls)
                                        0.11s GPU  (      61 calls)
     ffts         :      0.02s CPU      0.02s WALL (      11 calls)
     fftw         :      0.35s CPU      0.46s WALL (    1227 calls)
                                        0.42s GPU  (    1227 calls)
 
     Parallel routines
 
     PWSCF        :      2.44s CPU      5.87s WALL

 
   This run was terminated on:  11:14:46  10May2023            

=------------------------------------------------------------------------------=
   JOB DONE.
=------------------------------------------------------------------------------=
