An instance of this daemon is already running
An instance of this daemon is already running

     Program PWSCF v.7.1 starts on 10May2023 at 11:23:10 

     This program is part of the open-source Quantum ESPRESSO suite
     for quantum simulation of materials; please cite
         "P. Giannozzi et al., J. Phys.:Condens. Matter 21 395502 (2009);
         "P. Giannozzi et al., J. Phys.:Condens. Matter 29 465901 (2017);
         "P. Giannozzi et al., J. Chem. Phys. 152 154105 (2020);
          URL http://www.quantum-espresso.org", 
     in publications or presentations arising from this work. More details at
     http://www.quantum-espresso.org/quote

     Parallel version (MPI & OpenMP), running on       4 processor cores
     Number of MPI processes:                 4
     Threads/MPI process:                     1

     MPI processes distributed on     1 nodes
     150891 MiB available memory on the printing compute node when the environment starts
 
     Reading input from pw-si-94.in
Warning: card &CELL ignored
Warning: card / ignored

     Current dimensions of program PWSCF are:
     Max number of different atomic species (ntypx) = 10
     Max number of k-points (npk) =  40000
     Max angular momentum in pseudopotentials (lmaxx) =  4

     IMPORTANT: XC functional enforced from input :
     Exchange-correlation= PBE
                           (   1   4   3   4   0   0   0)
     Any further DFT definition will be discarded
     Please, verify this is what you really want


     gamma-point specific algorithms are used
 
     K-points division:     npool     =       2
     R & G space division:  proc/nbgrp/npool/nimage =       2
     Subspace diagonalization in iterative solution of the eigenvalue problem:
     a serial algorithm will be used

     Message from routine divide_et_impera:
     suboptimal parallelization: some nodes have no k-points
 
     Parallelization info
     --------------------
     sticks:   dense  smooth     PW     G-vecs:    dense   smooth      PW
     Min        2105    2105    554               101289   101289   13763
     Max        2108    2108    555               101296   101296   13766
     Sum        4213    4213   1109               202585   202585   27529
 
     Using Slab Decomposition
 


     bravais-lattice index     =            0
     lattice parameter (alat)  =      21.0935  a.u.
     unit-cell volume          =    9126.4025 (a.u.)^3
     number of atoms/cell      =           64
     number of atomic types    =            1
     number of electrons       =       256.00
     number of Kohn-Sham states=          154
     kinetic-energy cutoff     =      30.0000  Ry
     charge density cutoff     =     120.0000  Ry
     scf convergence threshold =      1.0E-06
     mixing beta               =       0.5000
     number of iterations used =            8  plain     mixing
     Exchange-correlation= PBE
                           (   1   4   3   4   0   0   0)

     GPU acceleration is ACTIVE.
     GPU-aware MPI enabled

     Message from routine print_cuda_info:
     High GPU oversubscription detected. Are you sure this is what you want?

     celldm(1)=  21.093505  celldm(2)=   0.000000  celldm(3)=   0.000000
     celldm(4)=   0.000000  celldm(5)=   0.000000  celldm(6)=   0.000000

     crystal axes: (cart. coord. in units of alat)
               a(1) = (   1.000000   0.000000   0.000000 )  
               a(2) = (   0.000000   0.992998   0.000000 )  
               a(3) = (   0.000000   0.000000   0.979276 )  

     reciprocal axes: (cart. coord. in units 2 pi/alat)
               b(1) = (  1.000000  0.000000  0.000000 )  
               b(2) = (  0.000000  1.007051  0.000000 )  
               b(3) = (  0.000000  0.000000  1.021163 )  


     PseudoPot. # 1 for Si read from file:
     /home/ppiaggi/pseudos/Si_ONCV_PBE_sr.upf
     MD5 check sum: 8553c464762ac42b85b1eed164b4d029
     Pseudo is Norm-conserving, Zval =  4.0
     Generated using ONCVPSP code by D. R. Hamann
     Using radial grid of 1510 points,  4 beta functions with: 
                l(1) =   0
                l(2) =   0
                l(3) =   1
                l(4) =   1

     atomic species   valence    mass     pseudopotential
        Si             4.00    28.08500     Si( 1.00)

     No symmetry found



   Cartesian axes

     site n.     atom                  positions (alat units)
         1           Si  tau(   1) = (  -0.0038828  -0.0037537   0.0017902  )
         2           Si  tau(   2) = (   0.0023069   0.2506009   0.2397076  )
         3           Si  tau(   3) = (   0.2438954  -0.0016017   0.2382772  )
         4           Si  tau(   4) = (   0.2491499   0.2492105   0.0000860  )
         5           Si  tau(   5) = (   0.1256738   0.1284144   0.1186160  )
         6           Si  tau(   6) = (   0.4904963  -0.0018220  -0.0002300  )
         7           Si  tau(   7) = (   0.4986276   0.2482196   0.2437810  )
         8           Si  tau(   8) = (   0.6157084   0.1297278   0.1226324  )
         9           Si  tau(   9) = (   0.7374524  -0.0018860   0.2448254  )
        10           Si  tau(  10) = (   0.7415171   0.2494738   0.0005733  )
        11           Si  tau(  11) = (  -0.0023866   0.5054819  -0.0001455  )
        12           Si  tau(  12) = (   0.2491666   0.5025820   0.2448465  )
        13           Si  tau(  13) = (   0.1194509   0.6293013   0.1203864  )
        14           Si  tau(  14) = (   0.3719766   0.3821160   0.1242211  )
        15           Si  tau(  15) = (   0.4955526   0.5063834   0.0002776  )
        16           Si  tau(  16) = (   0.6178678   0.6343100   0.1222566  )
        17           Si  tau(  17) = (   0.8619592   0.3827526   0.1186486  )
        18           Si  tau(  18) = (   0.7397711   0.5018072   0.2415623  )
        19           Si  tau(  19) = (  -0.0029662   0.7528537   0.2439337  )
        20           Si  tau(  20) = (   0.2502354   0.7561182   0.0043243  )
        21           Si  tau(  21) = (   0.3725704   0.8799907   0.1168876  )
        22           Si  tau(  22) = (   0.4965166   0.7560766   0.2409650  )
        23           Si  tau(  23) = (   0.7403735   0.7572723   0.0013500  )
        24           Si  tau(  24) = (   0.8623585   0.8864368   0.1221933  )
        25           Si  tau(  25) = (  -0.0025453  -0.0039845   0.4832342  )
        26           Si  tau(  26) = (   0.2486931   0.2518495   0.4836660  )
        27           Si  tau(  27) = (   0.1263053   0.1239946   0.6100540  )
        28           Si  tau(  28) = (   0.3671534   0.1306596   0.3602892  )
        29           Si  tau(  29) = (   0.4963500  -0.0031532   0.4837181  )
        30           Si  tau(  30) = (   0.6154874   0.1254615   0.6055504  )
        31           Si  tau(  31) = (   0.8668109   0.1237502   0.3600689  )
        32           Si  tau(  32) = (   0.7450922   0.2498992   0.4808119  )
        33           Si  tau(  33) = (   0.1252686   0.3814782   0.3623619  )
        34           Si  tau(  34) = (   0.0042863   0.5067764   0.4860403  )
        35           Si  tau(  35) = (   0.1277429   0.6282078   0.6058121  )
        36           Si  tau(  36) = (   0.6212655   0.3766311   0.3680295  )
        37           Si  tau(  37) = (   0.3697682   0.6294371   0.3600199  )
        38           Si  tau(  38) = (   0.3747215   0.3803291   0.6066540  )
        39           Si  tau(  39) = (   0.4941500   0.5020967   0.4809170  )
        40           Si  tau(  40) = (   0.6198770   0.6330289   0.6045299  )
        41           Si  tau(  41) = (   0.8631842   0.6318233   0.3676919  )
        42           Si  tau(  42) = (   0.8654998   0.3792971   0.6034215  )
        43           Si  tau(  43) = (   0.1217976   0.8856691   0.3609959  )
        44           Si  tau(  44) = (   0.2476036   0.7552638   0.4837388  )
        45           Si  tau(  45) = (   0.6208270   0.8861349   0.3665641  )
        46           Si  tau(  46) = (   0.3696922   0.8834282   0.6087157  )
        47           Si  tau(  47) = (   0.7407739   0.7553138   0.4810859  )
        48           Si  tau(  48) = (   0.8632172   0.8826125   0.6022031  )
        49           Si  tau(  49) = (   0.0019564   0.2562538   0.7310780  )
        50           Si  tau(  50) = (   0.2458869  -0.0029131   0.7306248  )
        51           Si  tau(  51) = (   0.3727026   0.1258503   0.8530437  )
        52           Si  tau(  52) = (   0.4927295   0.2507382   0.7308410  )
        53           Si  tau(  53) = (   0.7418135  -0.0012086   0.7232148  )
        54           Si  tau(  54) = (   0.8658728   0.1260950   0.8514140  )
        55           Si  tau(  55) = (   0.1219591   0.3753182   0.8526216  )
        56           Si  tau(  56) = (   0.2491142   0.5086098   0.7245622  )
        57           Si  tau(  57) = (   0.6152674   0.3755181   0.8473161  )
        58           Si  tau(  58) = (   0.3665645   0.6277786   0.8495656  )
        59           Si  tau(  59) = (   0.7405617   0.5070674   0.7311157  )
        60           Si  tau(  60) = (   0.8653058   0.6316069   0.8506621  )
        61           Si  tau(  61) = (   0.0040246   0.7551986   0.7305934  )
        62           Si  tau(  62) = (   0.1238977   0.8854968   0.8452247  )
        63           Si  tau(  63) = (   0.4902295   0.7607180   0.7270588  )
        64           Si  tau(  64) = (   0.6172534   0.8827949   0.8466467  )

     number of k points=     1  Fermi-Dirac smearing, width (Ry)=  0.0100
                       cart. coord. in units 2pi/alat
        k(    1) = (   0.0000000   0.0000000   0.0000000), wk =   2.0000000

     Dense  grid:   101293 G-vectors     FFT dimensions: (  75,  75,  75)

     Estimated max dynamical RAM per process >     162.61 MB

     Estimated total dynamical RAM >     625.70 MB

     Initial potential from superposition of free atoms

     starting charge     255.9608, renormalised to     256.0000
     Starting wfcs are  256 randomized atomic wfcs

     total cpu time spent up to now is        4.0 secs

     Self-consistent Calculation

     iteration #  1     ecut=    30.00 Ry     beta= 0.50
     Davidson diagonalization with overlap
     ethr =  1.00E-02,  avg # of iterations =  3.0

     Threshold (ethr) on eigenvalues was too large:
     Diagonalizing with lowered threshold

     Davidson diagonalization with overlap
     ethr =  6.23E-04,  avg # of iterations =  3.0

     total cpu time spent up to now is        4.2 secs

     total energy              =    -503.75692689 Ry
     estimated scf accuracy    <       1.77059386 Ry

     iteration #  2     ecut=    30.00 Ry     beta= 0.50
     Davidson diagonalization with overlap
     ethr =  6.92E-04,  avg # of iterations =  1.0

     total cpu time spent up to now is        4.3 secs

     total energy              =    -503.74230582 Ry
     estimated scf accuracy    <       0.33619036 Ry

     iteration #  3     ecut=    30.00 Ry     beta= 0.50
     Davidson diagonalization with overlap
     ethr =  1.31E-04,  avg # of iterations =  4.0

     total cpu time spent up to now is        4.4 secs

     total energy              =    -503.75580354 Ry
     estimated scf accuracy    <       0.05523985 Ry

     iteration #  4     ecut=    30.00 Ry     beta= 0.50
     Davidson diagonalization with overlap
     c_bands:  1 eigenvalues not converged
     ethr =  2.16E-05,  avg # of iterations = 20.0

     total cpu time spent up to now is        4.7 secs

     total energy              =    -503.76719046 Ry
     estimated scf accuracy    <       0.01022149 Ry

     iteration #  5     ecut=    30.00 Ry     beta= 0.50
     Davidson diagonalization with overlap
     ethr =  3.99E-06,  avg # of iterations = 16.0

     total cpu time spent up to now is        4.9 secs

     total energy              =    -503.76854725 Ry
     estimated scf accuracy    <       0.00218456 Ry

     iteration #  6     ecut=    30.00 Ry     beta= 0.50
     Davidson diagonalization with overlap
     ethr =  8.53E-07,  avg # of iterations =  5.0

     total cpu time spent up to now is        5.0 secs

     total energy              =    -503.76890874 Ry
     estimated scf accuracy    <       0.00081707 Ry

     iteration #  7     ecut=    30.00 Ry     beta= 0.50
     Davidson diagonalization with overlap
     ethr =  3.19E-07,  avg # of iterations =  3.0

     total cpu time spent up to now is        5.1 secs

     total energy              =    -503.76899103 Ry
     estimated scf accuracy    <       0.00010829 Ry

     iteration #  8     ecut=    30.00 Ry     beta= 0.50
     Davidson diagonalization with overlap
     ethr =  4.23E-08,  avg # of iterations =  4.0

     total cpu time spent up to now is        5.2 secs

     total energy              =    -503.76901640 Ry
     estimated scf accuracy    <       0.00000697 Ry

     iteration #  9     ecut=    30.00 Ry     beta= 0.50
     Davidson diagonalization with overlap
     ethr =  2.72E-09,  avg # of iterations =  4.0

     total cpu time spent up to now is        5.3 secs

     total energy              =    -503.76901732 Ry
     estimated scf accuracy    <       0.00000391 Ry

     iteration # 10     ecut=    30.00 Ry     beta= 0.50
     Davidson diagonalization with overlap
     ethr =  1.53E-09,  avg # of iterations =  4.0

     total cpu time spent up to now is        5.4 secs

     End of self-consistent calculation

          k = 0.0000 0.0000 0.0000 ( 12659 PWs)   bands (ev):

    -5.9800  -5.0770  -5.0096  -4.9616  -4.8893  -4.8254  -4.7992  -4.2903
    -4.1898  -4.1277  -4.0624  -4.0194  -3.9954  -3.9413  -3.9241  -3.9162
    -3.8777  -3.8240  -3.8043  -3.7410  -3.6798  -3.6079  -3.4784  -2.2415
    -2.1764  -2.1681  -2.0109  -1.9597  -1.9518  -1.9025  -1.8741  -1.8679
    -1.8013  -1.7937  -1.7673  -1.7478  -1.7239  -1.6896  -1.6595  -1.6522
    -1.5651  -1.1648  -1.1202  -1.0289  -0.8365   0.1391   0.1790   0.1998
     0.2167   0.2765   0.2881   0.3146   0.3242   0.3774   0.3927   0.4043
     0.4823   1.7568   1.7774   1.8173   1.8336   1.9103   1.9516   1.9869
     2.0093   2.0149   2.0505   2.0543   2.0716   2.0842   2.1060   2.1251
     2.1302   2.1378   2.1673   2.1913   2.2159   2.2265   2.2379   2.2550
     2.2718   2.3098   2.3255   2.3527   2.3875   2.3957   2.4347   2.8226
     2.9081   2.9263   3.0322   3.0576   3.0905   3.7185   3.7713   3.7883
     3.8217   3.8464   3.8837   3.8926   3.9142   3.9638   3.9994   4.0213
     4.0833   4.1141   4.2606   4.3026   4.3445   4.3725   4.4067   4.4304
     4.4549   4.4776   4.5166   4.5367   4.5650   4.5757   4.5969   4.6196
     4.6505   4.6959   4.7069   4.7853   5.0464   5.5863   5.6768   5.9764
     6.2157   6.3082   6.3546   6.5168   6.5529   6.6387   6.7447   6.7971
     6.8669   6.8993   6.9247   6.9551   6.9645   6.9817   7.0196   7.0432
     7.7711   7.8709   7.8988   7.9335   8.0110   8.0252   8.0377   8.0944
     8.1121   8.1293

     the Fermi energy is     6.0354 ev

!    total energy              =    -503.76901781 Ry
     estimated scf accuracy    <       0.00000039 Ry
     smearing contrib. (-TS)   =      -0.05370880 Ry
     internal energy E=F+TS    =    -503.71530901 Ry

     The total energy is F=E-TS. E is the sum of the following terms:
     one-electron contribution =     136.80807422 Ry
     hartree contribution      =      38.43934086 Ry
     xc contribution           =    -152.55918139 Ry
     ewald contribution        =    -526.40354269 Ry

     convergence has been achieved in  10 iterations

     Forces acting on atoms (cartesian axes, Ry/au):

     atom    1 type  1   force =     0.00143599    0.05844068   -0.03107405
     atom    2 type  1   force =    -0.03569466    0.01854180    0.00450214
     atom    3 type  1   force =     0.02452315    0.05509799   -0.00302598
     atom    4 type  1   force =     0.00757492    0.02480137   -0.01682777
     atom    5 type  1   force =    -0.02085926   -0.01678293   -0.00555641
     atom    6 type  1   force =     0.04548603    0.06100879   -0.03454984
     atom    7 type  1   force =    -0.01933529    0.03884639    0.00831903
     atom    8 type  1   force =     0.00819764   -0.03127411   -0.01683270
     atom    9 type  1   force =     0.02194977    0.07718621   -0.02338728
     atom   10 type  1   force =     0.00124122    0.01318758   -0.02755009
     atom   11 type  1   force =    -0.02389374   -0.01215173   -0.02652416
     atom   12 type  1   force =    -0.01736481    0.01289252   -0.02045918
     atom   13 type  1   force =     0.01552048    0.00250871    0.00975334
     atom   14 type  1   force =     0.00882306   -0.02353795   -0.01364863
     atom   15 type  1   force =    -0.00261808   -0.00887503   -0.02490322
     atom   16 type  1   force =     0.00639790   -0.02055543   -0.00964177
     atom   17 type  1   force =     0.03984327   -0.02055305   -0.00007781
     atom   18 type  1   force =     0.00519038    0.01777529    0.01525243
     atom   19 type  1   force =    -0.02727961    0.01264985   -0.00157176
     atom   20 type  1   force =    -0.02897724   -0.01797131   -0.05024641
     atom   21 type  1   force =    -0.01508072   -0.04144669    0.03756490
     atom   22 type  1   force =    -0.00484530    0.01027726    0.01581935
     atom   23 type  1   force =     0.01046401    0.00275659   -0.03081516
     atom   24 type  1   force =     0.02769049   -0.06990281   -0.00249941
     atom   25 type  1   force =    -0.01848235    0.06911476    0.01962610
     atom   26 type  1   force =    -0.00915313    0.01140424    0.01926288
     atom   27 type  1   force =    -0.02226867    0.01520687   -0.01667874
     atom   28 type  1   force =     0.01348990   -0.03297482    0.00157536
     atom   29 type  1   force =    -0.03490233    0.07504472    0.01435032
     atom   30 type  1   force =     0.01059236    0.01272836   -0.00578163
     atom   31 type  1   force =     0.02874862    0.00692034    0.00002660
     atom   32 type  1   force =     0.00135409   -0.00507198    0.02519603
     atom   33 type  1   force =    -0.01350582   -0.01935281    0.00747701
     atom   34 type  1   force =    -0.04523945   -0.01198921   -0.00387381
     atom   35 type  1   force =    -0.01812507    0.02554287   -0.00055454
     atom   36 type  1   force =    -0.00948807   -0.00162518   -0.02602602
     atom   37 type  1   force =     0.01009354    0.00982428    0.01075773
     atom   38 type  1   force =    -0.01692443   -0.00860422   -0.00309102
     atom   39 type  1   force =     0.01269971    0.01532782    0.01689147
     atom   40 type  1   force =    -0.02390461   -0.00545937    0.00612868
     atom   41 type  1   force =     0.03800678   -0.02346785   -0.02532590
     atom   42 type  1   force =     0.02984955    0.00786145    0.01503430
     atom   43 type  1   force =    -0.00122011   -0.07705128    0.00309954
     atom   44 type  1   force =    -0.00005628    0.00749520   -0.00182963
     atom   45 type  1   force =    -0.01942005   -0.08544669   -0.01181657
     atom   46 type  1   force =    -0.00439529   -0.04568114   -0.02530348
     atom   47 type  1   force =     0.00428786    0.00644553    0.02262042
     atom   48 type  1   force =     0.04097440   -0.06229176    0.00333346
     atom   49 type  1   force =    -0.04035072   -0.02535156   -0.01491686
     atom   50 type  1   force =     0.03028036    0.07958852   -0.01144516
     atom   51 type  1   force =    -0.01889439   -0.00396757    0.00804319
     atom   52 type  1   force =     0.00436710   -0.00216381   -0.01539540
     atom   53 type  1   force =     0.00149418    0.05890486    0.02317575
     atom   54 type  1   force =     0.02162848    0.00127216    0.00564507
     atom   55 type  1   force =     0.01905364    0.03115059    0.01448270
     atom   56 type  1   force =    -0.00861260   -0.04505981    0.02249527
     atom   57 type  1   force =     0.01416181    0.01580013    0.03904641
     atom   58 type  1   force =     0.02123338    0.02511476    0.02641389
     atom   59 type  1   force =     0.00623653   -0.01642600   -0.01704930
     atom   60 type  1   force =     0.02706959    0.00758012    0.02242562
     atom   61 type  1   force =    -0.04104513   -0.00736909   -0.01883356
     atom   62 type  1   force =    -0.02827928   -0.06986664    0.07528368
     atom   63 type  1   force =     0.01558373   -0.03706228    0.01028229
     atom   64 type  1   force =    -0.00532743   -0.03896446    0.03322826

     Total force =     0.380787     Total SCF correction =     0.001101


     Computing stress (Cartesian axis) and pressure

          total   stress  (Ry/bohr**3)                   (kbar)     P=      -14.49
  -0.00013511   0.00002694  -0.00011129          -19.88        3.96      -16.37
   0.00002694  -0.00012586   0.00002757            3.96      -18.51        4.06
  -0.00011129   0.00002757  -0.00003458          -16.37        4.06       -5.09

 
     init_run     :      0.74s CPU      3.96s WALL (       1 calls)
     electrons    :      1.33s CPU      1.41s WALL (       1 calls)
     forces       :      0.04s CPU      0.04s WALL (       1 calls)
     stress       :      0.15s CPU      0.16s WALL (       1 calls)

     Called by init_run:
     wfcinit      :      0.41s CPU      3.48s WALL (       1 calls)
                                        3.48s GPU  (       1 calls)
     potinit      :      0.14s CPU      0.21s WALL (       1 calls)
     hinit0       :      0.17s CPU      0.20s WALL (       1 calls)

     Called by electrons:
     c_bands      :      0.96s CPU      1.00s WALL (      11 calls)
     sum_band     :      0.21s CPU      0.23s WALL (      11 calls)
     v_of_rho     :      0.09s CPU      0.16s WALL (      11 calls)
     mix_rho      :      0.07s CPU      0.08s WALL (      11 calls)

     Called by c_bands:
     init_us_2    :      0.03s CPU      0.03s WALL (      23 calls)
     init_us_2:gp :      0.03s CPU      0.03s WALL (      23 calls)
     regterg      :      0.87s CPU      0.90s WALL (      11 calls)

     Called by *egterg:
     rdiaghg      :      0.37s CPU      1.00s WALL (      77 calls)
                                        0.98s GPU  (      77 calls)
     h_psi        :      0.77s CPU      3.24s WALL (      79 calls)
                                        3.24s GPU  (      79 calls)
     g_psi        :      0.00s CPU      0.00s WALL (      67 calls)
                                        0.00s GPU  (      67 calls)

     Called by h_psi:
     h_psi:calbec :      0.36s CPU      2.77s WALL (      79 calls)
                                        2.77s GPU  (      79 calls)
     vloc_psi     :      0.36s CPU      0.42s WALL (      79 calls)
                                        0.42s GPU  (      79 calls)
     add_vuspsi   :      0.03s CPU      0.04s WALL (      79 calls)
                                        0.04s GPU  (      79 calls)

     General routines
     calbec       :      0.37s CPU      2.78s WALL (      84 calls)
     fft          :      0.20s CPU      0.29s WALL (      95 calls)
                                        0.09s GPU  (      61 calls)
     ffts         :      0.02s CPU      0.03s WALL (      11 calls)
     fftw         :      0.40s CPU      0.52s WALL (    1227 calls)
                                        0.47s GPU  (    1227 calls)
 
     Parallel routines
 
     PWSCF        :      2.30s CPU      5.64s WALL

 
   This run was terminated on:  11:23:16  10May2023            

=------------------------------------------------------------------------------=
   JOB DONE.
=------------------------------------------------------------------------------=
